Title
82322
    1SAPS     N    1   2.184   2.373  10.810  0.0450 -0.4069 -0.5872
    1SAPS   HN1    2   2.191   2.374  10.706  0.2205  1.1041 -0.5847
    1SAPS   HN2    3   2.160   2.279  10.847  0.9768 -0.6003 -0.4396
    1SAPS   HN3    4   2.103   2.433  10.833  0.6272  0.1715  0.0171
    1SAPS   C12    5   2.318   2.421  10.866 -0.5622  0.5549  0.5513
    1SAPS  H12A    6   2.346   2.503  10.801 -4.0576  2.3604  1.0611
    1SAPS   C13    7   2.314   2.490  11.006  0.1812  0.2476 -0.0574
    1SAPS  O13A    8   2.202   2.499  11.061 -0.0102  0.2832 -0.5851
    1SAPS  O13B    9   2.419   2.527  11.061 -0.5870 -0.4558 -0.1446
    1SAPS   C11   10   2.427   2.312  10.856 -0.0827  0.6753  0.0668
    1SAPS  H11A   11   2.413   2.261  10.953 -1.5329 -1.4807 -1.2035
    1SAPS  H11B   12   2.530   2.353  10.848 -0.1198  0.9164  0.7760
    1SAPS     P   13   2.425   2.065  10.778  0.4790  0.3777  0.1807
    1SAPS   O13   14   2.571   2.040  10.786  0.2287  0.2379  0.4048
    1SAPS   O14   15   2.340   2.025  10.887  0.3434 -0.1400  0.2374
    1SAPS   O12   16   2.401   2.216  10.754 -0.1546  0.1834 -0.5253
    1SAPS   O11   17   2.370   1.994  10.649 -0.8313 -0.1823  0.5670
    1SAPS    C1   18   2.236   2.007  10.609 -0.4103 -0.1855  0.6492
    1SAPS    HA   19   2.189   1.906  10.609  1.7914 -1.2577  1.5249
    1SAPS    HB   20   2.183   2.065  10.688 -0.4626 -0.0086  0.4845
    1SAPS    C2   21   2.239   2.080  10.473  0.3093  0.2809 -0.7608
    1SAPS    HS   22   2.261   2.185  10.500  0.4047  0.0183  0.2275
    1SAPS   O21   23   2.106   2.059  10.425 -0.2661 -0.1255  0.4450
    1SAPS   C21   24   2.060   2.166  10.348 -0.6977 -0.5446 -0.0096
    1SAPS   O22   25   2.116   2.271  10.314  0.1144  0.1500  0.3609
    1SAPS   C22   26   1.915   2.156  10.330 -0.3968  0.1414 -0.4778
    1SAPS   H2R   27   1.882   2.050  10.337 -1.8234  0.3948 -2.5325
    1SAPS   H2S   28   1.865   2.208  10.415  0.2609  2.2929 -1.3427
    1SAPS    C3   29   2.344   2.025  10.373 -0.5393  0.1329  0.6467
    1SAPS    HX   30   2.337   1.914  10.376 -0.1462  0.1111  0.8969
    1SAPS    HY   31   2.441   2.046  10.423 -0.4053 -0.1246  0.4963
    1SAPS   O31   32   2.327   2.070  10.233  0.7603 -0.0069 -0.7299
    1SAPS   C31   33   2.387   2.191  10.226  0.4341  0.4861  0.7933
    1SAPS   O32   34   2.444   2.245  10.316  0.0535  0.3755  0.2481
    1SAPS   C32   35   2.381   2.250  10.087  0.5970  0.4217  0.6845
    1SAPS   H2X   36   2.469   2.220  10.027 -0.3769 -1.2697  0.0407
    1SAPS   H2Y   37   2.396   2.359  10.105  0.5163  0.0804  3.1267
    1SAPS   C23   38   1.873   2.215  10.194 -0.1433 -0.3726  0.1665
    1SAPS   H3R   39   1.925   2.312  10.181  1.9721 -1.7956 -3.1186
    1SAPS   H3S   40   1.763   2.234  10.200 -0.3855 -1.8294  0.8037
    1SAPS   C24   41   1.898   2.116  10.074  0.3023  0.6906 -0.2429
    1SAPS   H4R   42   1.974   2.037  10.089 -0.2113  0.2909  0.2870
    1SAPS   H4S   43   1.950   2.177   9.997  3.5323 -0.6547  0.7335
    1SAPS   C25   44   1.767   2.040  10.023  0.1180  0.3500 -0.1906
    1SAPS   H5R   45   1.693   2.012  10.099  0.5016  0.0771  0.0869
    1SAPS   C26   46   1.747   2.014   9.895  0.1670 -0.2452 -0.2008
    1SAPS   H6R   47   1.652   1.967   9.866 -1.0684  0.9361  1.6964
    1SAPS   C27   48   1.843   2.052   9.786 -0.4788 -0.4000  0.1045
    1SAPS   H7R   49   1.868   2.160   9.798  0.2727 -0.4595 -0.8161
    1SAPS   H7S   50   1.784   2.053   9.692  1.5180  1.7501 -1.2287
    1SAPS   C28   51   1.967   1.969   9.772 -0.5854  0.3022  0.6330
    1SAPS   H8R   52   2.008   1.935   9.868 -1.2904 -1.5470  0.3345
    1SAPS   C29   53   2.043   1.954   9.660 -0.8868  0.8654  0.2147
    1SAPS   H9R   54   2.113   1.869   9.669 -0.2165  1.4227  0.3289
    1SAPS  C210   55   2.012   2.010   9.523  0.5373 -0.2896  0.5492
    1SAPS  H10R   56   2.101   2.051   9.472  0.5104  0.4128  1.0546
    1SAPS  H10S   57   1.934   2.088   9.532 -2.0155 -2.8374  2.3420
    1SAPS  C211   58   1.938   1.902   9.450 -0.6468  0.3722 -0.1292
    1SAPS  H11R   59   1.842   1.885   9.502 -1.2809 -0.2697 -1.4548
    1SAPS  C212   60   1.973   1.836   9.335 -0.1265  0.1403 -1.0008
    1SAPS  H12R   61   1.900   1.758   9.309  1.0906 -1.0573 -0.9763
    1SAPS  C213   62   2.092   1.860   9.253  0.0774 -0.0484 -0.6275
    1SAPS  H13R   63   2.172   1.784   9.269 -0.0282  0.2292  1.4367
    1SAPS  H13S   64   2.139   1.957   9.278  0.1577  0.1650 -1.5949
    1SAPS  C214   65   2.045   1.875   9.114  0.8678  0.1308 -0.8894
    1SAPS  H14R   66   2.054   1.783   9.054  1.0987  0.0564 -0.7415
    1SAPS  C215   67   2.006   1.980   9.041 -0.3081 -0.5183  0.4145
    1SAPS  H15R   68   1.985   1.965   8.934 -0.5294 -1.7369  0.6183
    1SAPS  C216   69   2.000   2.120   9.091  0.2936  0.2142 -0.3735
    1SAPS  H16R   70   2.081   2.177   9.040  0.2218  0.1888 -0.5145
    1SAPS  H16S   71   2.008   2.118   9.202  1.3684 -1.2014 -0.4368
    1SAPS  C217   72   1.871   2.181   9.034  0.0103 -0.3996 -0.0867
    1SAPS  H17R   73   1.848   2.278   9.083  1.9231  1.0451 -1.8651
    1SAPS  H17S   74   1.785   2.115   9.060 -0.0960 -0.1263  0.2675
    1SAPS  C218   75   1.856   2.205   8.877  0.3415 -0.0896  0.6492
    1SAPS  H18R   76   1.848   2.104   8.831 -0.1810 -0.4910  1.5901
    1SAPS  H18S   77   1.947   2.261   8.846 -0.5242 -0.1840 -2.4389
    1SAPS  C219   78   1.722   2.273   8.838 -0.0956 -0.2011  0.6009
    1SAPS  H19R   79   1.637   2.226   8.892 -0.3533 -2.6029 -1.6743
    1SAPS  H19S   80   1.714   2.250   8.730  1.1238 -0.1804  0.4990
    1SAPS  C220   81   1.741   2.428   8.837 -0.4346  0.7707 -0.2965
    1SAPS  H20R   82   1.787   2.466   8.931 -1.0705 -0.7668  0.6819
    1SAPS  H20S   83   1.644   2.475   8.810 -1.9139  0.0244  3.0811
    1SAPS  H20T   84   1.810   2.445   8.752 -0.6717 -0.5281 -0.7745
    1SAPS   C33   85   2.249   2.217  10.008  0.1260 -0.3997 -0.1951
    1SAPS   H3X   86   2.157   2.273  10.038 -0.8470 -1.6762 -0.7027
    1SAPS   H3Y   87   2.230   2.109  10.023 -1.0336 -0.0212  1.3638
    1SAPS   C34   88   2.263   2.234   9.859 -0.2171 -0.3383  0.4349
    1SAPS   H4X   89   2.199   2.158   9.809 -0.7010 -0.3942  1.1347
    1SAPS   H4Y   90   2.368   2.214   9.827  0.1882 -0.0801  1.5603
    1SAPS   C35   91   2.225   2.373   9.802  0.1554  0.7056  0.2573
    1SAPS   H5X   92   2.296   2.444   9.849  0.4497  0.6462 -0.0907
    1SAPS   H5Y   93   2.124   2.396   9.841  0.6439  1.8132  0.9064
    1SAPS   C36   94   2.213   2.387   9.647 -0.1864 -0.1304 -0.1505
    1SAPS   H6X   95   2.278   2.319   9.587  1.8134  1.6672 -0.1344
    1SAPS   H6Y   96   2.236   2.493   9.622 -0.7329 -0.3542 -1.7832
    1SAPS   C37   97   2.066   2.367   9.595  0.5872 -0.1769  0.6878
    1SAPS   H7X   98   2.002   2.438   9.651 -0.4798 -1.2098  0.8225
    1SAPS   H7Y   99   2.021   2.266   9.609 -0.1342 -0.6596 -3.6084
    1SAPS   C38  100   2.051   2.385   9.445  0.1592 -0.3225 -0.0216
    1SAPS   H8X  101   1.961   2.334   9.405  1.2908 -1.0868 -1.6963
    1SAPS   H8Y  102   2.134   2.335   9.391 -1.2068 -2.5568 -0.1667
    1SAPS   C39  103   2.043   2.539   9.413  0.5935  0.2329  0.8845
    1SAPS   H9X  104   2.141   2.587   9.434  0.2919  0.2143  2.4136
    1SAPS   H9Y  105   1.977   2.592   9.485 -0.5067 -1.0173  0.8285
    1SAPS  C310  106   2.005   2.586   9.272  0.1013  0.3923 -0.9324
    1SAPS  H10X  107   2.025   2.694   9.256  2.2352  0.0817 -0.7332
    1SAPS  H10Y  108   1.896   2.574   9.259 -0.3530  1.8720  1.1103
    1SAPS  C311  109   2.086   2.514   9.172 -0.0922 -0.2917  0.3429
    1SAPS  H11X  110   2.045   2.530   9.070  0.7237 -0.4434 -0.0161
    1SAPS  H11Y  111   2.078   2.406   9.199 -0.7092 -0.4194 -0.3118
    1SAPS  C312  112   2.238   2.556   9.167  0.1623 -0.0826  0.7880
    1SAPS  H12X  113   2.268   2.534   9.271  0.9204  0.8569  0.7751
    1SAPS  H12Y  114   2.246   2.665   9.149  0.5434  0.4007  3.4670
    1SAPS  C313  115   2.329   2.475   9.077  0.5853 -0.7039 -0.9868
    1SAPS  H13X  116   2.315   2.366   9.092 -0.7463 -0.6298 -1.5395
    1SAPS  H13Y  117   2.433   2.500   9.105  0.7283 -3.0261  0.8013
    1SAPS  C314  118   2.286   2.512   8.933 -0.6840  0.6366 -0.3443
    1SAPS  H14X  119   2.269   2.621   8.915 -1.5206  0.9304  1.9607
    1SAPS  H14Y  120   2.193   2.452   8.919  0.5347 -0.9979 -1.8797
    1SAPS  C315  121   2.385   2.476   8.824  0.3916  0.5357  0.2364
    1SAPS  H15X  122   2.398   2.366   8.816 -0.8385  0.4300 -0.4966
    1SAPS  H15Y  123   2.483   2.527   8.836  2.0349 -2.1676 -0.7552
    1SAPS  C316  124   2.327   2.512   8.684 -0.7124  0.2916  0.4902
    1SAPS  H16X  125   2.408   2.551   8.618  1.2705 -1.5480  1.7195
    1SAPS  H16Y  126   2.255   2.595   8.700  1.5248  2.0009  2.4891
    1SAPS  C317  127   2.269   2.393   8.612  0.7642  0.5025 -0.0341
    1SAPS  H17X  128   2.202   2.345   8.686 -1.7537  1.9234 -1.2402
    1SAPS  H17Y  129   2.349   2.324   8.576 -0.8933 -0.8106 -1.3368
    1SAPS  C318  130   2.193   2.431   8.485 -0.7578 -0.3182 -0.1569
    1SAPS  H18X  131   2.263   2.489   8.422  0.8848 -3.2099 -1.1571
    1SAPS  H18Y  132   2.113   2.508   8.495  0.3727  1.0065 -0.9263
    1SAPS  H18Z  133   2.153   2.358   8.413 -0.7583  2.0664 -2.7408
    2SAPS     N  134   1.128   4.148  11.115  0.1296  0.6791  0.4389
    2SAPS   HN1  135   1.187   4.116  11.036 -0.6154 -2.0064  0.8817
    2SAPS   HN2  136   1.056   4.073  11.113  1.8541 -1.0206 -0.4203
    2SAPS   HN3  137   1.085   4.234  11.075 -1.5436 -1.2586 -2.2451
    2SAPS   C12  138   1.200   4.165  11.240 -0.2034  0.5951 -0.1395
    2SAPS  H12A  139   1.143   4.235  11.300 -0.2577  1.6144 -1.3249
    2SAPS   C13  140   1.206   4.040  11.330 -0.1328  0.3970  0.0463
    2SAPS  O13A  141   1.133   3.942  11.306 -0.4942 -0.0698  0.1238
    2SAPS  O13B  142   1.256   4.060  11.445  0.5523 -0.1840 -0.0996
    2SAPS   C11  143   1.341   4.215  11.203  0.0955 -0.9578  1.0755
    2SAPS  H11A  144   1.393   4.149  11.131 -0.4435  0.8405 -1.0636
    2SAPS  H11B  145   1.408   4.230  11.291  0.2131  1.1553  0.6837
    2SAPS     P  146   1.440   4.436  11.125 -0.3231 -0.3274  0.4272
    2SAPS   O13  147   1.401   4.546  11.214  0.1689  0.4820  0.0284
    2SAPS   O14  148   1.571   4.366  11.142  0.4235  0.2117  0.0059
    2SAPS   O12  149   1.327   4.333  11.124 -0.1822 -0.1334 -0.0196
    2SAPS   O11  150   1.434   4.488  10.976  0.1345 -0.6934  0.1215
    2SAPS    C1  151   1.307   4.519  10.912 -0.9615 -0.2899  0.5232
    2SAPS    HA  152   1.242   4.429  10.918 -1.4901  0.1140  1.0908
    2SAPS    HB  153   1.245   4.597  10.962 -0.1592  1.2854 -0.8514
    2SAPS    C2  154   1.323   4.557  10.761 -0.0581  0.1328  0.5969
    2SAPS    HS  155   1.393   4.490  10.707 -1.2276 -0.1327 -0.6713
    2SAPS   O21  156   1.362   4.693  10.748 -0.6272  0.1916  0.4238
    2SAPS   C21  157   1.496   4.710  10.756  0.7662  0.2711  0.9583
    2SAPS   O22  158   1.581   4.618  10.755 -0.3136  0.2977  0.6832
    2SAPS   C22  159   1.523   4.859  10.744 -0.5413  0.4060 -0.1299
    2SAPS   H2R  160   1.439   4.922  10.782 -2.3972 -1.0685 -1.6352
    2SAPS   H2S  161   1.613   4.871  10.808 -0.3123  0.3379 -0.4361
    2SAPS    C3  162   1.183   4.525  10.693 -0.3652 -0.1979 -0.9759
    2SAPS    HX  163   1.105   4.571  10.757  0.5352 -1.0209  0.7890
    2SAPS    HY  164   1.183   4.415  10.706  1.0058 -0.0090  1.1139
    2SAPS   O31  165   1.180   4.550  10.553  0.6619 -0.0231  0.2344
    2SAPS   C31  166   1.116   4.653  10.506  0.0412  0.2154 -0.1217
    2SAPS   O32  167   1.064   4.741  10.571 -0.2245 -0.0858 -0.6820
    2SAPS   C32  168   1.118   4.658  10.354  0.1182 -0.1932  0.0852
    2SAPS   H2X  169   1.050   4.590  10.299  0.4470 -0.2156 -0.3042
    2SAPS   H2Y  170   1.223   4.634  10.324  0.4617  1.9238 -0.6075
    2SAPS   C23  171   1.575   4.902  10.604 -0.3462  0.4231 -0.3134
    2SAPS   H3R  172   1.656   4.833  10.573 -0.7688 -1.2438  1.9965
    2SAPS   H3S  173   1.614   5.005  10.617 -4.0806  1.7348  2.1774
    2SAPS   C24  174   1.460   4.898  10.508 -0.1278  0.9747 -0.2829
    2SAPS   H4R  175   1.380   4.962  10.551  0.4314  0.2458  1.9378
    2SAPS   H4S  176   1.417   4.796  10.496 -0.2015  1.0334 -0.5465
    2SAPS   C25  177   1.504   4.952  10.379 -0.6385 -0.2844 -0.1682
    2SAPS   H5R  178   1.500   5.061  10.376 -0.1866 -0.2882 -1.4313
    2SAPS   C26  179   1.536   4.884  10.270  0.2227  0.0159  0.1682
    2SAPS   H6R  180   1.565   4.946  10.184 -1.1879  2.0620  1.0752
    2SAPS   C27  181   1.553   4.737  10.254  0.1468  0.6061  0.3315
    2SAPS   H7R  182   1.549   4.708  10.147 -1.9068 -0.4447  0.6323
    2SAPS   H7S  183   1.460   4.685  10.287  0.1599  1.0252  1.0588
    2SAPS   C28  184   1.673   4.674  10.336  0.4252  0.0461  0.0459
    2SAPS   H8R  185   1.750   4.747  10.366 -0.0969  1.4302 -1.7393
    2SAPS   C29  186   1.694   4.540  10.350  0.4673  0.0821 -0.3243
    2SAPS   H9R  187   1.784   4.508  10.404 -0.0122  1.1993  1.1943
    2SAPS  C210  188   1.615   4.427  10.293 -0.0840  0.1293 -0.2479
    2SAPS  H10R  189   1.553   4.473  10.213 -1.5354  3.0992  2.3354
    2SAPS  H10S  190   1.538   4.393  10.365 -0.9762  1.5669 -0.4770
    2SAPS  C211  191   1.700   4.316  10.240  0.6062 -0.3784  0.1648
    2SAPS  H11R  192   1.708   4.227  10.303  0.4605 -0.2271  0.3997
    2SAPS  C212  193   1.761   4.312  10.116 -0.3194 -0.1758 -0.6453
    2SAPS  H12R  194   1.813   4.219  10.091  2.3517  0.7075  1.1312
    2SAPS  C213  195   1.758   4.414  10.014  0.0936  0.1859  0.3282
    2SAPS  H13R  196   1.854   4.471  10.010  1.5253 -2.0592  0.7040
    2SAPS  H13S  197   1.684   4.495  10.031  0.4242  0.7390 -0.7287
    2SAPS  C214  198   1.747   4.342   9.878  0.1637 -0.2995 -0.1451
    2SAPS  H14R  199   1.770   4.235   9.871  0.4126 -0.1987 -0.9564
    2SAPS  C215  200   1.721   4.407   9.765 -0.3630  0.5922  0.1373
    2SAPS  H15R  201   1.718   4.354   9.669  0.0125  1.2802 -0.2665
    2SAPS  C216  202   1.699   4.557   9.750  0.2611 -0.8371 -0.1574
    2SAPS  H16R  203   1.687   4.607   9.848 -0.7315 -2.0432  0.3642
    2SAPS  H16S  204   1.606   4.579   9.693  1.3345  1.4431 -1.1454
    2SAPS  C217  205   1.826   4.628   9.687 -0.0045  0.8774 -0.5395
    2SAPS  H17R  206   1.919   4.579   9.722  0.3782  1.2398 -1.0394
    2SAPS  H17S  207   1.840   4.726   9.736  2.5272  0.5118 -0.4138
    2SAPS  C218  208   1.825   4.661   9.536 -0.4128 -0.0091  0.0362
    2SAPS  H18R  209   1.911   4.729   9.520  0.2870 -0.9900 -0.4426
    2SAPS  H18S  210   1.736   4.726   9.519  1.3419  2.5117 -0.1439
    2SAPS  C219  211   1.840   4.534   9.447  0.6117 -0.4336  0.3619
    2SAPS  H19R  212   1.762   4.460   9.473 -0.7594  1.0079  0.5294
    2SAPS  H19S  213   1.930   4.484   9.489 -0.0780 -1.2856  0.8451
    2SAPS  C220  214   1.852   4.567   9.301 -0.2417  0.1249  0.1589
    2SAPS  H20R  215   1.852   4.474   9.240 -1.0321  1.5882 -2.1902
    2SAPS  H20S  216   1.950   4.617   9.287  0.8445 -2.3912 -2.1163
    2SAPS  H20T  217   1.776   4.639   9.264 -0.2166  0.1232  0.1035
    2SAPS   C33  218   1.083   4.798  10.307 -0.4137 -0.2409 -0.2207
    2SAPS   H3X  219   1.144   4.878  10.354  2.1305 -1.0718 -1.9073
    2SAPS   H3Y  220   0.978   4.821  10.335 -0.3684 -0.5054  0.1605
    2SAPS   C34  221   1.083   4.819  10.156  0.1462 -0.9810  0.0529
    2SAPS   H4X  222   1.050   4.923  10.133  2.4878 -0.6296 -2.1996
    2SAPS   H4Y  223   1.003   4.760  10.107 -0.6275 -0.5254  0.7429
    2SAPS   C35  224   1.222   4.807  10.090  0.4536 -0.9523  1.0038
    2SAPS   H5X  225   1.269   4.709  10.112  2.7111 -0.8884 -2.7001
    2SAPS   H5Y  226   1.285   4.894  10.117  2.0487 -0.6039 -3.0846
    2SAPS   C36  227   1.219   4.821   9.933  0.2720 -0.2339 -0.1332
    2SAPS   H6X  228   1.142   4.898   9.909  1.4786  2.2628  3.1296
    2SAPS   H6Y  229   1.189   4.727   9.882 -1.4097  0.0634  0.2671
    2SAPS   C37  230   1.354   4.873   9.879 -0.2893  0.1003 -1.3678
    2SAPS   H7X  231   1.425   4.788   9.886 -0.8724 -0.2531  1.1200
    2SAPS   H7Y  232   1.397   4.961   9.930 -0.2074  0.4782 -2.0728
    2SAPS   C38  233   1.352   4.914   9.734 -0.0624  0.0166  0.4173
    2SAPS   H8X  234   1.426   4.996   9.730 -1.8824  2.0449  4.0048
    2SAPS   H8Y  235   1.259   4.968   9.706  1.2987  2.7241  0.8094
    2SAPS   C39  236   1.390   4.790   9.653  0.5968 -0.0608 -0.6352
    2SAPS   H9X  237   1.364   4.694   9.702  2.0143 -1.5364 -2.6355
    2SAPS   H9Y  238   1.501   4.788   9.650  0.7087  1.5425  0.9446
    2SAPS  C310  239   1.343   4.795   9.508 -0.7965 -0.0440 -0.2075
    2SAPS  H10X  240   1.240   4.838   9.501 -0.1650  1.2649 -2.3283
    2SAPS  H10Y  241   1.339   4.693   9.465  1.7821 -0.2347 -0.1155
    2SAPS  C311  242   1.434   4.877   9.423 -0.1226  0.4581  0.8361
    2SAPS  H11X  243   1.522   4.815   9.395 -1.5329 -0.8664 -0.8339
    2SAPS  H11Y  244   1.463   4.962   9.489 -1.4729  2.0591 -0.5367
    2SAPS  C312  245   1.374   4.944   9.300 -0.0678 -1.0702  0.3655
    2SAPS  H12X  246   1.457   5.012   9.271 -1.4271  1.0089  1.1237
    2SAPS  H12Y  247   1.294   5.011   9.336  0.4751 -0.2104  0.0132
    2SAPS  C313  248   1.324   4.861   9.187  0.6703 -1.7729  0.4682
    2SAPS  H13X  249   1.261   4.782   9.232  0.4670 -1.7923  0.1526
    2SAPS  H13Y  250   1.416   4.818   9.143  3.3933  1.9064  1.9765
    2SAPS  C314  251   1.244   4.927   9.076 -0.3169  0.4047 -0.5410
    2SAPS  H14X  252   1.188   5.010   9.123  0.4898 -0.0158  1.2349
    2SAPS  H14Y  253   1.172   4.852   9.035  0.2222  0.1981 -1.1213
    2SAPS  C315  254   1.335   4.979   8.972  0.6857 -0.2211 -0.4443
    2SAPS  H15X  255   1.372   4.897   8.907 -0.7620 -0.6918 -0.7111
    2SAPS  H15Y  256   1.407   5.036   9.035  0.9613 -0.7395 -0.2907
    2SAPS  C316  257   1.278   5.091   8.879 -0.0217  0.3446 -0.2056
    2SAPS  H16X  258   1.355   5.165   8.850  0.6958  0.4612  1.8080
    2SAPS  H16Y  259   1.208   5.146   8.945 -1.6067 -1.7743 -0.0125
    2SAPS  C317  260   1.227   5.025   8.746  0.8085  0.0381 -0.1563
    2SAPS  H17X  261   1.307   4.997   8.675  0.5149 -0.2174 -0.3896
    2SAPS  H17Y  262   1.172   5.108   8.697 -1.8762  1.2934  4.3584
    2SAPS  C318  263   1.134   4.898   8.759  0.8246  0.4913 -0.0301
    2SAPS  H18X  264   1.102   4.864   8.658 -1.4533  0.4250  0.6458
    2SAPS  H18Y  265   1.043   4.928   8.815  0.3884 -0.9925  0.0834
    2SAPS  H18Z  266   1.175   4.810   8.812 -0.9415 -1.4012 -1.6281
    3SAPS     N  267   3.828   0.040  11.292  0.1619 -0.4638 -0.4381
    3SAPS   HN1  268   3.775  -0.006  11.369 -1.3092  1.0541 -0.5012
    3SAPS   HN2  269   3.767   0.114  11.254 -0.8743 -0.7827  0.5526
    3SAPS   HN3  270   3.850  -0.014  11.205 -1.4437  0.7258 -1.6391
    3SAPS   C12  271   3.960   0.090  11.354 -0.3992  0.0664  0.2010
    3SAPS  H12A  272   3.944   0.177  11.417  1.0709 -1.3182  2.6421
    3SAPS   C13  273   4.034  -0.024  11.430  0.0588  0.3111  0.9018
    3SAPS  O13A  274   3.997  -0.141  11.444  0.6018  0.3655 -0.0120
    3SAPS  O13B  275   4.138   0.018  11.487 -0.1884  0.5421  0.2494
    3SAPS   C11  276   4.051   0.131  11.225  0.8011  0.6370 -0.4877
    3SAPS  H11A  277   4.143   0.180  11.264  2.2068 -0.9691 -1.6255
    3SAPS  H11B  278   3.995   0.201  11.160  1.1254 -0.9079 -2.5731
    3SAPS     P  279   4.139   0.011  11.000 -0.0763 -0.3136  0.3215
    3SAPS   O13  280   4.288  -0.003  11.000 -0.5518 -0.0479 -0.7827
    3SAPS   O14  281   4.052  -0.089  10.939 -0.4974 -0.0087  0.1466
    3SAPS   O12  282   4.093   0.017  11.146  0.0474 -0.0928  0.2355
    3SAPS   O11  283   4.116   0.153  10.940  0.2291 -0.1111 -0.3592
    3SAPS    C1  284   3.989   0.193  10.884  0.3268  0.4686 -0.5238
    3SAPS    HA  285   3.908   0.159  10.952  2.1562 -0.3828  1.3341
    3SAPS    HB  286   3.982   0.303  10.894 -0.4002  0.2481  2.1345
    3SAPS    C2  287   3.967   0.153  10.739  0.1005 -0.6220  0.1201
    3SAPS    HS  288   3.989   0.045  10.729  0.1011 -0.7321  1.2480
    3SAPS   O21  289   4.060   0.225  10.658  0.3749 -0.5393 -0.0933
    3SAPS   C21  290   4.104   0.149  10.551  0.0515 -0.5260 -0.0629
    3SAPS   O22  291   4.090   0.027  10.537  0.0712 -0.1470  0.0918
    3SAPS   C22  292   4.167   0.241  10.443  0.2374 -0.4638 -0.4530
    3SAPS   H2R  293   4.091   0.321  10.430  0.7032  0.1493  0.4507
    3SAPS   H2S  294   4.257   0.293  10.482 -0.7394  0.0543  1.2344
    3SAPS    C3  295   3.820   0.172  10.690 -0.1531  0.1225  0.4275
    3SAPS    HX  296   3.814   0.282  10.679  5.6188  0.5250 -2.7054
    3SAPS    HY  297   3.747   0.131  10.763  3.8619 -1.9552  3.7921
    3SAPS   O31  298   3.801   0.116  10.559  0.0664 -0.5894  0.1577
    3SAPS   C31  299   3.770  -0.007  10.552 -0.3730  0.9266  0.6118
    3SAPS   O32  300   3.783  -0.086  10.646 -0.2675  0.1996  0.1547
    3SAPS   C32  301   3.728  -0.042  10.407 -0.0547  0.4302 -0.2288
    3SAPS   H2X  302   3.618  -0.062  10.408  0.0437 -0.4933 -2.5122
    3SAPS   H2Y  303   3.770  -0.143  10.388 -1.2898  0.1119 -1.4317
    3SAPS   C23  304   4.202   0.169  10.316 -0.3600  0.3567  0.4214
    3SAPS   H3R  305   4.108   0.135  10.268  0.2842  2.4550 -2.6488
    3SAPS   H3S  306   4.265   0.080  10.336 -2.1158 -1.0050  0.0261
    3SAPS   C24  307   4.260   0.268  10.210  0.4067  0.2409  0.5279
    3SAPS   H4R  308   4.305   0.204  10.131  1.8352  0.0519  1.4640
    3SAPS   H4S  309   4.346   0.323  10.252  1.5397 -1.3470  0.3754
    3SAPS   C25  310   4.161   0.367  10.164 -0.1861  0.1637 -0.0320
    3SAPS   H5R  311   4.125   0.431  10.246  1.3170  0.4063  0.4621
    3SAPS   C26  312   4.132   0.401  10.040  0.1742 -0.2915 -0.1582
    3SAPS   H6R  313   4.075   0.494  10.024  1.3873  0.7656  1.3262
    3SAPS   C27  314   4.187   0.347   9.908  0.4639  0.5927  0.4532
    3SAPS   H7R  315   4.107   0.349   9.831  1.1573  0.7736 -0.2725
    3SAPS   H7S  316   4.193   0.236   9.914 -0.9275  0.4167 -0.9529
    3SAPS   C28  317   4.298   0.421   9.848  0.4142 -0.0984 -0.1629
    3SAPS   H8R  318   4.376   0.458   9.916  1.1716  0.6224 -1.3821
    3SAPS   C29  319   4.330   0.445   9.714  0.8102  0.2007 -0.0692
    3SAPS   H9R  320   4.410   0.514   9.685  2.4435 -1.6750 -0.2793
    3SAPS  C210  321   4.249   0.394   9.593 -0.0765  0.3971  0.6000
    3SAPS  H10R  322   4.207   0.293   9.613  1.6892 -0.3622  0.7168
    3SAPS  H10S  323   4.314   0.388   9.503 -1.8114 -1.1415 -0.6335
    3SAPS  C211  324   4.135   0.489   9.575 -0.5220  0.0101  0.2055
    3SAPS  H11R  325   4.133   0.590   9.618 -0.7302 -0.3107  0.9694
    3SAPS  C212  326   4.023   0.464   9.501 -0.0102  0.6826 -0.7750
    3SAPS  H12R  327   3.965   0.555   9.478 -0.1231  0.3879 -1.7005
    3SAPS  C213  328   3.983   0.336   9.441 -0.6012 -0.2399 -0.0288
    3SAPS  H13R  329   3.879   0.347   9.404 -1.5761 -0.4719  2.4161
    3SAPS  H13S  330   3.979   0.253   9.515  1.4253  0.2016  0.6467
    3SAPS  C214  331   4.072   0.274   9.339  0.1530 -0.6741  0.0449
    3SAPS  H14R  332   4.178   0.302   9.342 -0.1156  0.3291  2.1009
    3SAPS  C215  333   4.028   0.201   9.234  0.1990 -0.3966 -0.9596
    3SAPS  H15R  334   4.111   0.175   9.166 -0.1528 -0.6376 -1.3019
    3SAPS  C216  335   3.886   0.168   9.184  0.2222  0.0960  0.0228
    3SAPS  H16R  336   3.872   0.199   9.079  0.1701 -1.0604 -0.3266
    3SAPS  H16S  337   3.808   0.215   9.246  1.3191 -0.2625  1.7590
    3SAPS  C217  338   3.872   0.017   9.180 -0.2224 -0.6968 -0.9700
    3SAPS  H17R  339   3.872  -0.021   9.284 -1.2447 -2.8730 -1.6887
    3SAPS  H17S  340   3.965  -0.031   9.141 -0.0474  0.5148 -2.1249
    3SAPS  C218  341   3.745  -0.036   9.111  0.7245  0.8713 -0.6145
    3SAPS  H18R  342   3.758  -0.146   9.101 -0.5296  0.7181 -0.7994
    3SAPS  H18S  343   3.739   0.015   9.012 -0.1638  0.5104 -0.7655
    3SAPS  C219  344   3.615  -0.001   9.180 -0.5909  0.2465  0.1391
    3SAPS  H19R  345   3.530  -0.050   9.128  0.8587 -2.3689  0.0722
    3SAPS  H19S  346   3.616   0.110   9.179  0.6439  0.2554  1.0480
    3SAPS  C220  347   3.599  -0.043   9.327 -0.5881 -0.1123  0.8080
    3SAPS  H20R  348   3.690  -0.009   9.381 -1.2898  1.5334  1.0054
    3SAPS  H20S  349   3.598  -0.154   9.330 -0.9228 -0.1680 -0.5792
    3SAPS  H20T  350   3.510  -0.007   9.384  0.2532  0.2151  1.9385
    3SAPS   C33  351   3.764   0.065  10.302 -0.7587  0.0855  0.0149
    3SAPS   H3X  352   3.874   0.054  10.289 -0.7777  0.7995 -0.9108
    3SAPS   H3Y  353   3.735   0.167  10.334 -0.4450  0.6039 -1.2920
    3SAPS   C34  354   3.708   0.031  10.160 -0.0889 -0.0054  0.2540
    3SAPS   H4X  355   3.604  -0.007  10.162  0.2893 -1.4026 -2.2257
    3SAPS   H4Y  356   3.767  -0.052  10.115 -0.3776  0.3119 -0.7434
    3SAPS   C35  357   3.703   0.167  10.081 -0.2721  0.4708  0.4321
    3SAPS   H5X  358   3.807   0.204  10.074 -0.5501  1.1368 -0.4522
    3SAPS   H5Y  359   3.640   0.229  10.149 -1.8616 -3.9581  3.4703
    3SAPS   C36  360   3.643   0.156   9.940 -0.4537 -0.2977 -0.0786
    3SAPS   H6X  361   3.541   0.114   9.950 -1.2699  0.4903 -3.6879
    3SAPS   H6Y  362   3.705   0.086   9.881  1.0173 -1.4193  2.6186
    3SAPS   C37  363   3.643   0.289   9.860  0.3320 -0.1534  0.0462
    3SAPS   H7X  364   3.732   0.354   9.847 -1.3581  1.8422 -2.5517
    3SAPS   H7Y  365   3.562   0.351   9.904 -0.4318  0.9915 -2.7578
    3SAPS   C38  366   3.583   0.259   9.723 -0.3054  0.1573  1.1716
    3SAPS   H8X  367   3.484   0.213   9.744 -0.4549 -1.9686 -3.1076
    3SAPS   H8Y  368   3.639   0.185   9.663 -0.1857 -0.4741  2.0513
    3SAPS   C39  369   3.549   0.380   9.630  0.3076  0.6365  0.8183
    3SAPS   H9X  370   3.641   0.441   9.617  0.1518  0.7058 -0.0552
    3SAPS   H9Y  371   3.477   0.446   9.681 -1.9961  0.4026 -1.8708
    3SAPS  C310  372   3.494   0.327   9.497 -0.1958 -0.3092 -0.8674
    3SAPS  H10X  373   3.399   0.276   9.525  0.0087 -1.2114 -1.7981
    3SAPS  H10Y  374   3.554   0.245   9.454  1.5688  1.7351 -2.4919
    3SAPS  C311  375   3.461   0.427   9.390  0.6813  0.5264  0.2406
    3SAPS  H11X  376   3.560   0.457   9.349  1.6905 -1.8246  0.8060
    3SAPS  H11Y  377   3.396   0.510   9.427 -1.5647 -2.6458  4.3277
    3SAPS  C312  378   3.403   0.353   9.280 -0.2728 -0.1714  1.0671
    3SAPS  H12X  379   3.295   0.339   9.297 -1.0112  0.6800 -2.1132
    3SAPS  H12Y  380   3.447   0.251   9.268 -1.1222 -0.5355  0.9652
    3SAPS  C313  381   3.411   0.423   9.144 -0.6954  0.4656  0.0986
    3SAPS  H13X  382   3.517   0.440   9.115 -0.6799 -0.4885 -0.4683
    3SAPS  H13Y  383   3.366   0.524   9.157  0.7863  1.1205  0.3130
    3SAPS  C314  384   3.335   0.341   9.037 -0.0380 -0.0529 -0.2736
    3SAPS  H14X  385   3.245   0.299   9.088  0.5058  0.7974  1.4859
    3SAPS  H14Y  386   3.397   0.254   9.006  0.9507  0.8198 -0.7871
    3SAPS  C315  387   3.319   0.409   8.910  0.5704  0.2293  0.0506
    3SAPS  H15X  388   3.413   0.443   8.862  0.5939 -0.9374 -0.7807
    3SAPS  H15Y  389   3.249   0.495   8.919  0.1889 -0.1355  0.7023
    3SAPS  C316  390   3.253   0.310   8.815  0.0285 -0.3332  0.8336
    3SAPS  H16X  391   3.151   0.276   8.842 -0.4335 -1.8581 -2.3652
    3SAPS  H16Y  392   3.320   0.225   8.792  3.1085  2.4878 -1.6568
    3SAPS  C317  393   3.238   0.383   8.677  0.2117  0.2311  0.9347
    3SAPS  H17X  394   3.232   0.301   8.603  0.7625 -0.8249  2.0231
    3SAPS  H17Y  395   3.328   0.440   8.647  2.6828 -3.9241 -0.2902
    3SAPS  C318  396   3.114   0.469   8.672  0.5640  0.2507 -0.6679
    3SAPS  H18X  397   3.101   0.549   8.748 -0.0401 -0.4733  0.0120
    3SAPS  H18Y  398   3.025   0.403   8.679 -0.1307  1.2649  0.4561
    3SAPS  H18Z  399   3.109   0.515   8.571  1.2458 -0.9386 -1.2582
    4SAPS     N  400   6.149   5.937  11.063  0.4579  0.0746 -0.2623
    4SAPS   HN1  401   6.082   5.970  11.137 -0.7302 -0.3446 -1.1273
    4SAPS   HN2  402   6.130   5.999  10.982 -1.1453  1.3676  1.0261
    4SAPS   HN3  403   6.120   5.839  11.044 -2.1684  0.7501 -0.1355
    4SAPS   C12  404   6.292   5.958  11.102  0.4518  0.3963  0.0236
    4SAPS  H12A  405   6.307   6.055  11.147  1.3102  1.1093 -1.6703
    4SAPS   C13  406   6.339   5.850  11.207 -0.2503  0.1408  0.8281
    4SAPS  O13A  407   6.276   5.748  11.242 -0.0250 -0.0766  0.4663
    4SAPS  O13B  408   6.446   5.877  11.259 -0.0986 -0.4118 -0.5591
    4SAPS   C11  409   6.380   5.937  10.979 -1.2664 -0.2115  0.2496
    4SAPS  H11A  410   6.351   5.837  10.942  1.9519 -1.5646  1.1162
    4SAPS  H11B  411   6.487   5.934  11.008 -1.8557  0.7458  2.8087
    4SAPS     P  412   6.309   6.001  10.735  0.0797 -0.1286 -0.3699
    4SAPS   O13  413   6.174   5.939  10.743 -0.5073  0.1158  0.2793
    4SAPS   O14  414   6.324   6.118  10.641 -0.8577 -0.1749 -0.2569
    4SAPS   O12  415   6.361   6.043  10.882 -0.2718  0.5600 -0.0631
    4SAPS   O11  416   6.407   5.878  10.694  0.8328  0.8974  1.0304
    4SAPS    C1  417   6.365   5.743  10.661 -0.1427  0.0779  1.1531
    4SAPS    HA  418   6.442   5.676  10.705  1.0774 -0.0560 -1.0211
    4SAPS    HB  419   6.273   5.710  10.714 -0.7232  0.8078  0.6162
    4SAPS    C2  420   6.366   5.722  10.504 -0.1107  0.1734 -0.0649
    4SAPS    HS  421   6.352   5.614  10.482  0.4531 -0.0378  0.5690
    4SAPS   O21  422   6.493   5.770  10.453 -0.1952 -0.3922  0.4251
    4SAPS   C21  423   6.603   5.709  10.475  0.4275 -0.7066  0.2875
    4SAPS   O22  424   6.603   5.602  10.534 -1.3225  0.2275 -0.0683
    4SAPS   C22  425   6.720   5.795  10.430 -0.7034  0.2775  0.2511
    4SAPS   H2R  426   6.683   5.898  10.453  2.3397  2.2094 -2.5984
    4SAPS   H2S  427   6.804   5.785  10.502 -0.6908  0.5570  0.2786
    4SAPS    C3  428   6.257   5.799  10.430 -0.4472 -0.2189  0.0232
    4SAPS    HX  429   6.261   5.907  10.458 -0.8535 -0.4342  0.9545
    4SAPS    HY  430   6.154   5.770  10.460  0.1090 -1.2027  1.0723
    4SAPS   O31  431   6.267   5.776  10.289  0.1823  0.1421 -0.2220
    4SAPS   C31  432   6.322   5.868  10.217 -0.4901  0.2733  0.8100
    4SAPS   O32  433   6.375   5.968  10.259  0.2106 -0.4239  0.3365
    4SAPS   C32  434   6.306   5.834  10.068 -0.0228  0.2636  0.0899
    4SAPS   H2X  435   6.208   5.786  10.049  0.5311 -0.4499 -1.0985
    4SAPS   H2Y  436   6.382   5.759  10.038 -2.1525 -2.2417  0.6258
    4SAPS   C23  437   6.770   5.786  10.279 -0.6040 -0.1293 -0.2831
    4SAPS   H3R  438   6.805   5.682  10.264  1.3717  0.2526  1.3107
    4SAPS   H3S  439   6.864   5.844  10.287 -0.2401 -0.9081  2.0071
    4SAPS   C24  440   6.671   5.838  10.174  1.1008  0.5117 -0.3906
    4SAPS   H4R  441   6.642   5.941  10.203 -2.9479 -0.9539  1.5862
    4SAPS   H4S  442   6.584   5.769  10.177  1.2336  0.3004 -1.2300
    4SAPS   C25  443   6.734   5.824  10.039 -0.6168 -0.2178  0.8461
    4SAPS   H5R  444   6.722   5.731   9.981 -2.2468  1.6304 -2.0428
    4SAPS   C26  445   6.798   5.927   9.984 -0.8147  0.1169  0.4859
    4SAPS   H6R  446   6.831   5.921   9.880 -1.9179 -1.0637  0.1713
    4SAPS   C27  447   6.822   6.060  10.055 -0.2243 -0.1518 -0.7019
    4SAPS   H7R  448   6.868   6.045  10.155 -0.1020  2.0145 -0.3897
    4SAPS   H7S  449   6.722   6.107  10.070 -1.1283 -1.3586 -2.5629
    4SAPS   C28  450   6.920   6.147   9.978  0.2981 -0.4091 -0.7215
    4SAPS   H8R  451   7.013   6.099   9.946  0.2192  0.3508 -2.1473
    4SAPS   C29  452   6.912   6.278   9.958  0.2263  0.0383 -0.3651
    4SAPS   H9R  453   7.001   6.325   9.915  0.2572  2.0595  1.7016
    4SAPS  C210  454   6.802   6.377  10.003 -0.5420 -0.3011  0.0123
    4SAPS  H10R  455   6.838   6.420  10.099 -0.5842  1.0746 -0.5641
    4SAPS  H10S  456   6.704   6.332  10.030 -0.3416  0.4876  2.2548
    4SAPS  C211  457   6.776   6.480   9.889  0.3264  0.0430 -0.7246
    4SAPS  H11R  458   6.712   6.439   9.809 -1.4782  1.1962  0.0660
    4SAPS  C212  459   6.825   6.604   9.888 -0.5808  0.1472 -0.8725
    4SAPS  H12R  460   6.806   6.665   9.798  1.9630 -0.4849 -1.9230
    4SAPS  C213  461   6.910   6.668   9.988  0.3904  0.0835  0.3328
    4SAPS  H13R  462   7.001   6.715   9.946 -0.8839  1.8554 -0.5475
    4SAPS  H13S  463   6.947   6.591  10.060 -2.2565 -0.3098  1.4010
    4SAPS  C214  464   6.832   6.779  10.060  0.4759  0.3226 -0.4085
    4SAPS  H14R  465   6.752   6.827  10.003 -0.4545  1.2757  1.5797
    4SAPS  C215  466   6.847   6.814  10.188  0.1986  0.6305 -0.0466
    4SAPS  H15R  467   6.786   6.895  10.230  1.2775  1.2880  0.2771
    4SAPS  C216  468   6.960   6.761  10.275  0.2276 -0.4289 -0.9918
    4SAPS  H16R  469   7.016   6.672  10.238 -1.1291 -1.3454 -0.9253
    4SAPS  H16S  470   6.921   6.739  10.376  0.9907  0.2685 -0.5398
    4SAPS  C217  471   7.059   6.876  10.297 -0.1944  0.2039  0.2618
    4SAPS  H17R  472   7.137   6.850  10.372 -0.1625  0.0864  0.1874
    4SAPS  H17S  473   7.012   6.968  10.338  1.3239  0.7338  0.8730
    4SAPS  C218  474   7.136   6.929  10.170 -0.4340 -0.0215 -0.9221
    4SAPS  H18R  475   7.057   6.966  10.100 -1.6710 -2.8838 -1.1786
    4SAPS  H18S  476   7.176   6.841  10.115 -0.6909 -0.6735 -0.0753
    4SAPS  C219  477   7.254   7.012  10.193  0.0372 -0.3650 -0.9971
    4SAPS  H19R  478   7.338   6.967  10.250  0.6741  2.0153  0.0728
    4SAPS  H19S  479   7.234   7.099  10.259 -0.9750  1.1284 -3.1821
    4SAPS  C220  480   7.316   7.072  10.064  0.7577 -0.6291 -0.7851
    4SAPS  H20R  481   7.403   7.137  10.088 -0.6071  0.6834  0.8359
    4SAPS  H20S  482   7.244   7.136  10.009  0.2814  0.4183  0.9787
    4SAPS  H20T  483   7.349   6.990   9.996  1.4954 -0.9156 -0.0918
    4SAPS   C33  484   6.307   5.954   9.972 -0.1583  0.2055  0.1719
    4SAPS   H3X  485   6.245   6.039  10.009 -1.9731  0.4537 -3.0593
    4SAPS   H3Y  486   6.253   5.919   9.881  1.1336 -0.3108 -0.4168
    4SAPS   C34  487   6.440   6.014   9.927 -0.2717  0.5596  0.2002
    4SAPS   H4X  488   6.518   5.943   9.892 -1.3196  0.6773 -2.6811
    4SAPS   H4Y  489   6.482   6.073  10.010 -1.4625 -1.4461  2.3435
    4SAPS   C35  490   6.418   6.120   9.821  0.3937  0.4050  0.4372
    4SAPS   H5X  491   6.338   6.188   9.858 -0.9637 -0.7940 -0.1804
    4SAPS   H5Y  492   6.390   6.069   9.726  0.3975  2.3013 -0.6325
    4SAPS   C36  493   6.541   6.205   9.776  0.3958 -0.7396  0.4464
    4SAPS   H6X  494   6.626   6.141   9.742 -0.1637 -0.6495 -1.2437
    4SAPS   H6Y  495   6.574   6.272   9.858  0.6332  0.6511 -0.7318
    4SAPS   C37  496   6.504   6.300   9.655 -0.0737 -0.5136  0.3919
    4SAPS   H7X  497   6.603   6.348   9.641 -0.3202 -0.3410 -0.8383
    4SAPS   H7Y  498   6.442   6.387   9.685  1.0644  0.8835 -1.1483
    4SAPS   C38  499   6.423   6.232   9.546 -0.1543  0.4210  0.5236
    4SAPS   H8X  500   6.323   6.219   9.592 -0.4886  3.5248  0.9278
    4SAPS   H8Y  501   6.473   6.137   9.519 -1.1589 -0.6795  2.3922
    4SAPS   C39  502   6.408   6.324   9.423  0.2107  0.0908 -0.3010
    4SAPS   H9X  503   6.505   6.351   9.377 -0.2299 -1.5379 -2.3326
    4SAPS   H9Y  504   6.359   6.419   9.454 -1.3790 -1.1485  1.1851
    4SAPS  C310  505   6.319   6.267   9.307 -0.3171 -0.6863 -0.2175
    4SAPS  H10X  506   6.211   6.260   9.332 -0.7771 -1.0743 -2.1448
    4SAPS  H10Y  507   6.359   6.163   9.309  2.1026  0.1913 -0.0752
    4SAPS  C311  508   6.357   6.330   9.170 -0.1828 -0.0327 -0.0028
    4SAPS  H11X  509   6.319   6.261   9.092  1.0597 -1.6499  0.7641
    4SAPS  H11Y  510   6.468   6.335   9.179 -0.3419  0.4819  2.1408
    4SAPS  C312  511   6.310   6.474   9.149 -0.4532  0.0781 -0.1569
    4SAPS  H12X  512   6.374   6.542   9.209  1.1175 -0.6312 -0.9534
    4SAPS  H12Y  513   6.210   6.483   9.195  0.1457  0.2241  1.1723
    4SAPS  C313  514   6.317   6.514   8.998  0.4059  0.4422 -0.3906
    4SAPS  H13X  515   6.280   6.618   8.990  0.0220  0.4516  1.0846
    4SAPS  H13Y  516   6.258   6.452   8.927  0.3345  0.8091 -0.6530
    4SAPS  C314  517   6.462   6.508   8.928  0.8951 -0.4868  0.1737
    4SAPS  H14X  518   6.535   6.458   8.995  2.8306 -0.3719 -1.7140
    4SAPS  H14Y  519   6.502   6.612   8.919  0.8736 -0.6394 -3.0164
    4SAPS  C315  520   6.453   6.448   8.786 -0.6930  0.0498 -0.3947
    4SAPS  H15X  521   6.370   6.374   8.780  0.0868 -0.7684 -1.3201
    4SAPS  H15Y  522   6.547   6.389   8.785 -1.6967 -1.6250  0.2616
    4SAPS  C316  523   6.454   6.548   8.674 -0.4443 -0.0567  0.2135
    4SAPS  H16X  524   6.545   6.611   8.677  0.0558 -0.7976  1.8651
    4SAPS  H16Y  525   6.376   6.626   8.686 -1.7077 -1.2273 -0.1001
    4SAPS  C317  526   6.449   6.483   8.535 -0.6401 -0.3951 -0.2746
    4SAPS  H17X  527   6.512   6.393   8.542 -2.3200 -1.5475  0.8968
    4SAPS  H17Y  528   6.501   6.549   8.462 -1.5207 -0.0007 -0.5622
    4SAPS  C318  529   6.302   6.446   8.496  0.1299 -0.5467  0.1374
    4SAPS  H18X  530   6.238   6.537   8.495  0.9137  0.0193  0.6674
    4SAPS  H18Y  531   6.276   6.381   8.582  0.8876 -1.3275 -0.2121
    4SAPS  H18Z  532   6.291   6.389   8.401  2.3870 -1.9593  0.6388
    5SAPS     N  533   1.410   5.895  11.142  0.4033  0.3893 -0.5872
    5SAPS   HN1  534   1.392   5.996  11.154 -0.7681  0.4839 -2.7101
    5SAPS   HN2  535   1.487   5.884  11.073  1.4407  2.6041  0.1383
    5SAPS   HN3  536   1.315   5.856  11.127 -0.5727  2.6853 -0.7062
    5SAPS   C12  537   1.460   5.833  11.271  0.0959 -0.1893  0.7076
    5SAPS  H12A  538   1.547   5.893  11.293  0.6082 -0.3471 -0.8329
    5SAPS   C13  539   1.363   5.822  11.391  0.2923 -0.4284  0.6400
    5SAPS  O13A  540   1.240   5.854  11.364 -0.1681 -0.3981 -0.2266
    5SAPS  O13B  541   1.398   5.771  11.502  0.2716 -0.0840  0.5307
    5SAPS   C11  542   1.490   5.687  11.233 -0.2809 -0.0500 -0.7125
    5SAPS  H11A  543   1.398   5.641  11.192  0.2838 -2.0990  0.2325
    5SAPS  H11B  544   1.526   5.632  11.322 -0.1140  0.9777 -0.1180
    5SAPS     P  545   1.636   5.542  11.076 -0.4546  0.0831  0.3483
    5SAPS   O13  546   1.760   5.567  11.009  0.5546 -0.1761  1.0384
    5SAPS   O14  547   1.634   5.439  11.180  0.3896 -0.4595  0.1848
    5SAPS   O12  548   1.588   5.679  11.134 -0.5433  0.4859  0.2627
    5SAPS   O11  549   1.517   5.502  10.971 -0.2924 -0.3142  0.4636
    5SAPS    C1  550   1.468   5.613  10.890 -0.5941  0.2367 -0.6781
    5SAPS    HA  551   1.387   5.668  10.941  0.6652 -0.3414  2.0877
    5SAPS    HB  552   1.546   5.685  10.856  1.6015 -1.9030 -0.4724
    5SAPS    C2  553   1.422   5.547  10.753  0.2190 -0.1888  1.4466
    5SAPS    HS  554   1.409   5.438  10.769 -0.6767 -0.4376 -0.6813
    5SAPS   O21  555   1.521   5.572  10.654 -0.0081  0.0244  0.0462
    5SAPS   C21  556   1.561   5.465  10.581  0.3110 -0.2174  0.6932
    5SAPS   O22  557   1.503   5.356  10.575  0.0694  0.1231  0.4576
    5SAPS   C22  558   1.676   5.502  10.498  0.4501 -0.2905 -0.1374
    5SAPS   H2R  559   1.668   5.610  10.475 -2.2328 -0.5111 -0.6211
    5SAPS   H2S  560   1.768   5.495  10.559  3.3516  1.6123 -3.9080
    5SAPS    C3  561   1.287   5.608  10.707 -0.1857  0.5198  1.0227
    5SAPS    HX  562   1.297   5.717  10.693  0.2415  0.0988 -3.2595
    5SAPS    HY  563   1.211   5.596  10.787 -0.1673  2.9551  1.4808
    5SAPS   O31  564   1.251   5.564  10.573  0.8863 -0.3031  0.2936
    5SAPS   C31  565   1.179   5.453  10.581 -0.0474 -0.0058  0.6859
    5SAPS   O32  566   1.162   5.388  10.685  0.3474  0.2523  0.1481
    5SAPS   C32  567   1.124   5.409  10.447  0.0216 -0.2781 -0.1919
    5SAPS   H2X  568   1.048   5.476  10.401 -1.7934 -4.0573 -3.2298
    5SAPS   H2Y  569   1.068   5.315  10.462 -3.4236  1.5662 -0.3889
    5SAPS   C23  570   1.689   5.433  10.352  0.2634 -0.3039 -1.0004
    5SAPS   H3R  571   1.656   5.328  10.370 -2.7027  0.6935 -0.0313
    5SAPS   H3S  572   1.788   5.449  10.304  1.2958 -1.1571  0.7289
    5SAPS   C24  573   1.585   5.489  10.259  0.4915  0.7986  0.6009
    5SAPS   H4R  574   1.487   5.482  10.312  0.4291  3.6439  1.0491
    5SAPS   H4S  575   1.593   5.420  10.173  0.1320  2.0328 -0.4617
    5SAPS   C25  576   1.593   5.633  10.213  0.7643  0.0629 -0.0210
    5SAPS   H5R  577   1.609   5.710  10.290  0.8918  0.7143 -0.6872
    5SAPS   C26  578   1.574   5.679  10.085 -0.7800 -0.3248 -0.6078
    5SAPS   H6R  579   1.583   5.787  10.067 -0.2164 -0.7826 -3.7076
    5SAPS   C27  580   1.549   5.605   9.963  0.3285 -1.0456 -0.0907
    5SAPS   H7R  581   1.440   5.618   9.945  0.6735  1.2911 -0.8307
    5SAPS   H7S  582   1.567   5.496   9.975  3.7953 -0.9161 -2.7245
    5SAPS   C28  583   1.606   5.660   9.832 -0.1187 -0.6662 -0.0904
    5SAPS   H8R  584   1.672   5.748   9.831 -1.3202  0.3197 -2.6796
    5SAPS   C29  585   1.578   5.604   9.709  0.1996 -0.0972 -0.0801
    5SAPS   H9R  586   1.604   5.652   9.614 -1.5172  0.2930 -0.3960
    5SAPS  C210  587   1.483   5.489   9.689 -0.5590 -0.5549  0.3384
    5SAPS  H10R  588   1.401   5.522   9.621 -0.2094 -0.0895  0.1390
    5SAPS  H10S  589   1.439   5.445   9.781  1.6376 -3.8806 -0.0304
    5SAPS  C211  590   1.553   5.379   9.625  0.6820  0.4935  0.3384
    5SAPS  H11R  591   1.585   5.304   9.700 -0.6940  0.8841  1.3410
    5SAPS  C212  592   1.583   5.344   9.495  0.1502 -0.0083  0.1758
    5SAPS  H12R  593   1.631   5.250   9.465 -2.1926 -0.5702 -2.2758
    5SAPS  C213  594   1.544   5.420   9.374 -1.1121 -0.6211  0.9849
    5SAPS  H13R  595   1.633   5.461   9.321 -2.7356  1.4168 -0.3201
    5SAPS  H13S  596   1.482   5.506   9.405 -1.3300 -0.4288  0.0615
    5SAPS  C214  597   1.470   5.342   9.278 -0.9501 -0.3157  0.9992
    5SAPS  H14R  598   1.440   5.244   9.318  0.6360 -0.2675  2.4398
    5SAPS  C215  599   1.429   5.363   9.150 -0.3900 -0.6840 -0.5255
    5SAPS  H15R  600   1.352   5.297   9.109 -3.0648  1.1567  1.2584
    5SAPS  C216  601   1.453   5.494   9.073 -0.2445 -0.0946  0.8251
    5SAPS  H16R  602   1.499   5.570   9.139 -0.2182  1.6648 -1.1435
    5SAPS  H16S  603   1.359   5.531   9.026  1.0598 -0.4727 -2.3317
    5SAPS  C217  604   1.549   5.470   8.953 -0.7127  0.1844 -0.3411
    5SAPS  H17R  605   1.557   5.565   8.895  1.1876  0.2523 -0.0208
    5SAPS  H17S  606   1.519   5.398   8.874 -1.3001  2.1581 -2.0407
    5SAPS  C218  607   1.696   5.433   8.986  0.0827  0.3915 -0.3236
    5SAPS  H18R  608   1.744   5.516   9.042  1.9052 -0.4634 -0.5430
    5SAPS  H18S  609   1.674   5.358   9.065 -0.0623  0.4790 -0.2779
    5SAPS  C219  610   1.782   5.386   8.865  0.2199  0.7382  0.1309
    5SAPS  H19R  611   1.769   5.475   8.799 -1.7286  0.6203  0.2992
    5SAPS  H19S  612   1.723   5.305   8.816  0.2845  1.8343 -1.8866
    5SAPS  C220  613   1.924   5.345   8.902  0.4136  0.0346  1.3854
    5SAPS  H20R  614   1.916   5.245   8.948 -3.4664 -0.5520 -0.1732
    5SAPS  H20S  615   1.990   5.424   8.944 -0.3484  0.0579  2.5580
    5SAPS  H20T  616   1.974   5.322   8.805 -1.9434 -0.2096  0.1628
    5SAPS   C33  617   1.230   5.395  10.337  0.1976 -0.4151  0.6478
    5SAPS   H3X  618   1.318   5.336  10.371  0.2965  0.3301  1.7261
    5SAPS   H3Y  619   1.266   5.498  10.318 -0.4208  0.0026  1.6673
    5SAPS   C34  620   1.161   5.343  10.216 -0.5124  0.0226  0.2214
    5SAPS   H4X  621   1.074   5.402  10.182  0.2220  0.8295 -0.3214
    5SAPS   H4Y  622   1.128   5.239  10.235 -1.3492 -0.1369 -1.9221
    5SAPS   C35  623   1.260   5.344  10.096  0.6928 -0.4468  0.0681
    5SAPS   H5X  624   1.351   5.300  10.143  0.3934 -0.5113  0.5835
    5SAPS   H5Y  625   1.270   5.449  10.062  1.6237 -1.8475 -4.7604
    5SAPS   C36  626   1.228   5.268   9.972  0.8577 -0.2374 -0.0816
    5SAPS   H6X  627   1.183   5.169   9.997 -1.0097  0.0380 -2.0516
    5SAPS   H6Y  628   1.317   5.253   9.908  0.3713  1.6232 -1.2690
    5SAPS   C37  629   1.115   5.333   9.888 -0.1631 -0.2139 -0.0816
    5SAPS   H7X  630   1.153   5.435   9.866  0.7026 -0.8154 -1.5102
    5SAPS   H7Y  631   1.028   5.344   9.956  0.9268  0.4615  1.2505
    5SAPS   C38  632   1.078   5.253   9.761  0.2062 -0.6270 -0.4623
    5SAPS   H8X  633   0.970   5.264   9.737  0.3977 -0.9150 -1.4877
    5SAPS   H8Y  634   1.059   5.145   9.779  0.0505 -0.2981  1.5556
    5SAPS   C39  635   1.164   5.284   9.644  0.1596 -0.1430  0.6405
    5SAPS   H9X  636   1.268   5.269   9.680  0.4132 -0.5012 -0.2122
    5SAPS   H9Y  637   1.158   5.393   9.629 -0.1170  0.4156  3.9883
    5SAPS  C310  638   1.143   5.204   9.513 -0.5597  0.8509 -0.8640
    5SAPS  H10X  639   1.182   5.101   9.532  2.9512  1.5782 -3.2613
    5SAPS  H10Y  640   1.214   5.228   9.431 -1.8839 -0.4679 -2.4661
    5SAPS  C311  641   1.001   5.202   9.472 -0.4065  0.0836  0.5378
    5SAPS  H11X  642   0.952   5.302   9.475  0.8852  0.9927 -3.0849
    5SAPS  H11Y  643   0.943   5.147   9.548 -0.8473 -1.0949 -0.6149
    5SAPS  C312  644   0.984   5.129   9.341 -0.5029 -0.1282 -0.5321
    5SAPS  H12X  645   0.895   5.063   9.348 -0.6560 -0.0592 -1.7076
    5SAPS  H12Y  646   1.079   5.073   9.328 -0.7992 -1.0156  0.8738
    5SAPS  C313  647   0.964   5.234   9.227  0.0084  0.4751 -1.4240
    5SAPS  H13X  648   1.050   5.301   9.203 -1.2262  2.0723 -1.5597
    5SAPS  H13Y  649   0.886   5.300   9.270 -1.0794 -1.1216 -0.8675
    5SAPS  C314  650   0.917   5.178   9.094  0.3968  0.2528  0.6084
    5SAPS  H14X  651   0.848   5.093   9.110 -0.7673  0.9783 -0.3960
    5SAPS  H14Y  652   0.999   5.137   9.031  0.4481  0.1615  0.7339
    5SAPS  C315  653   0.842   5.277   8.997  0.3037  0.4354 -0.1219
    5SAPS  H15X  654   0.919   5.357   8.984 -0.2681  0.8838 -0.8211
    5SAPS  H15Y  655   0.754   5.321   9.047  0.0626  1.5060 -1.4397
    5SAPS  C316  656   0.810   5.208   8.863  0.3033 -0.1641  1.0079
    5SAPS  H16X  657   0.749   5.117   8.879 -0.5604 -0.4285 -2.8359
    5SAPS  H16Y  658   0.900   5.174   8.807 -0.3854 -2.0535  0.9776
    5SAPS  C317  659   0.726   5.304   8.776  0.2587  0.1889  0.3946
    5SAPS  H17X  660   0.715   5.258   8.676  3.3708 -0.3027  0.1798
    5SAPS  H17Y  661   0.770   5.405   8.761 -2.9880  1.6778  0.0638
    5SAPS  C318  662   0.586   5.329   8.825  0.2995 -0.3355  0.9755
    5SAPS  H18X  663   0.590   5.388   8.919  1.3295  1.3424 -0.0470
    5SAPS  H18Y  664   0.539   5.232   8.850  1.1871 -0.5829  1.7232
    5SAPS  H18Z  665   0.533   5.401   8.758  2.6582  0.8005  0.2262
    6SAPS     N  666   1.530   3.336  10.679 -0.0746 -0.2216 -0.0990
    6SAPS   HN1  667   1.500   3.433  10.704  1.7634  0.5747 -0.7927
    6SAPS   HN2  668   1.594   3.346  10.597  1.4669 -1.2134  0.9349
    6SAPS   HN3  669   1.441   3.288  10.655 -1.0616  2.4566 -2.4308
    6SAPS   C12  670   1.590   3.257  10.796  0.0236  0.2223 -0.2025
    6SAPS  H12A  671   1.625   3.162  10.758  1.6421  1.1113 -1.0619
    6SAPS   C13  672   1.722   3.321  10.843  0.3842 -0.5480  0.3951
    6SAPS  O13A  673   1.757   3.427  10.784  0.4814 -0.5298 -0.3038
    6SAPS  O13B  674   1.785   3.276  10.946 -0.0279 -0.3285 -0.2728
    6SAPS   C11  675   1.480   3.247  10.909 -0.1543  0.2160 -0.0313
    6SAPS  H11A  676   1.480   3.348  10.955  1.9088  0.7829 -1.1340
    6SAPS  H11B  677   1.523   3.178  10.985  1.1295 -1.0238 -1.7828
    6SAPS     P  678   1.214   3.224  10.927 -0.0883  0.0754 -0.3234
    6SAPS   O13  679   1.227   3.191  11.073 -0.1719  0.6876 -0.7693
    6SAPS   O14  680   1.163   3.358  10.897 -0.0447 -0.6507 -0.0146
    6SAPS   O12  681   1.356   3.199  10.858  0.8382 -0.3386 -0.5657
    6SAPS   O11  682   1.120   3.113  10.854  0.3250  0.4120  0.1726
    6SAPS    C1  683   1.155   3.055  10.728  0.0435 -0.0958  0.3590
    6SAPS    HA  684   1.265   3.040  10.725  0.0175 -0.1996 -0.2805
    6SAPS    HB  685   1.105   2.959  10.705 -0.4981  0.6757 -1.9525
    6SAPS    C2  686   1.104   3.145  10.606 -0.7265  0.0683 -0.2705
    6SAPS    HS  687   1.167   3.235  10.584 -2.8548  1.7725  0.2359
    6SAPS   O21  688   0.974   3.188  10.630 -0.3266 -0.0502 -0.3597
    6SAPS   C21  689   0.953   3.319  10.640  0.6010  0.6153 -0.1208
    6SAPS   O22  690   1.035   3.406  10.622 -0.9104  0.1484  0.6601
    6SAPS   C22  691   0.807   3.333  10.674  0.5414 -0.5621 -0.3538
    6SAPS   H2R  692   0.762   3.232  10.680 -1.1599  0.1694 -0.2654
    6SAPS   H2S  693   0.807   3.384  10.773  1.3399  1.0629 -1.1488
    6SAPS    C3  694   1.099   3.061  10.480 -0.2816  0.2338 -0.2168
    6SAPS    HX  695   1.044   2.965  10.488  0.3027 -0.1572 -0.7871
    6SAPS    HY  696   1.201   3.041  10.441 -0.1366 -0.5650  0.5339
    6SAPS   O31  697   1.028   3.141  10.380  0.4667  0.4895 -0.1991
    6SAPS   C31  698   1.081   3.190  10.273 -1.3707 -0.0724  0.0188
    6SAPS   O32  699   1.200   3.205  10.256  0.3826  0.1089  0.1164
    6SAPS   C32  700   0.975   3.235  10.167 -0.9953 -0.2287 -0.6156
    6SAPS   H2X  701   0.899   3.296  10.220  1.1617  2.9732 -0.9014
    6SAPS   H2Y  702   0.927   3.143  10.129 -3.2150  0.2865  0.7723
    6SAPS   C23  703   0.729   3.436  10.584  0.2597  0.3501 -0.2585
    6SAPS   H3R  704   0.792   3.528  10.579  2.2376 -0.9135  0.0565
    6SAPS   H3S  705   0.628   3.458  10.623 -0.5474 -2.0492 -0.8263
    6SAPS   C24  706   0.728   3.389  10.440 -0.1689  0.6494 -0.6555
    6SAPS   H4R  707   0.831   3.388  10.399 -0.4075  1.1051 -1.2849
    6SAPS   H4S  708   0.684   3.478  10.390  0.3592  1.6822  0.6436
    6SAPS   C25  709   0.637   3.273  10.414  0.1019  0.0074  0.1182
    6SAPS   H5R  710   0.658   3.181  10.470  1.2868  0.4639  0.4491
    6SAPS   C26  711   0.532   3.267  10.331 -0.2081  0.3617 -0.2974
    6SAPS   H6R  712   0.489   3.166  10.322  1.0079 -0.1123 -1.0659
    6SAPS   C27  713   0.473   3.375  10.245  0.2636 -0.0366 -0.4211
    6SAPS   H7R  714   0.498   3.477  10.280 -0.1659 -0.0494 -0.0806
    6SAPS   H7S  715   0.363   3.376  10.257  0.3159  0.4076  0.0334
    6SAPS   C28  716   0.508   3.355  10.100 -0.6235 -0.3574  0.1925
    6SAPS   H8R  717   0.615   3.333  10.087 -0.0964 -0.3847  3.6419
    6SAPS   C29  718   0.433   3.368   9.992 -0.1132 -0.0553 -0.1594
    6SAPS   H9R  719   0.471   3.330   9.896  0.8950  0.0102  0.1942
    6SAPS  C210  720   0.294   3.410   9.971  0.5731  0.1843  0.2518
    6SAPS  H10R  721   0.289   3.464   9.874  1.8118 -0.0213  0.0587
    6SAPS  H10S  722   0.248   3.485  10.038 -1.0736  0.2705 -0.8936
    6SAPS  C211  723   0.194   3.302   9.986  0.3395  0.5429 -0.5065
    6SAPS  H11R  724   0.180   3.257  10.085 -0.6898  1.2559 -0.3097
    6SAPS  C212  725   0.128   3.253   9.880 -0.2727  0.6422 -0.7389
    6SAPS  H12R  726   0.054   3.179   9.915  0.9366  0.1870  0.9601
    6SAPS  C213  727   0.126   3.280   9.732  0.6465  0.3345 -0.3622
    6SAPS  H13R  728   0.215   3.335   9.695 -0.0056 -0.5168 -3.4204
    6SAPS  H13S  729   0.041   3.342   9.697 -0.5613 -0.6914  0.6357
    6SAPS  C214  730   0.099   3.150   9.657 -0.3349 -0.4136 -0.6188
    6SAPS  H14R  731   0.005   3.101   9.689 -1.2308  0.8233 -1.2531
    6SAPS  C215  732   0.181   3.100   9.558  0.4115  0.5709 -0.4129
    6SAPS  H15R  733   0.151   3.016   9.494 -0.6680 -0.8097  1.7681
    6SAPS  C216  734   0.306   3.164   9.511 -0.4503  0.1742 -0.3020
    6SAPS  H16R  735   0.383   3.084   9.520 -1.1240 -0.3464  1.2556
    6SAPS  H16S  736   0.336   3.251   9.572 -3.7045 -0.6619  2.8736
    6SAPS  C217  737   0.287   3.205   9.359 -0.2625 -0.1067  0.0733
    6SAPS  H17R  738   0.371   3.274   9.336  1.7040 -2.3741  0.1712
    6SAPS  H17S  739   0.188   3.256   9.353 -0.9134 -1.1230  1.5242
    6SAPS  C218  740   0.299   3.084   9.267 -0.5862  0.7932  0.4840
    6SAPS  H18R  741   0.218   3.011   9.287  1.3944 -2.6314 -2.8832
    6SAPS  H18S  742   0.387   3.022   9.292  0.9769  2.2490 -1.0991
    6SAPS  C219  743   0.305   3.122   9.116  0.2308 -0.3180  0.5546
    6SAPS  H19R  744   0.378   3.202   9.090  0.7654 -0.8988  0.2168
    6SAPS  H19S  745   0.203   3.161   9.096 -0.7216 -2.1541  1.5299
    6SAPS  C220  746   0.323   3.002   9.026  0.7126  0.4279  0.0681
    6SAPS  H20R  747   0.239   2.931   9.043 -0.9248  1.4938 -2.8833
    6SAPS  H20S  748   0.417   2.948   9.051 -0.3800 -0.0022  4.0889
    6SAPS  H20T  749   0.323   3.020   8.917 -0.8208  0.8810  0.1235
    6SAPS   C33  750   1.033   3.321  10.051 -0.0923 -0.1899  0.3383
    6SAPS   H3X  751   1.109   3.276   9.983 -0.4438  0.8398 -0.7597
    6SAPS   H3Y  752   1.080   3.407  10.104 -1.1244  0.2943  0.4897
    6SAPS   C34  753   0.913   3.362   9.965 -0.5799 -0.4250  0.5629
    6SAPS   H4X  754   0.958   3.440   9.901  0.1792 -0.3068  1.2314
    6SAPS   H4Y  755   0.836   3.413  10.028 -0.0998  1.7456 -0.5486
    6SAPS   C35  756   0.852   3.244   9.885  0.2802 -1.0113 -1.0103
    6SAPS   H5X  757   0.799   3.172   9.951  1.2359  0.0563  1.0086
    6SAPS   H5Y  758   0.933   3.196   9.826  0.9913 -0.5043 -0.4613
    6SAPS   C36  759   0.765   3.308   9.774 -0.4319  0.3897 -0.0476
    6SAPS   H6X  760   0.818   3.395   9.731 -1.2650  0.7628 -0.3460
    6SAPS   H6Y  761   0.671   3.355   9.810 -1.3615  0.2616 -2.1649
    6SAPS   C37  762   0.738   3.207   9.648  0.6889 -0.2595 -0.0994
    6SAPS   H7X  763   0.628   3.188   9.642  1.1987 -3.4381 -0.8661
    6SAPS   H7Y  764   0.783   3.107   9.664  1.1220 -0.5825 -2.8300
    6SAPS   C38  765   0.783   3.259   9.513 -0.5203  0.5740 -0.9571
    6SAPS   H8X  766   0.894   3.259   9.506 -0.5107  0.9839 -0.8226
    6SAPS   H8Y  767   0.743   3.363   9.502 -1.5008  0.6913  2.5662
    6SAPS   C39  768   0.736   3.170   9.397 -0.0085  0.3408  0.3460
    6SAPS   H9X  769   0.630   3.142   9.412  0.0230  0.7404  1.3909
    6SAPS   H9Y  770   0.799   3.079   9.414  0.8815  1.1845  1.7319
    6SAPS  C310  771   0.765   3.225   9.264 -0.5308  0.3965  0.0018
    6SAPS  H10X  772   0.875   3.233   9.248 -0.3552  0.6321  1.2856
    6SAPS  H10Y  773   0.724   3.324   9.238 -0.3594 -0.1712 -2.7689
    6SAPS  C311  774   0.707   3.129   9.160  0.2474 -0.5120 -0.1274
    6SAPS  H11X  775   0.596   3.125   9.165  0.2562  0.1118  0.8406
    6SAPS  H11Y  776   0.743   3.026   9.179  0.8869 -0.1739  0.5602
    6SAPS  C312  777   0.746   3.168   9.026 -0.3260  0.0717  0.6933
    6SAPS  H12X  778   0.857   3.163   9.020 -0.3671  0.0457 -0.2057
    6SAPS  H12Y  779   0.720   3.275   9.009  1.1317  0.4047  0.4505
    6SAPS  C313  780   0.694   3.074   8.918 -0.2524 -0.5477  0.1105
    6SAPS  H13X  781   0.585   3.086   8.897  0.0933  1.3600 -0.8054
    6SAPS  H13Y  782   0.723   2.968   8.936  2.2416  0.1940  0.8329
    6SAPS  C314  783   0.761   3.109   8.783  0.1723 -0.6773  0.2324
    6SAPS  H14X  784   0.869   3.118   8.807  0.4582 -1.3059 -0.7832
    6SAPS  H14Y  785   0.716   3.207   8.755  0.9586 -0.4785 -0.3671
    6SAPS  C315  786   0.742   2.996   8.680  1.0856 -0.5559  0.4460
    6SAPS  H15X  787   0.642   2.952   8.698  0.6311  0.5721  0.7619
    6SAPS  H15Y  788   0.827   2.924   8.680  0.6650 -1.0714 -0.7758
    6SAPS  C316  789   0.733   3.056   8.535 -0.1401  0.3436  0.4148
    6SAPS  H16X  790   0.825   3.113   8.512  0.1184  0.2102  1.0847
    6SAPS  H16Y  791   0.641   3.118   8.525  0.0574  0.7592  1.1233
    6SAPS  C317  792   0.714   2.943   8.424 -1.2757 -0.5328 -0.4356
    6SAPS  H17X  793   0.626   2.878   8.444 -1.6017 -0.1623 -0.6438
    6SAPS  H17Y  794   0.804   2.878   8.434 -0.9450 -0.2419 -1.4234
    6SAPS  C318  795   0.723   3.007   8.291 -0.2159  0.0909 -0.8365
    6SAPS  H18X  796   0.713   2.927   8.214 -1.0483 -0.5636 -0.0715
    6SAPS  H18Y  797   0.814   3.070   8.283  0.6258 -0.8968  0.4887
    6SAPS  H18Z  798   0.645   3.084   8.271  1.7310  1.8578 -2.0360
    7SAPS     N  799   5.961   5.800  10.667  0.5530 -0.4753  0.3366
    7SAPS   HN1  800   6.036   5.860  10.706  0.8345 -0.0560 -0.8356
    7SAPS   HN2  801   6.009   5.712  10.638  1.4026  0.6993 -2.0502
    7SAPS   HN3  802   5.909   5.846  10.589  3.1000  0.6856 -0.7682
    7SAPS   C12  803   5.868   5.748  10.769  0.1432  0.2390 -0.0399
    7SAPS  H12A  804   5.808   5.668  10.729 -2.6273  1.4345  1.4585
    7SAPS   C13  805   5.926   5.699  10.904  0.5508 -1.0055  0.0186
    7SAPS  O13A  806   6.046   5.718  10.935 -0.4386  0.1310 -0.4741
    7SAPS  O13B  807   5.839   5.655  10.990  0.1835 -0.2155  0.0954
    7SAPS   C11  808   5.758   5.854  10.789  0.7176 -0.2347 -0.2792
    7SAPS  H11A  809   5.793   5.923  10.869 -1.0194  0.5350 -0.1261
    7SAPS  H11B  810   5.674   5.802  10.839  0.0882 -0.3836 -1.4593
    7SAPS     P  811   5.581   6.007  10.701 -0.0156 -0.1450  0.3606
    7SAPS   O13  812   5.467   5.921  10.683  0.3171 -0.4212  1.0058
    7SAPS   O14  813   5.599   6.085  10.824 -0.2116  0.5765  0.7375
    7SAPS   O12  814   5.708   5.923  10.673  0.5429 -0.7429 -0.3515
    7SAPS   O11  815   5.580   6.102  10.581  0.0009  0.7403  0.3743
    7SAPS    C1  816   5.707   6.160  10.536  0.3852 -0.2176  0.1633
    7SAPS    HA  817   5.718   6.263  10.576  0.5544  0.7533 -2.2166
    7SAPS    HB  818   5.798   6.114  10.579  1.3922  0.8724 -0.7241
    7SAPS    C2  819   5.709   6.151  10.384 -1.0977  1.0145 -0.0266
    7SAPS    HS  820   5.818   6.160  10.365 -1.3106  0.6513 -1.4988
    7SAPS   O21  821   5.631   6.251  10.328 -0.4504 -0.0138  0.1452
    7SAPS   C21  822   5.680   6.327  10.235  0.3640 -0.0888 -0.1933
    7SAPS   O22  823   5.787   6.326  10.188  0.0995  0.3882 -0.5303
    7SAPS   C22  824   5.563   6.415  10.184  0.1781 -0.5907 -0.8289
    7SAPS   H2R  825   5.495   6.439  10.268  0.0112  1.9336 -1.5969
    7SAPS   H2S  826   5.613   6.509  10.153 -0.0927  0.1215  0.8169
    7SAPS    C3  827   5.660   6.006  10.333 -0.3224 -0.3988 -0.7442
    7SAPS    HX  828   5.559   5.988  10.374  0.1794 -0.3890  0.5579
    7SAPS    HY  829   5.733   5.930  10.369  0.8438  0.2724 -1.6176
    7SAPS   O31  830   5.650   6.001  10.198 -0.4951  0.2067 -0.1316
    7SAPS   C31  831   5.764   5.998  10.132 -0.0132  0.1755  0.3320
    7SAPS   O32  832   5.873   5.998  10.183 -0.1939 -0.7765 -0.6242
    7SAPS   C32  833   5.747   5.993   9.982  0.0614 -0.4032 -0.2183
    7SAPS   H2X  834   5.679   6.077   9.954 -2.9593 -2.0934  1.5227
    7SAPS   H2Y  835   5.708   5.894   9.952  0.3560  0.0605 -2.2791
    7SAPS   C23  836   5.493   6.337  10.062 -0.6629  0.1806 -0.0711
    7SAPS   H3R  837   5.465   6.236  10.099 -1.1011  0.1676 -0.4297
    7SAPS   H3S  838   5.564   6.326   9.977 -1.5546 -0.9273 -0.7123
    7SAPS   C24  839   5.360   6.401  10.008 -0.3092  0.0629  0.1747
    7SAPS   H4R  840   5.383   6.508   9.989  1.8237 -0.2907  0.4602
    7SAPS   H4S  841   5.298   6.388  10.099 -1.0431 -0.0321 -0.3331
    7SAPS   C25  842   5.295   6.329   9.894 -0.6498  0.3666  0.2595
    7SAPS   H5R  843   5.364   6.293   9.816 -1.8266 -1.8586  0.1480
    7SAPS   C26  844   5.163   6.297   9.881 -0.8321 -0.2208  0.1965
    7SAPS   H6R  845   5.146   6.237   9.791  2.1015  1.0373 -1.3582
    7SAPS   C27  846   5.050   6.340   9.968 -0.1396 -0.4239 -1.1800
    7SAPS   H7R  847   5.095   6.333  10.070  1.1807 -0.9188 -1.7706
    7SAPS   H7S  848   4.971   6.263   9.978  0.1163 -0.4337  2.2225
    7SAPS   C28  849   4.992   6.482   9.938 -0.3373 -0.4308  0.5946
    7SAPS   H8R  850   5.025   6.560  10.008 -1.7564  0.4816  0.2779
    7SAPS   C29  851   4.889   6.508   9.859 -0.1152 -0.4830  0.4737
    7SAPS   H9R  852   4.852   6.611   9.856 -0.6982 -0.6712  0.8926
    7SAPS  C210  853   4.830   6.409   9.766 -0.5448 -0.4849 -0.6381
    7SAPS  H10R  854   4.754   6.342   9.812 -0.6140  0.7625  1.2112
    7SAPS  H10S  855   4.908   6.340   9.729 -1.3534 -2.0448  0.4608
    7SAPS  C211  856   4.787   6.493   9.645 -0.3367  0.3543 -0.3770
    7SAPS  H11R  857   4.862   6.524   9.570  0.1046  1.4356  0.4984
    7SAPS  C212  858   4.658   6.493   9.607 -0.0072 -0.2207 -0.1267
    7SAPS  H12R  859   4.624   6.521   9.506 -2.4754 -0.5569  0.5292
    7SAPS  C213  860   4.534   6.438   9.672  0.1379 -0.4163  0.6088
    7SAPS  H13R  861   4.444   6.499   9.649  0.7837  0.4582  0.3680
    7SAPS  H13S  862   4.544   6.431   9.782 -1.8651  0.1602  0.8621
    7SAPS  C214  863   4.511   6.297   9.617 -0.3199  0.0185 -0.2351
    7SAPS  H14R  864   4.603   6.252   9.577 -0.8241 -0.4898 -0.8139
    7SAPS  C215  865   4.395   6.228   9.627  0.1188  0.1272  0.2906
    7SAPS  H15R  866   4.396   6.128   9.581  1.2701  0.5968 -0.7589
    7SAPS  C216  867   4.267   6.270   9.698 -0.1381 -0.1067  0.6297
    7SAPS  H16R  868   4.199   6.322   9.626  1.1175 -0.7733 -1.1129
    7SAPS  H16S  869   4.292   6.333   9.785 -3.5324 -1.9252  3.1418
    7SAPS  C217  870   4.187   6.138   9.738  0.0713  0.4984 -0.2082
    7SAPS  H17R  871   4.251   6.079   9.807 -2.1168 -0.3543  1.1862
    7SAPS  H17S  872   4.156   6.075   9.652  0.8179  1.8708 -1.5449
    7SAPS  C218  873   4.059   6.169   9.815  0.2961  0.4162  0.2559
    7SAPS  H18R  874   3.995   6.233   9.751  0.2846 -0.1459 -0.3065
    7SAPS  H18S  875   4.085   6.242   9.895  1.7303 -2.2292  2.3555
    7SAPS  C219  876   3.980   6.051   9.867 -0.2283  0.2155 -0.4974
    7SAPS  H19R  877   3.914   6.104   9.939  0.4939  0.6529 -0.1420
    7SAPS  H19S  878   4.017   5.975   9.939 -1.1596 -0.7158 -0.9770
    7SAPS  C220  879   3.905   5.982   9.758  0.1547 -0.0273  0.2372
    7SAPS  H20R  880   3.869   5.887   9.802  1.6836 -0.7175  0.0729
    7SAPS  H20S  881   3.968   5.960   9.668  0.2557  1.9849 -0.2207
    7SAPS  H20T  882   3.826   6.051   9.722  1.5092  0.5821 -1.7469
    7SAPS   C33  883   5.881   6.005   9.902  0.4773  0.4290 -0.5276
    7SAPS   H3X  884   5.966   5.949   9.948 -0.7954 -0.6661  0.5775
    7SAPS   H3Y  885   5.914   6.110   9.910 -0.4280  0.7461 -0.8040
    7SAPS   C34  886   5.857   5.982   9.752 -0.1729  0.1455 -0.6895
    7SAPS   H4X  887   5.776   6.048   9.715 -1.3650 -0.9155 -0.0653
    7SAPS   H4Y  888   5.825   5.877   9.735  1.4776 -0.8327  1.6200
    7SAPS   C35  889   5.978   6.031   9.673  0.0878 -0.4990 -0.5083
    7SAPS   H5X  890   6.064   5.980   9.721  0.1803 -0.4697 -0.6433
    7SAPS   H5Y  891   5.983   6.142   9.684 -1.4595 -0.2547 -1.9736
    7SAPS   C36  892   5.979   5.997   9.526 -0.7441 -0.2822 -0.3253
    7SAPS   H6X  893   5.953   5.889   9.519 -3.3415  0.3480 -1.3048
    7SAPS   H6Y  894   6.078   6.013   9.478 -1.3067  2.5419 -0.7371
    7SAPS   C37  895   5.878   6.087   9.457 -0.1713  0.3152 -0.3569
    7SAPS   H7X  896   5.910   6.188   9.489  1.6921 -0.2211 -0.4314
    7SAPS   H7Y  897   5.774   6.075   9.495  0.4420  1.2551  1.7542
    7SAPS   C38  898   5.896   6.089   9.302  0.2167  0.0319 -0.0447
    7SAPS   H8X  899   5.977   6.161   9.277  0.4165 -0.4251 -0.7295
    7SAPS   H8Y  900   5.806   6.119   9.246 -0.4569 -0.7182  0.6129
    7SAPS   C39  901   5.933   5.949   9.241  0.1017 -0.5620 -0.1527
    7SAPS   H9X  902   5.852   5.879   9.273  1.6540 -1.3313  2.4443
    7SAPS   H9Y  903   6.023   5.910   9.293  1.1033  1.2609 -0.4595
    7SAPS  C310  904   5.941   5.942   9.092 -0.1263 -0.2558  0.3969
    7SAPS  H10X  905   5.864   6.010   9.049  1.6920  0.8344 -1.2948
    7SAPS  H10Y  906   5.924   5.837   9.057 -1.1038 -0.4188  1.3122
    7SAPS  C311  907   6.077   5.991   9.036  0.2552 -0.3973  0.3193
    7SAPS  H11X  908   6.162   5.939   9.084  0.6343 -0.2749 -0.2118
    7SAPS  H11Y  909   6.087   6.097   9.068  1.8885  0.3003 -2.2342
    7SAPS  C312  910   6.102   5.978   8.888 -0.0885  0.2887 -0.3208
    7SAPS  H12X  911   6.108   5.870   8.861 -1.6240  0.4696 -1.5632
    7SAPS  H12Y  912   6.206   6.003   8.860  0.3815 -0.3219  0.8097
    7SAPS  C313  913   6.004   6.060   8.804  0.3864 -0.0686  0.0619
    7SAPS  H13X  914   5.902   6.021   8.822 -0.0073  1.0863  0.4404
    7SAPS  H13Y  915   6.012   6.044   8.695  0.3459  1.8378 -0.2640
    7SAPS  C314  916   6.005   6.210   8.824  0.2456  0.3755  0.1300
    7SAPS  H14X  917   6.099   6.250   8.781  0.2946  0.4472  0.2999
    7SAPS  H14Y  918   6.026   6.238   8.930  1.8482  0.0548 -0.0788
    7SAPS  C315  919   5.877   6.281   8.773  0.7342  0.5277  0.1870
    7SAPS  H15X  920   5.799   6.248   8.844  2.6369 -0.5453  1.9065
    7SAPS  H15Y  921   5.854   6.252   8.668 -0.5033  2.5705 -0.1709
    7SAPS  C316  922   5.867   6.435   8.784  0.3396 -0.0372 -0.0794
    7SAPS  H16X  923   5.909   6.444   8.886  0.1658 -0.7412  0.0619
    7SAPS  H16Y  924   5.764   6.475   8.783  0.6846  0.8652 -0.2887
    7SAPS  C317  925   5.942   6.512   8.677 -0.4503  0.1584 -0.2738
    7SAPS  H17X  926   5.893   6.495   8.579 -2.4841  1.7221  0.4108
    7SAPS  H17Y  927   6.047   6.476   8.665 -0.3262  1.0696 -2.2015
    7SAPS  C318  928   5.933   6.663   8.698  0.3475 -0.7152 -0.3964
    7SAPS  H18X  929   5.959   6.729   8.612  2.8760  2.3606  2.4929
    7SAPS  H18Y  930   5.993   6.686   8.788  1.2255 -0.3886 -1.0433
    7SAPS  H18Z  931   5.830   6.684   8.732  0.4503 -1.4198  0.3777
    8SAPS     N  932   1.895   4.730  11.232 -0.0447  0.2662  0.0989
    8SAPS   HN1  933   1.860   4.633  11.248 -3.6469  1.7221  2.2479
    8SAPS   HN2  934   1.927   4.763  11.325  0.8912 -2.7988  1.0090
    8SAPS   HN3  935   1.815   4.782  11.192  0.9787  2.3159  0.5917
    8SAPS   C12  936   2.006   4.740  11.144  0.1338 -0.0918 -0.3263
    8SAPS  H12A  937   1.955   4.739  11.049  0.5019 -1.4797 -0.5391
    8SAPS   C13  938   2.079   4.872  11.155 -0.8139  0.6533  0.4342
    8SAPS  O13A  939   2.010   4.976  11.176 -0.2800  0.4589  0.1730
    8SAPS  O13B  940   2.186   4.875  11.082  0.7440  0.3494  0.0263
    8SAPS   C11  941   2.094   4.625  11.161 -0.2231  0.6606 -0.4301
    8SAPS  H11A  942   2.133   4.622  11.266  1.1396  0.5475 -0.9176
    8SAPS  H11B  943   2.180   4.630  11.091  0.6144  0.2145  0.5385
    8SAPS     P  944   2.000   4.441  10.978 -0.3123  0.1436 -0.2316
    8SAPS   O13  945   2.116   4.351  10.970  0.2559  0.2818  0.4364
    8SAPS   O14  946   1.869   4.376  10.966 -0.0767 -0.3419  0.1758
    8SAPS   O12  947   2.018   4.504  11.123 -0.4157  0.0933 -0.2577
    8SAPS   O11  948   2.004   4.553  10.869 -0.2552  0.0062 -0.5090
    8SAPS    C1  949   2.126   4.603  10.813  0.1874 -0.3050 -0.5699
    8SAPS    HA  950   2.152   4.695  10.868  1.0210 -2.5794  3.2111
    8SAPS    HB  951   2.214   4.538  10.831  0.5213  0.6542  1.5247
    8SAPS    C2  952   2.108   4.620  10.659 -0.1677  0.4059 -0.4660
    8SAPS    HS  953   2.205   4.644  10.611  0.6892 -0.3350  0.8599
    8SAPS   O21  954   2.022   4.730  10.632 -0.1386 -0.2246  0.4352
    8SAPS   C21  955   2.073   4.847  10.633 -0.1334 -0.3655  0.3147
    8SAPS   O22  956   2.189   4.875  10.661  0.3266 -0.3100 -0.6729
    8SAPS   C22  957   1.970   4.941  10.561 -0.1594 -0.7244 -0.8226
    8SAPS   H2R  958   1.891   4.878  10.516 -1.4832 -0.9514  1.6740
    8SAPS   H2S  959   1.929   5.012  10.636 -2.4201 -2.0637 -0.6884
    8SAPS    C3  960   2.042   4.494  10.584  0.7606  0.3441 -0.0175
    8SAPS    HX  961   1.941   4.492  10.629  0.2624 -2.4714 -1.0726
    8SAPS    HY  962   2.087   4.397  10.614 -0.9387 -0.4221  0.1635
    8SAPS   O31  963   2.025   4.514  10.441 -0.3291 -0.4785  0.7701
    8SAPS   C31  964   2.111   4.451  10.368 -0.1464 -0.1974  0.2161
    8SAPS   O32  965   2.187   4.367  10.406 -0.3268  0.5363  0.3949
    8SAPS   C32  966   2.096   4.505  10.224  0.7102  0.3797  0.4701
    8SAPS   H2X  967   2.095   4.616  10.232 -0.5523  0.7353 -2.9668
    8SAPS   H2Y  968   1.994   4.480  10.187  0.3614 -0.6711  2.0600
    8SAPS   C23  969   2.037   5.034  10.460  0.9646 -0.0755  0.6697
    8SAPS   H3R  970   2.088   4.972  10.383  0.4517  1.0647 -0.6473
    8SAPS   H3S  971   2.118   5.100  10.496  0.2174  1.7948 -0.8748
    8SAPS   C24  972   1.926   5.126  10.406 -0.5113  0.2005 -0.1110
    8SAPS   H4R  973   1.874   5.174  10.493 -1.0835 -2.3004  1.0246
    8SAPS   H4S  974   1.849   5.069  10.350 -0.8723 -0.3827  0.9576
    8SAPS   C25  975   1.980   5.222  10.307  0.3186  0.3019  0.2247
    8SAPS   H5R  976   2.019   5.311  10.360 -0.6875  1.0696 -0.2917
    8SAPS   C26  977   1.986   5.212  10.175 -0.5439 -0.3633  0.6816
    8SAPS   H6R  978   2.029   5.291  10.111 -0.9777  0.3069  1.1992
    8SAPS   C27  979   1.922   5.096  10.097 -0.3083 -0.3516  0.4192
    8SAPS   H7R  980   1.910   5.015  10.172 -0.9697 -0.2057  0.4770
    8SAPS   H7S  981   1.998   5.057  10.025 -0.5596  2.0988 -1.3210
    8SAPS   C28  982   1.786   5.132  10.027 -0.4327 -0.1031 -0.3996
    8SAPS   H8R  983   1.717   5.180  10.099 -1.2665  0.0805 -1.3051
    8SAPS   C29  984   1.750   5.117   9.898 -0.7591 -0.0524 -0.0875
    8SAPS   H9R  985   1.652   5.156   9.867 -0.2365  1.3328 -0.0814
    8SAPS  C210  986   1.830   5.061   9.784  0.6610  0.6955 -0.2146
    8SAPS  H10R  987   1.904   4.990   9.826  1.5703  1.2176 -0.9254
    8SAPS  H10S  988   1.896   5.144   9.752 -1.0521  1.7023 -1.2862
    8SAPS  C211  989   1.751   4.993   9.672 -0.4724 -0.5791 -0.1268
    8SAPS  H11R  990   1.663   4.939   9.710 -1.2949  1.8439  1.7038
    8SAPS  C212  991   1.783   4.988   9.542  0.1369  0.1791 -0.1590
    8SAPS  H12R  992   1.725   4.925   9.474 -0.2516  0.0025  0.3224
    8SAPS  C213  993   1.900   5.047   9.464  0.3221  0.4857 -1.3503
    8SAPS  H13R  994   1.934   4.958   9.407 -0.6288 -1.2489  0.6697
    8SAPS  H13S  995   1.982   5.083   9.530  1.2496  2.3261 -3.3815
    8SAPS  C214  996   1.869   5.171   9.375 -0.0432 -0.1741 -0.4115
    8SAPS  H14R  997   1.867   5.273   9.416  2.3971 -0.4585  0.5945
    8SAPS  C215  998   1.846   5.173   9.246  0.4526  0.2492  0.3004
    8SAPS  H15R  999   1.827   5.269   9.195 -0.9081 -0.5040 -0.6671
    8SAPS  C216 1000   1.850   5.053   9.160  0.1841 -0.1137  0.3960
    8SAPS  H16R 1001   1.889   4.969   9.221  1.1471 -2.1837 -2.8052
    8SAPS  H16S 1002   1.932   5.071   9.088  0.0971  0.0691  0.3414
    8SAPS  C217 1003   1.714   5.017   9.097 -0.1724  0.6213  0.5487
    8SAPS  H17R 1004   1.654   5.101   9.055 -0.2998  1.8522  2.9982
    8SAPS  H17S 1005   1.645   4.985   9.177  1.7775  1.1327  2.5487
    8SAPS  C218 1006   1.730   4.896   8.995  0.0845 -0.4942 -0.3836
    8SAPS  H18R 1007   1.632   4.850   8.971  0.8043 -2.3498  0.0604
    8SAPS  H18S 1008   1.786   4.813   9.045 -0.3439 -1.0756 -0.8502
    8SAPS  C219 1009   1.788   4.943   8.861 -0.3532  0.0920 -0.3182
    8SAPS  H19R 1010   1.884   4.998   8.862 -0.4922  0.3645 -1.1753
    8SAPS  H19S 1011   1.709   5.017   8.834 -0.2761  0.6007  0.7716
    8SAPS  C220 1012   1.787   4.829   8.754  0.5957 -0.7319  0.1614
    8SAPS  H20R 1013   1.839   4.871   8.664  0.6804  2.0442  1.3910
    8SAPS  H20S 1014   1.680   4.819   8.726  0.0700 -0.8306  2.0580
    8SAPS  H20T 1015   1.839   4.736   8.784  0.8551 -0.3503  0.9149
    8SAPS   C33 1016   2.196   4.438  10.134  0.3223 -0.1207 -0.7213
    8SAPS   H3X 1017   2.207   4.330  10.156  0.8183  0.2753  1.1111
    8SAPS   H3Y 1018   2.296   4.481  10.157 -0.8040  2.3625 -0.1745
    8SAPS   C34 1019   2.167   4.454   9.989  0.5165  0.0550 -0.8627
    8SAPS   H4X 1020   2.160   4.563   9.969  1.6496  0.5111  0.9987
    8SAPS   H4Y 1021   2.069   4.405   9.972  0.9260 -0.5978 -1.4051
    8SAPS   C35 1022   2.281   4.396   9.905  0.0506  0.0740 -0.6559
    8SAPS   H5X 1023   2.308   4.309   9.968  0.9788  2.8755  3.2359
    8SAPS   H5Y 1024   2.359   4.475   9.899  0.0571 -0.0018 -1.5993
    8SAPS   C36 1025   2.258   4.367   9.757  0.1039  0.7388  0.4279
    8SAPS   H6X 1026   2.155   4.325   9.750  0.5858 -1.0844  2.8647
    8SAPS   H6Y 1027   2.340   4.299   9.724 -2.0730 -0.8103 -2.2615
    8SAPS   C37 1028   2.246   4.498   9.667 -0.2559  0.9699 -0.5805
    8SAPS   H7X 1029   2.343   4.552   9.669 -0.3789  1.2018 -0.8858
    8SAPS   H7Y 1030   2.172   4.565   9.716  0.0908  0.9202  0.0202
    8SAPS   C38 1031   2.209   4.480   9.518  0.1448 -0.1216 -0.1114
    8SAPS   H8X 1032   2.184   4.580   9.475  0.7818 -0.6422 -1.7915
    8SAPS   H8Y 1033   2.119   4.417   9.508 -0.9382  0.9480  2.1887
    8SAPS   C39 1034   2.319   4.420   9.426 -0.3353 -0.4704  0.2522
    8SAPS   H9X 1035   2.322   4.311   9.449 -2.5872 -0.5261  0.5614
    8SAPS   H9Y 1036   2.410   4.471   9.463 -0.9337  0.2216  0.7900
    8SAPS  C310 1037   2.322   4.448   9.270 -0.3493  0.3248  0.0723
    8SAPS  H10X 1038   2.417   4.447   9.213 -1.5054 -1.5512 -2.0094
    8SAPS  H10Y 1039   2.292   4.554   9.268 -2.0662 -0.1321 -1.5796
    8SAPS  C311 1040   2.209   4.371   9.195  0.4067 -0.1526  0.4992
    8SAPS  H11X 1041   2.114   4.381   9.253 -1.6259  1.0759 -2.7651
    8SAPS  H11Y 1042   2.256   4.271   9.188  1.2894  0.2955 -0.1365
    8SAPS  C312 1043   2.174   4.429   9.058 -0.2997  0.3998 -0.0929
    8SAPS  H12X 1044   2.251   4.416   8.979 -2.2237 -1.0276 -1.8159
    8SAPS  H12Y 1045   2.158   4.538   9.068  1.0155  0.6082 -0.0704
    8SAPS  C313 1046   2.041   4.369   8.996  0.4568  0.8554  0.2279
    8SAPS  H13X 1047   1.959   4.376   9.070 -0.7105 -0.5293 -0.8604
    8SAPS  H13Y 1048   2.052   4.262   8.969 -0.7923  0.4958  1.0810
    8SAPS  C314 1049   2.010   4.445   8.868 -0.0800 -0.0310  0.0233
    8SAPS  H14X 1050   2.090   4.434   8.791 -2.0790 -0.4639 -2.1366
    8SAPS  H14Y 1051   1.991   4.551   8.895 -0.5363 -0.2464  0.5660
    8SAPS  C315 1052   1.886   4.395   8.790  0.3362  0.9044  0.1442
    8SAPS  H15X 1053   1.792   4.410   8.846 -1.3818 -0.7839 -2.1115
    8SAPS  H15Y 1054   1.910   4.288   8.773 -1.2275  0.7735 -1.5330
    8SAPS  C316 1055   1.853   4.450   8.650 -0.7849 -0.1741 -0.1973
    8SAPS  H16X 1056   1.946   4.466   8.592  1.0951  1.8448  3.0370
    8SAPS  H16Y 1057   1.811   4.553   8.645 -1.2689 -0.3450  0.2742
    8SAPS  C317 1058   1.757   4.363   8.570  0.3602  0.0024  0.2481
    8SAPS  H17X 1059   1.779   4.255   8.556 -1.8592 -0.3455 -1.1014
    8SAPS  H17Y 1060   1.769   4.401   8.467  3.3367 -1.6679 -0.1247
    8SAPS  C318 1061   1.604   4.380   8.604  0.5195  0.0579  0.3658
    8SAPS  H18X 1062   1.546   4.312   8.538  1.1307 -0.9957  0.8908
    8SAPS  H18Y 1063   1.575   4.487   8.592  0.6532  0.0218 -0.2911
    8SAPS  H18Z 1064   1.582   4.348   8.708  1.1625  1.0644  0.8244
    9SAPS     N 1065   5.532   1.551   6.503  0.4076 -0.2509  0.0894
    9SAPS   HN1 1066   5.439   1.512   6.476  0.2524 -1.5055  2.1250
    9SAPS   HN2 1067   5.590   1.471   6.537  1.0020 -0.2024 -0.7980
    9SAPS   HN3 1068   5.507   1.623   6.574 -2.6908  1.1258 -2.1833
    9SAPS   C12 1069   5.594   1.613   6.385  0.2781  0.0515 -0.0422
    9SAPS  H12A 1070   5.695   1.577   6.377  0.4752  0.5917 -0.0019
    9SAPS   C13 1071   5.520   1.573   6.256 -0.4607 -0.1927 -0.4524
    9SAPS  O13A 1072   5.411   1.518   6.261 -0.0845 -0.2544  0.3890
    9SAPS  O13B 1073   5.562   1.610   6.142  0.3278 -0.1649  0.7966
    9SAPS   C11 1074   5.596   1.772   6.396  0.3780 -0.2683 -0.5697
    9SAPS  H11A 1075   5.491   1.806   6.380 -0.0432 -0.0730  2.2255
    9SAPS  H11B 1076   5.651   1.810   6.307  2.8982 -0.6327  0.7267
    9SAPS     P 1077   5.591   1.854   6.649 -0.0735 -0.6736 -0.0365
    9SAPS   O13 1078   5.557   1.999   6.650  0.4783 -0.7398  0.2504
    9SAPS   O14 1079   5.480   1.759   6.651 -0.2536  0.4346 -0.1163
    9SAPS   O12 1080   5.670   1.831   6.514  0.0543  0.2189  0.9489
    9SAPS   O11 1081   5.688   1.819   6.761  0.0681 -0.1127 -0.5529
    9SAPS    C1 1082   5.823   1.862   6.756 -0.2982  0.2387 -0.1737
    9SAPS    HA 1083   5.850   1.945   6.686 -0.2603  0.0135 -0.4292
    9SAPS    HB 1084   5.853   1.898   6.856 -1.6443  1.4168 -0.1580
    9SAPS    C2 1085   5.915   1.747   6.698 -0.8979 -0.5493 -0.7847
    9SAPS    HS 1086   5.867   1.717   6.603  0.0750 -2.5552 -0.7114
    9SAPS   O21 1087   5.910   1.636   6.789 -0.1746 -0.3613  0.1597
    9SAPS   C21 1088   5.811   1.545   6.771  0.4034 -0.4321  0.3615
    9SAPS   O22 1089   5.755   1.522   6.669  0.4209 -0.1331 -0.3085
    9SAPS   C22 1090   5.801   1.468   6.899 -0.5279 -0.5111  0.4744
    9SAPS   H2R 1091   5.728   1.384   6.891 -0.4179 -0.6546  0.9311
    9SAPS   H2S 1092   5.898   1.419   6.920  1.0110  1.6348 -1.1713
    9SAPS    C3 1093   6.061   1.799   6.667 -0.1614  0.6287  0.3873
    9SAPS    HX 1094   6.055   1.893   6.609 -1.1112  0.1319 -0.3418
    9SAPS    HY 1095   6.112   1.725   6.602 -1.3943  2.1490 -2.5188
    9SAPS   O31 1096   6.129   1.846   6.784  0.2458  0.0094  0.4116
    9SAPS   C31 1097   6.211   1.755   6.833 -0.0258  0.2244  0.5834
    9SAPS   O32 1098   6.213   1.637   6.799 -0.6366  0.2313  0.0006
    9SAPS   C32 1099   6.305   1.817   6.940 -0.2350  0.0282  0.0032
    9SAPS   H2X 1100   6.251   1.904   6.983  0.7026 -0.3411  2.0620
    9SAPS   H2Y 1101   6.397   1.859   6.895  0.9721  0.9680  3.0910
    9SAPS   C23 1102   5.754   1.556   7.015  0.0922 -0.5733  0.0932
    9SAPS   H3R 1103   5.704   1.490   7.090 -1.5106  0.6524  0.1678
    9SAPS   H3S 1104   5.679   1.628   6.976  1.5468 -0.5808 -2.9660
    9SAPS   C24 1105   5.872   1.617   7.097 -0.2624  0.6756 -0.3210
    9SAPS   H4R 1106   5.954   1.646   7.029  0.2623 -1.1765 -0.5416
    9SAPS   H4S 1107   5.913   1.551   7.176 -1.6809 -0.4703 -0.4996
    9SAPS   C25 1108   5.834   1.742   7.164 -0.4167 -0.3432  0.3193
    9SAPS   H5R 1109   5.822   1.824   7.091  4.4163  0.4002  0.0269
    9SAPS   C26 1110   5.824   1.777   7.295 -0.6448 -0.0932 -0.3702
    9SAPS   H6R 1111   5.775   1.873   7.315 -1.7508 -0.7247  0.0195
    9SAPS   C27 1112   5.858   1.692   7.413 -0.1892  0.6954  0.1435
    9SAPS   H7R 1113   5.897   1.593   7.383 -0.9650  0.3672  0.1929
    9SAPS   H7S 1114   5.762   1.664   7.461 -0.0526 -1.3144 -0.6867
    9SAPS   C28 1115   5.955   1.746   7.515 -0.1075  0.7148  0.8141
    9SAPS   H8R 1116   6.023   1.821   7.470  0.3018  0.2785  0.6933
    9SAPS   C29 1117   5.954   1.733   7.648  0.4698 -0.6261  0.5686
    9SAPS   H9R 1118   6.032   1.784   7.706  0.7218 -0.6731  0.2679
    9SAPS  C210 1119   5.852   1.659   7.731 -0.1061  0.2132 -0.1435
    9SAPS  H10R 1120   5.814   1.566   7.682  3.6150 -1.8051  0.4050
    9SAPS  H10S 1121   5.765   1.727   7.738 -1.5259 -0.7616 -4.7029
    9SAPS  C211 1122   5.916   1.601   7.856 -0.8995  0.6131  0.2619
    9SAPS  H11R 1123   5.924   1.491   7.850 -1.3231  0.4980  1.5453
    9SAPS  C212 1124   5.935   1.652   7.975 -0.2641  0.5373  0.6214
    9SAPS  H12R 1125   5.993   1.589   8.044 -0.6162 -2.6839 -1.7809
    9SAPS  C213 1126   5.907   1.795   8.014  0.3588  0.5470 -0.1372
    9SAPS  H13R 1127   5.891   1.843   7.915  2.2565  1.1493 -0.2055
    9SAPS  H13S 1128   5.992   1.850   8.060  0.3874 -0.9513  1.7459
    9SAPS  C214 1129   5.790   1.819   8.103  0.5600 -0.1186 -0.7652
    9SAPS  H14R 1130   5.695   1.824   8.049  1.1579  0.0764 -1.8159
    9SAPS  C215 1131   5.788   1.857   8.232 -0.1827 -0.3142 -0.1240
    9SAPS  H15R 1132   5.693   1.868   8.286 -0.2954  0.8027 -0.5267
    9SAPS  C216 1133   5.910   1.887   8.312  0.2247  0.0169 -0.5645
    9SAPS  H16R 1134   5.895   1.956   8.397  0.6295 -1.3231  0.6430
    9SAPS  H16S 1135   5.977   1.948   8.249 -0.4136  0.1659 -1.1087
    9SAPS  C217 1136   5.981   1.756   8.368 -0.5072  0.0838 -0.3798
    9SAPS  H17R 1137   6.077   1.802   8.402 -2.1554  1.8769  2.2258
    9SAPS  H17S 1138   5.992   1.677   8.291 -0.1153  0.5465 -0.8080
    9SAPS  C218 1139   5.909   1.713   8.494  0.4967  0.4282 -0.7097
    9SAPS  H18R 1140   5.808   1.673   8.469  0.1440  1.1178 -0.4023
    9SAPS  H18S 1141   5.880   1.806   8.547 -0.0549  0.4444 -1.0331
    9SAPS  C219 1142   5.988   1.615   8.584 -0.1352 -0.4212  0.1795
    9SAPS  H19R 1143   6.074   1.669   8.628  0.4272 -0.3637 -0.9606
    9SAPS  H19S 1144   6.032   1.536   8.519  1.0637 -0.2273  0.7193
    9SAPS  C220 1145   5.901   1.559   8.697 -0.3423 -0.2711  0.4175
    9SAPS  H20R 1146   5.875   1.650   8.755  1.7020 -0.7117  2.1542
    9SAPS  H20S 1147   5.967   1.494   8.759  1.5319  1.8464  0.7949
    9SAPS  H20T 1148   5.813   1.506   8.656  0.3765 -0.7619 -0.5494
    9SAPS   C33 1149   6.332   1.723   7.063  0.4179  1.1934  0.4006
    9SAPS   H3X 1150   6.416   1.656   7.034  0.5181  1.6340 -0.3600
    9SAPS   H3Y 1151   6.243   1.657   7.074 -0.7547  2.7881  0.7877
    9SAPS   C34 1152   6.363   1.799   7.186  0.5026 -0.0530 -0.3297
    9SAPS   H4X 1153   6.279   1.868   7.212  0.7270  1.0569 -2.3268
    9SAPS   H4Y 1154   6.450   1.865   7.167 -0.7563  2.2051  1.2374
    9SAPS   C35 1155   6.392   1.710   7.302  0.3046 -0.5664  0.3563
    9SAPS   H5X 1156   6.492   1.666   7.278  0.6818  1.3424 -1.9495
    9SAPS   H5Y 1157   6.317   1.628   7.309  0.0668 -0.4349 -0.4803
    9SAPS   C36 1158   6.401   1.787   7.434  0.2293 -0.4403 -0.3820
    9SAPS   H6X 1159   6.325   1.868   7.438 -0.0765 -0.5796 -2.2461
    9SAPS   H6Y 1160   6.496   1.843   7.435  0.7693 -1.2940 -1.3766
    9SAPS   C37 1161   6.374   1.698   7.559  0.1524  0.0517  0.4449
    9SAPS   H7X 1162   6.436   1.607   7.554 -0.9158 -0.7612  1.4044
    9SAPS   H7Y 1163   6.269   1.661   7.562  1.1896 -3.1291  0.7972
    9SAPS   C38 1164   6.399   1.780   7.683 -0.1789 -0.2046 -0.9636
    9SAPS   H8X 1165   6.362   1.884   7.671 -3.2500 -1.0894 -0.0000
    9SAPS   H8Y 1166   6.506   1.769   7.709 -0.6106  1.0990  1.7307
    9SAPS   C39 1167   6.322   1.721   7.802  0.4895 -0.2977  0.4687
    9SAPS   H9X 1168   6.353   1.616   7.820  1.4306  0.3466  3.1626
    9SAPS   H9Y 1169   6.212   1.721   7.786  0.4996  1.4073  0.1565
    9SAPS  C310 1170   6.364   1.790   7.929 -0.0938 -0.4986 -0.6818
    9SAPS  H10X 1171   6.321   1.891   7.938 -0.5932 -0.7833  0.2341
    9SAPS  H10Y 1172   6.474   1.804   7.939  0.1492 -1.8351 -1.2028
    9SAPS  C311 1173   6.313   1.717   8.045 -0.3505 -0.0938  0.1075
    9SAPS  H11X 1174   6.349   1.612   8.047  2.1914  0.6091 -2.3891
    9SAPS  H11Y 1175   6.203   1.721   8.059 -0.8829 -2.1608 -2.6750
    9SAPS  C312 1176   6.375   1.772   8.170 -0.0261 -0.0352 -0.2958
    9SAPS  H12X 1177   6.327   1.869   8.197 -0.2389  0.0605 -1.0012
    9SAPS  H12Y 1178   6.484   1.788   8.158 -0.1242  1.2307  0.3058
    9SAPS  C313 1179   6.350   1.678   8.293 -0.1917 -0.0445  0.3621
    9SAPS  H13X 1180   6.381   1.577   8.260 -1.8913 -0.0143 -1.5548
    9SAPS  H13Y 1181   6.242   1.682   8.319 -0.0287 -2.1454  1.6118
    9SAPS  C314 1182   6.425   1.724   8.424 -0.1528 -0.3535  0.2110
    9SAPS  H14X 1183   6.525   1.752   8.384 -1.4356 -0.0248 -3.1119
    9SAPS  H14Y 1184   6.428   1.637   8.492  0.2152  0.3256  1.0821
    9SAPS  C315 1185   6.357   1.831   8.496 -0.5602  0.1279 -0.2140
    9SAPS  H15X 1186   6.250   1.808   8.512 -0.7295 -0.2905 -1.8385
    9SAPS  H15Y 1187   6.356   1.920   8.430 -2.3212  0.5377  0.3159
    9SAPS  C316 1188   6.432   1.857   8.624  0.1833 -0.6073 -0.5749
    9SAPS  H16X 1189   6.540   1.853   8.599  0.3091  0.2872 -0.2360
    9SAPS  H16Y 1190   6.417   1.772   8.694 -1.3815  0.8365  0.9370
    9SAPS  C317 1191   6.391   1.987   8.695  0.0642  0.3675 -1.1132
    9SAPS  H17X 1192   6.282   1.987   8.718  0.6070  2.1338  2.0388
    9SAPS  H17Y 1193   6.393   2.058   8.610 -0.4294  1.5383 -0.1768
    9SAPS  C318 1194   6.473   2.021   8.819 -0.6149  0.0725 -0.4834
    9SAPS  H18X 1195   6.425   2.103   8.878  0.7426  0.0637  0.7085
    9SAPS  H18Y 1196   6.571   2.069   8.796 -0.8917  0.2378 -1.3395
    9SAPS  H18Z 1197   6.486   1.934   8.886  1.6839  0.1498 -0.7291
   10SAPS     N 1198   5.144   1.519   6.212 -0.2225 -0.4115  0.0457
   10SAPS   HN1 1199   5.236   1.473   6.228 -0.6027 -0.9399  0.7508
   10SAPS   HN2 1200   5.178   1.605   6.165 -0.2365 -0.7926 -0.6693
   10SAPS   HN3 1201   5.105   1.543   6.306 -2.1830 -1.4435 -0.4652
   10SAPS   C12 1202   5.046   1.447   6.124 -0.0424 -0.1741 -0.4685
   10SAPS  H12A 1203   4.991   1.529   6.080  0.9448  1.5995  1.4059
   10SAPS   C13 1204   5.095   1.351   6.016 -0.3306  0.0697 -0.0372
   10SAPS  O13A 1205   5.219   1.320   6.016  0.0400 -0.2822  0.9732
   10SAPS  O13B 1206   5.014   1.318   5.927  0.6132  0.4231 -0.3427
   10SAPS   C11 1207   4.947   1.373   6.218  0.8090 -0.3405  0.0713
   10SAPS  H11A 1208   4.985   1.295   6.288 -2.5349 -2.2429 -0.0415
   10SAPS  H11B 1209   4.878   1.316   6.153  1.1355 -1.1539  0.4200
   10SAPS     P 1210   4.784   1.437   6.421 -0.5718  0.0341  0.2179
   10SAPS   O13 1211   4.880   1.415   6.524 -0.7234 -0.1285 -0.7648
   10SAPS   O14 1212   4.680   1.545   6.427 -0.1521  0.1950 -0.8275
   10SAPS   O12 1213   4.861   1.466   6.287  0.0378  0.0677 -0.4476
   10SAPS   O11 1214   4.713   1.299   6.390  0.4054 -0.8860  0.2333
   10SAPS    C1 1215   4.618   1.245   6.482 -0.6462 -0.3194 -0.2039
   10SAPS    HA 1216   4.554   1.319   6.535 -0.4005 -1.1948  1.3774
   10SAPS    HB 1217   4.544   1.177   6.434 -0.4412 -1.0725  0.5307
   10SAPS    C2 1218   4.680   1.140   6.578 -0.1755  0.6823 -0.3958
   10SAPS    HS 1219   4.592   1.093   6.628 -0.1825 -1.5588 -2.3488
   10SAPS   O21 1220   4.776   1.199   6.667 -0.3986 -0.2559  0.3586
   10SAPS   C21 1221   4.710   1.284   6.751 -0.1247 -0.0068  0.6245
   10SAPS   O22 1222   4.592   1.312   6.756  0.0290 -0.3166  0.1476
   10SAPS   C22 1223   4.821   1.341   6.830 -0.0583  0.1934  0.4231
   10SAPS   H2R 1224   4.857   1.261   6.899 -0.7824 -1.0680 -0.6163
   10SAPS   H2S 1225   4.909   1.364   6.767 -0.2679 -0.5735 -0.1669
   10SAPS    C3 1226   4.746   1.025   6.505 -0.0495 -0.3082  0.2875
   10SAPS    HX 1227   4.828   1.072   6.446  0.7243 -1.6187  0.2859
   10SAPS    HY 1228   4.677   0.987   6.427  2.3132  0.8974 -2.5978
   10SAPS   O31 1229   4.790   0.922   6.598 -0.0251 -0.4837  0.3421
   10SAPS   C31 1230   4.923   0.927   6.638  0.6166 -0.4630 -0.0361
   10SAPS   O32 1231   5.011   0.990   6.578  0.4183  0.1989 -0.3093
   10SAPS   C32 1232   4.946   0.869   6.777 -0.2750 -0.2423 -0.2763
   10SAPS   H2X 1233   5.048   0.826   6.769  1.0673  2.6789 -0.1753
   10SAPS   H2Y 1234   4.873   0.787   6.792  0.9986 -1.3463  0.1004
   10SAPS   C23 1235   4.788   1.462   6.927 -0.4032  0.2961  0.2025
   10SAPS   H3R 1236   4.708   1.425   6.994  0.2822 -1.5376  0.0689
   10SAPS   H3S 1237   4.765   1.552   6.866  0.5764 -0.6514 -1.6532
   10SAPS   C24 1238   4.895   1.483   7.038 -0.0168  0.1147  0.0992
   10SAPS   H4R 1239   4.985   1.535   6.998 -1.5105  2.1118 -0.8934
   10SAPS   H4S 1240   4.935   1.388   7.080  1.1583  0.8728  0.7430
   10SAPS   C25 1241   4.856   1.582   7.148  0.0111 -0.2173 -0.0772
   10SAPS   H5R 1242   4.850   1.687   7.116  1.8703 -0.1771 -0.4457
   10SAPS   C26 1243   4.841   1.564   7.283 -0.5158  0.3692 -0.0904
   10SAPS   H6R 1244   4.808   1.648   7.347  1.2161 -0.1248  1.5434
   10SAPS   C27 1245   4.847   1.434   7.356  0.2085 -0.1837 -0.4066
   10SAPS   H7R 1246   4.856   1.351   7.283  0.7732 -2.0247  1.6726
   10SAPS   H7S 1247   4.754   1.405   7.409 -0.1467  0.1281 -0.8498
   10SAPS   C28 1248   4.957   1.424   7.459 -0.0244  0.2242  0.7398
   10SAPS   H8R 1249   5.054   1.390   7.420  0.2912  3.5216 -1.8602
   10SAPS   C29 1250   4.958   1.449   7.591 -0.3135  0.3768  0.4586
   10SAPS   H9R 1251   5.052   1.421   7.641 -0.4249 -0.2772  0.3113
   10SAPS  C210 1252   4.837   1.496   7.671 -0.3599  0.3538 -0.4377
   10SAPS  H10R 1253   4.740   1.464   7.626 -1.2901  0.3631  1.4681
   10SAPS  H10S 1254   4.847   1.604   7.693  1.5243  0.1259 -0.0413
   10SAPS  C211 1255   4.836   1.444   7.811 -0.0165  0.4534  0.7184
   10SAPS  H11R 1256   4.751   1.376   7.826  0.3950 -0.2587 -0.0993
   10SAPS  C212 1257   4.925   1.476   7.905 -1.5223  0.2525 -0.0024
   10SAPS  H12R 1258   4.910   1.422   8.000  1.5083  0.3722  0.6470
   10SAPS  C213 1259   5.046   1.567   7.906  0.4270  0.3158  0.3779
   10SAPS  H13R 1260   5.066   1.599   7.802  1.1780 -0.1529  0.3728
   10SAPS  H13S 1261   5.129   1.499   7.934 -1.3846 -2.7022 -1.0307
   10SAPS  C214 1262   5.035   1.690   7.992  0.0367 -0.2981 -1.0602
   10SAPS  H14R 1263   4.978   1.776   7.954  1.1645  2.2217  2.4617
   10SAPS  C215 1264   5.104   1.721   8.106 -0.4692 -0.5797  0.0972
   10SAPS  H15R 1265   5.075   1.810   8.164  3.9859  0.6779  0.7777
   10SAPS  C216 1266   5.202   1.626   8.169 -0.4202 -0.5880  0.4666
   10SAPS  H16R 1267   5.288   1.619   8.099 -2.0847 -0.2165 -1.7293
   10SAPS  H16S 1268   5.154   1.526   8.166 -0.2052 -0.6997  0.8017
   10SAPS  C217 1269   5.255   1.669   8.305  0.8524 -0.2213 -0.0699
   10SAPS  H17R 1270   5.312   1.582   8.345 -1.3088 -1.5241  0.3825
   10SAPS  H17S 1271   5.175   1.685   8.380  1.5176  0.3880  0.5190
   10SAPS  C218 1272   5.337   1.808   8.302  0.2454 -0.2075  0.0371
   10SAPS  H18R 1273   5.265   1.892   8.298  1.5024  0.8843 -0.4603
   10SAPS  H18S 1274   5.406   1.817   8.216  0.5029  1.1234  0.3621
   10SAPS  C219 1275   5.390   1.827   8.444 -0.3515 -0.0949 -0.4741
   10SAPS  H19R 1276   5.302   1.832   8.512 -0.0367  2.4614 -0.1427
   10SAPS  H19S 1277   5.440   1.926   8.442  0.7498 -0.6147  0.1874
   10SAPS  C220 1278   5.500   1.737   8.503  0.0715  0.1165 -0.8895
   10SAPS  H20R 1279   5.557   1.772   8.592  0.7489 -3.2401  0.1648
   10SAPS  H20S 1280   5.571   1.710   8.422 -0.1565 -0.8107 -0.7883
   10SAPS  H20T 1281   5.459   1.638   8.532 -0.9283  1.2145  1.7306
   10SAPS   C33 1282   4.944   0.978   6.892  0.4230  0.2048  0.5065
   10SAPS   H3X 1283   4.846   1.032   6.895  0.5959  0.5245  0.5249
   10SAPS   H3Y 1284   5.033   1.043   6.878  0.5692  0.7923  3.4479
   10SAPS   C34 1285   4.961   0.914   7.033  0.7766  0.8741 -0.3637
   10SAPS   H4X 1286   5.041   0.838   7.037  2.1189  2.1831 -1.1641
   10SAPS   H4Y 1287   4.866   0.862   7.055  1.0307  0.1941 -0.8527
   10SAPS   C35 1288   4.959   1.014   7.148 -0.3339 -0.2332 -0.4934
   10SAPS   H5X 1289   4.873   1.083   7.136 -1.2632 -0.7753  2.3205
   10SAPS   H5Y 1290   5.043   1.086   7.155 -1.9483  1.7522 -0.6303
   10SAPS   C36 1291   4.944   0.938   7.280  0.0591  0.6227  0.6477
   10SAPS   H6X 1292   5.041   0.886   7.295  1.2636  1.6707 -2.5238
   10SAPS   H6Y 1293   4.858   0.868   7.278 -0.5769  1.3128  2.2103
   10SAPS   C37 1294   4.933   1.031   7.400 -0.2188 -0.3828  1.0694
   10SAPS   H7X 1295   4.829   1.038   7.439 -0.6058  1.0390 -0.1523
   10SAPS   H7Y 1296   4.967   1.133   7.375  2.0601 -1.1550  0.8338
   10SAPS   C38 1297   5.030   0.988   7.509 -0.1995  0.0481  0.1647
   10SAPS   H8X 1298   5.130   0.985   7.461 -0.2670 -4.4083 -0.1078
   10SAPS   H8Y 1299   5.026   0.881   7.540  1.6768 -0.5871 -1.5480
   10SAPS   C39 1300   5.015   1.069   7.639  0.2891  0.2248 -0.8127
   10SAPS   H9X 1301   4.911   1.056   7.676  0.7309 -2.2601 -0.2800
   10SAPS   H9Y 1302   5.020   1.177   7.615 -2.5034  0.4766 -0.6611
   10SAPS  C310 1303   5.113   1.033   7.754  0.4306 -0.3067  0.2013
   10SAPS  H10X 1304   5.214   0.995   7.727  1.8034  2.8221  0.5505
   10SAPS  H10Y 1305   5.068   0.944   7.804 -1.6772  0.8843  0.5429
   10SAPS  C311 1306   5.123   1.150   7.854 -0.2293 -0.3277 -0.5768
   10SAPS  H11X 1307   5.019   1.178   7.883  0.0544 -0.7232  0.8730
   10SAPS  H11Y 1308   5.168   1.232   7.793 -1.2604  0.5488 -0.2021
   10SAPS  C312 1309   5.205   1.116   7.980 -0.0518 -0.1655 -0.4182
   10SAPS  H12X 1310   5.313   1.122   7.953  0.3712  1.0152  1.3220
   10SAPS  H12Y 1311   5.179   1.012   8.009 -0.5822  0.3496  1.0834
   10SAPS  C313 1312   5.165   1.205   8.096 -0.3920  0.0884 -0.0776
   10SAPS  H13X 1313   5.055   1.197   8.108 -0.2630 -1.2954  0.2428
   10SAPS  H13Y 1314   5.206   1.307   8.076  0.0707  0.0109  0.4579
   10SAPS  C314 1315   5.236   1.156   8.224  0.4203 -0.0161  0.1228
   10SAPS  H14X 1316   5.340   1.190   8.208  0.0391  0.5086 -1.4231
   10SAPS  H14Y 1317   5.221   1.046   8.225 -0.7267  0.1226  0.2204
   10SAPS  C315 1318   5.182   1.196   8.363  0.4508 -0.1099  0.9178
   10SAPS  H15X 1319   5.155   1.303   8.352 -2.3412 -0.8678 -0.3779
   10SAPS  H15Y 1320   5.256   1.174   8.443 -0.9408 -1.8313  1.8062
   10SAPS  C316 1321   5.046   1.139   8.408  0.2847 -0.2832  0.6292
   10SAPS  H16X 1322   4.976   1.146   8.322  0.9909  0.1481  0.0848
   10SAPS  H16Y 1323   4.993   1.199   8.485 -2.2317 -0.0855 -1.1179
   10SAPS  C317 1324   5.064   0.990   8.454  0.0332 -0.9429  1.1170
   10SAPS  H17X 1325   5.108   0.923   8.377  2.1584  0.3909  1.1072
   10SAPS  H17Y 1326   4.962   0.956   8.483 -1.4989 -0.8679 -3.3128
   10SAPS  C318 1327   5.157   0.967   8.580 -0.0888  0.0626  0.4698
   10SAPS  H18X 1328   5.260   0.965   8.540 -0.5990 -1.4228 -0.9184
   10SAPS  H18Y 1329   5.126   0.870   8.625 -1.6925  0.3428  0.0444
   10SAPS  H18Z 1330   5.147   1.052   8.651 -0.4743  1.2291 -0.9317
   11SAPS     N 1331   3.597   2.913   5.977 -0.1006  0.2659  0.3894
   11SAPS   HN1 1332   3.584   2.824   5.924 -2.7510  1.2229 -0.7337
   11SAPS   HN2 1333   3.686   2.921   6.030 -1.2090  0.7913  2.2459
   11SAPS   HN3 1334   3.530   2.924   6.056 -0.1808 -0.8525  0.4950
   11SAPS   C12 1335   3.571   3.031   5.888  0.8423  0.8105 -0.0116
   11SAPS  H12A 1336   3.628   3.116   5.923  0.9362  0.3383  1.0172
   11SAPS   C13 1337   3.604   3.003   5.734  0.1926  0.2715 -0.3295
   11SAPS  O13A 1338   3.663   2.897   5.706 -0.3584 -0.0824  0.7886
   11SAPS  O13B 1339   3.582   3.101   5.663 -0.1388  0.2636  0.4930
   11SAPS   C11 1340   3.416   3.066   5.911  0.0011  0.9904 -0.4090
   11SAPS  H11A 1341   3.342   2.985   5.899 -1.5389  1.6451  3.2780
   11SAPS  H11B 1342   3.394   3.133   5.826 -1.3533  0.7007 -0.3074
   11SAPS     P 1343   3.325   3.273   6.051  0.1775 -0.2711 -0.3380
   11SAPS   O13 1344   3.375   3.364   5.946  0.0397  0.3483 -0.7781
   11SAPS   O14 1345   3.180   3.248   6.054 -0.0401 -0.4750  0.1800
   11SAPS   O12 1346   3.394   3.136   6.032 -0.0583  0.2722 -0.1018
   11SAPS   O11 1347   3.380   3.301   6.195 -0.2919 -0.2285 -0.6297
   11SAPS    C1 1348   3.521   3.269   6.212 -0.1955 -0.0319  0.0372
   11SAPS    HA 1349   3.545   3.162   6.196 -2.0742 -0.6267  0.8378
   11SAPS    HB 1350   3.587   3.312   6.134  1.3810 -0.3615  1.1587
   11SAPS    C2 1351   3.568   3.295   6.364 -0.2570 -0.6918  0.0892
   11SAPS    HS 1352   3.666   3.243   6.374 -1.7562 -4.0999 -1.1608
   11SAPS   O21 1353   3.470   3.241   6.458  0.3946  0.3253 -0.4655
   11SAPS   C21 1354   3.475   3.112   6.475  0.0057 -0.7977  0.1553
   11SAPS   O22 1355   3.544   3.031   6.416 -0.0405 -0.1385  0.2026
   11SAPS   C22 1356   3.395   3.088   6.610 -0.1181  0.8000 -0.0296
   11SAPS   H2R 1357   3.452   3.129   6.696  1.0291 -2.2821  0.8162
   11SAPS   H2S 1358   3.292   3.125   6.591 -0.5712 -0.1413  0.5175
   11SAPS    C3 1359   3.583   3.449   6.389 -0.8723  0.6294 -0.1344
   11SAPS    HX 1360   3.530   3.505   6.310 -1.9293  2.4642  1.7633
   11SAPS    HY 1361   3.688   3.486   6.391 -1.3718  2.0661  0.6774
   11SAPS   O31 1362   3.521   3.490   6.514 -0.1663 -0.0125  0.1056
   11SAPS   C31 1363   3.585   3.468   6.632  0.5753  0.2039  0.2786
   11SAPS   O32 1364   3.687   3.407   6.644  0.1320 -0.0525 -0.0894
   11SAPS   C32 1365   3.513   3.534   6.746 -0.4438 -0.2814  0.0415
   11SAPS   H2X 1366   3.416   3.581   6.717  0.3425  1.0384 -0.5100
   11SAPS   H2Y 1367   3.576   3.623   6.762 -0.9425 -0.0883  1.0033
   11SAPS   C23 1368   3.381   2.936   6.645 -0.1608 -0.3648  0.3479
   11SAPS   H3R 1369   3.484   2.902   6.670 -0.8078 -3.3494 -0.6758
   11SAPS   H3S 1370   3.335   2.885   6.558 -2.7318  2.0006  0.1974
   11SAPS   C24 1371   3.307   2.915   6.778 -0.4437 -0.4492  0.5059
   11SAPS   H4R 1372   3.204   2.917   6.736  0.2683  0.8657 -1.2905
   11SAPS   H4S 1373   3.310   2.994   6.856 -3.0977 -0.0649  0.3126
   11SAPS   C25 1374   3.337   2.774   6.826  0.2564  0.2668 -0.4428
   11SAPS   H5R 1375   3.335   2.695   6.750 -1.4233 -0.5221  0.3641
   11SAPS   C26 1376   3.358   2.739   6.954 -0.7675  0.7830 -0.4279
   11SAPS   H6R 1377   3.390   2.635   6.971 -0.9742  0.4906 -1.7465
   11SAPS   C27 1378   3.361   2.820   7.084  0.1188  0.2962 -0.0328
   11SAPS   H7R 1379   3.295   2.767   7.156 -1.7678  1.9576 -0.4452
   11SAPS   H7S 1380   3.323   2.924   7.075  0.9004  0.4539 -2.2245
   11SAPS   C28 1381   3.502   2.843   7.123  0.0821  0.1709 -0.6724
   11SAPS   H8R 1382   3.564   2.880   7.040  1.1505  1.8824  0.8213
   11SAPS   C29 1383   3.549   2.847   7.250 -0.2484  0.0352  0.4424
   11SAPS   H9R 1384   3.655   2.872   7.269  0.5046 -0.5206 -2.5820
   11SAPS  C210 1385   3.474   2.824   7.377 -0.0057  0.4947  0.5545
   11SAPS  H10R 1386   3.511   2.728   7.420  0.8410  1.1280  1.2625
   11SAPS  H10S 1387   3.367   2.809   7.348  0.6455  1.2829 -2.6018
   11SAPS  C211 1388   3.494   2.937   7.474 -0.3595  0.2220 -0.7154
   11SAPS  H11R 1389   3.566   3.017   7.449 -0.1421  0.1453 -0.3475
   11SAPS  C212 1390   3.448   2.938   7.600  0.3277  0.8509  0.3894
   11SAPS  H12R 1391   3.450   3.036   7.652 -2.4493  0.0202  2.3205
   11SAPS  C213 1392   3.357   2.833   7.661 -0.3311  0.4053 -0.1018
   11SAPS  H13R 1393   3.288   2.795   7.583 -0.2185 -2.9880  1.2766
   11SAPS  H13S 1394   3.293   2.871   7.744  0.7107 -0.5085  1.1664
   11SAPS  C214 1395   3.438   2.716   7.717 -0.5650 -0.2106  0.2169
   11SAPS  H14R 1396   3.498   2.659   7.645  1.5738 -0.1794  1.8732
   11SAPS  C215 1397   3.477   2.681   7.841  0.4252  0.6690  0.5398
   11SAPS  H15R 1398   3.523   2.581   7.851 -0.2118  0.2126 -0.9431
   11SAPS  C216 1399   3.429   2.743   7.968 -0.6870 -0.3097 -0.2061
   11SAPS  H16R 1400   3.362   2.832   7.965 -3.4599 -2.1151  2.4300
   11SAPS  H16S 1401   3.516   2.787   8.021 -0.8123 -0.1101 -0.1643
   11SAPS  C217 1402   3.358   2.645   8.063 -0.3635 -0.7011 -0.6346
   11SAPS  H17R 1403   3.304   2.574   7.997 -3.0985 -0.3992  1.1092
   11SAPS  H17S 1404   3.286   2.708   8.120  0.3404  0.6042 -1.1619
   11SAPS  C218 1405   3.472   2.590   8.149 -0.4477 -0.1788  0.2394
   11SAPS  H18R 1406   3.507   2.680   8.204  0.0937  0.9957 -1.9157
   11SAPS  H18S 1407   3.559   2.565   8.084 -1.3909  1.1523 -1.6554
   11SAPS  C219 1408   3.443   2.469   8.230 -0.2510  0.3948  1.1083
   11SAPS  H19R 1409   3.426   2.388   8.156  0.9234  1.5194 -0.4832
   11SAPS  H19S 1410   3.350   2.488   8.288  0.3746  1.9978  1.6485
   11SAPS  C220 1411   3.560   2.430   8.318 -0.2650  0.2986 -0.2886
   11SAPS  H20R 1412   3.604   2.519   8.369 -0.1173 -0.5492  1.1274
   11SAPS  H20S 1413   3.641   2.376   8.265  0.5763  0.6237  0.6219
   11SAPS  H20T 1414   3.524   2.360   8.397  1.7153  0.1111  0.5106
   11SAPS   C33 1415   3.512   3.438   6.857  0.8791  0.0099 -0.5317
   11SAPS   H3X 1416   3.610   3.437   6.908  0.8844  0.5782 -0.5233
   11SAPS   H3Y 1417   3.481   3.337   6.824  1.1542 -0.1789 -0.2179
   11SAPS   C34 1418   3.410   3.480   6.963 -0.0702 -0.0568 -0.0334
   11SAPS   H4X 1419   3.304   3.487   6.929 -0.0120 -1.2564 -0.5097
   11SAPS   H4Y 1420   3.431   3.584   6.996 -0.5722 -0.1440  0.5762
   11SAPS   C35 1421   3.413   3.373   7.081  0.1026 -0.2986 -0.8987
   11SAPS   H5X 1422   3.510   3.370   7.135 -0.3211 -1.7088 -0.1544
   11SAPS   H5Y 1423   3.397   3.283   7.017  0.7238  0.5796 -2.3592
   11SAPS   C36 1424   3.306   3.390   7.187  0.1371  0.3374 -0.2169
   11SAPS   H6X 1425   3.203   3.376   7.147  0.5257  0.5117 -1.3219
   11SAPS   H6Y 1426   3.324   3.496   7.216 -1.2420  0.8422 -1.0802
   11SAPS   C37 1427   3.323   3.298   7.312 -0.1037  0.1173 -0.1447
   11SAPS   H7X 1428   3.416   3.313   7.371  0.5596 -1.1316 -0.8379
   11SAPS   H7Y 1429   3.326   3.190   7.290  1.7775 -0.6434  3.1160
   11SAPS   C38 1430   3.209   3.293   7.415  0.1822  0.3444  0.0345
   11SAPS   H8X 1431   3.114   3.270   7.362  0.9567 -1.5375 -0.6247
   11SAPS   H8Y 1432   3.196   3.392   7.463 -1.1328 -1.4370  3.7426
   11SAPS   C39 1433   3.228   3.192   7.532  0.0150 -0.0813 -0.0671
   11SAPS   H9X 1434   3.323   3.213   7.585  1.8749 -0.9073 -2.8029
   11SAPS   H9Y 1435   3.233   3.089   7.489 -0.5948 -1.0921  2.1328
   11SAPS  C310 1436   3.109   3.188   7.623 -0.2264 -0.4346 -0.3989
   11SAPS  H10X 1437   3.122   3.100   7.690  0.9489  1.0147  1.3810
   11SAPS  H10Y 1438   3.021   3.168   7.560 -1.3121  3.4391 -0.3851
   11SAPS  C311 1439   3.102   3.316   7.713 -0.5619 -0.1830  0.6540
   11SAPS  H11X 1440   3.061   3.394   7.645  0.9681 -0.3372 -0.5002
   11SAPS  H11Y 1441   3.205   3.355   7.725 -0.8274  1.0758 -0.8649
   11SAPS  C312 1442   3.049   3.295   7.849 -0.1412 -0.2601  0.5140
   11SAPS  H12X 1443   3.055   3.393   7.902  0.5050 -0.9650  1.7955
   11SAPS  H12Y 1444   3.112   3.221   7.903  1.2020 -0.4343 -1.2165
   11SAPS  C313 1445   2.911   3.253   7.857 -0.1231 -0.3080  0.7709
   11SAPS  H13X 1446   2.897   3.147   7.829  0.1554  0.0076 -0.6131
   11SAPS  H13Y 1447   2.844   3.315   7.795  1.5132  1.7357  0.9335
   11SAPS  C314 1448   2.861   3.254   8.005 -0.1832 -0.2013  0.0210
   11SAPS  H14X 1449   2.860   3.359   8.042  1.9182 -0.3954  0.7584
   11SAPS  H14Y 1450   2.941   3.192   8.052  0.6146 -0.8475 -2.1041
   11SAPS  C315 1451   2.727   3.185   8.027 -0.3098 -0.2011 -0.0543
   11SAPS  H15X 1452   2.697   3.180   8.134  2.8916 -0.9979  0.9124
   11SAPS  H15Y 1453   2.749   3.084   7.987  0.6889 -0.2393  0.5630
   11SAPS  C316 1454   2.611   3.250   7.947  0.0975 -0.0144 -0.1205
   11SAPS  H16X 1455   2.611   3.189   7.855  2.0828 -1.2771  0.6531
   11SAPS  H16Y 1456   2.631   3.359   7.935  0.3772  0.1798  1.8110
   11SAPS  C317 1457   2.468   3.219   8.009  0.7067  0.1657 -0.2113
   11SAPS  H17X 1458   2.464   3.271   8.107 -1.1853 -4.7680  2.6368
   11SAPS  H17Y 1459   2.474   3.111   8.033  0.8159  0.1042 -0.5134
   11SAPS  C318 1460   2.346   3.249   7.920  0.0032 -0.0035  0.3038
   11SAPS  H18X 1461   2.356   3.356   7.891  0.3275  0.4894  2.0922
   11SAPS  H18Y 1462   2.250   3.235   7.974  0.2380 -0.7911  0.5312
   11SAPS  H18Z 1463   2.348   3.182   7.831 -1.1852  1.2506 -0.7229
   12SAPS     N 1464   3.517   4.168   6.183  0.3834 -0.3417  0.1517
   12SAPS   HN1 1465   3.560   4.219   6.262 -0.8948  2.4802 -0.8294
   12SAPS   HN2 1466   3.442   4.228   6.143  0.4825 -1.2704 -1.5596
   12SAPS   HN3 1467   3.467   4.089   6.229  0.8388 -0.0624  1.1307
   12SAPS   C12 1468   3.613   4.118   6.077 -0.4342  0.8955  0.4746
   12SAPS  H12A 1469   3.555   4.088   5.992  0.9430 -1.1296  0.1684
   12SAPS   C13 1470   3.711   4.220   6.014  0.6095  0.3782 -0.5111
   12SAPS  O13A 1471   3.784   4.187   5.914  0.0119  0.2779  0.5446
   12SAPS  O13B 1472   3.700   4.342   6.043  0.2952  0.3342  0.0680
   12SAPS   C11 1473   3.700   3.998   6.133 -0.7484  0.9268  0.2915
   12SAPS  H11A 1474   3.762   4.049   6.209  1.6017 -1.7440  0.3263
   12SAPS  H11B 1475   3.768   3.961   6.053 -1.1798 -0.8009  0.6670
   12SAPS     P 1476   3.697   3.763   6.236  0.0171 -0.3433 -0.3480
   12SAPS   O13 1477   3.646   3.660   6.153  0.6326  0.6044  0.4076
   12SAPS   O14 1478   3.841   3.782   6.208 -0.1096  0.4377 -0.1067
   12SAPS   O12 1479   3.621   3.899   6.201 -0.1028  0.5598 -0.0834
   12SAPS   O11 1480   3.660   3.733   6.394 -0.4574  0.2151  0.5444
   12SAPS    C1 1481   3.568   3.806   6.468 -0.2173  0.2339  1.1138
   12SAPS    HA 1482   3.478   3.827   6.406  0.2095  0.3178  0.5155
   12SAPS    HB 1483   3.543   3.745   6.558  0.2887 -2.6016 -0.5731
   12SAPS    C2 1484   3.620   3.946   6.520  0.1503  0.0062  0.9450
   12SAPS    HS 1485   3.613   4.014   6.433  1.5245  0.4983  1.2077
   12SAPS   O21 1486   3.757   3.921   6.549 -1.5457 -0.3217 -0.0674
   12SAPS   C21 1487   3.816   4.024   6.606  0.9205 -0.0279  0.7517
   12SAPS   O22 1488   3.768   4.133   6.626  0.0480 -0.3939  0.2818
   12SAPS   C22 1489   3.949   3.982   6.664 -0.5333 -0.5180 -1.2563
   12SAPS   H2R 1490   3.929   3.929   6.760  0.5225  0.1994 -0.6185
   12SAPS   H2S 1491   3.999   3.915   6.591  1.5089 -0.5396  0.0538
   12SAPS    C3 1492   3.514   3.993   6.635 -0.1006 -0.0574 -0.4621
   12SAPS    HX 1493   3.414   3.961   6.600 -1.8338  3.1041  1.1253
   12SAPS    HY 1494   3.535   4.102   6.634  1.6603 -0.2822  2.1052
   12SAPS   O31 1495   3.547   3.943   6.765 -0.1344 -0.6593 -0.7152
   12SAPS   C31 1496   3.470   4.007   6.857  0.1560 -0.4279  0.0710
   12SAPS   O32 1497   3.393   4.098   6.824  0.0710  0.2911 -0.0418
   12SAPS   C32 1498   3.505   3.948   6.997  0.4420  0.2473 -0.5725
   12SAPS   H2X 1499   3.600   3.999   7.024  0.8615  0.8024 -2.8924
   12SAPS   H2Y 1500   3.518   3.837   6.992  0.1764  0.2599 -1.8157
   12SAPS   C23 1501   4.050   4.106   6.692 -0.4881  0.1759 -0.0171
   12SAPS   H3R 1502   4.003   4.164   6.775  1.1913  0.6767  0.6193
   12SAPS   H3S 1503   4.036   4.151   6.592  1.2439  0.0990 -0.3250
   12SAPS   C24 1504   4.187   4.054   6.716 -0.6337  0.0323  0.1048
   12SAPS   H4R 1505   4.206   4.003   6.620  1.4431  1.5149 -0.3546
   12SAPS   H4S 1506   4.191   3.975   6.794  1.2236  0.4608  0.5109
   12SAPS   C25 1507   4.278   4.166   6.747  0.6583 -0.0756 -0.2029
   12SAPS   H5R 1508   4.337   4.207   6.663 -0.1227 -0.6539 -1.0540
   12SAPS   C26 1509   4.291   4.216   6.872  0.5697  0.2455 -0.2097
   12SAPS   H6R 1510   4.378   4.283   6.882  1.3715 -0.4550 -2.0542
   12SAPS   C27 1511   4.223   4.182   6.996  0.4731 -0.0494  0.6045
   12SAPS   H7R 1512   4.124   4.136   6.975  2.6265 -4.8530 -0.2352
   12SAPS   H7S 1513   4.208   4.268   7.066 -0.4703 -1.9340  2.8646
   12SAPS   C28 1514   4.298   4.083   7.073  0.1578 -0.3841  0.1307
   12SAPS   H8R 1515   4.336   3.996   7.016  1.6799 -0.5616  1.3507
   12SAPS   C29 1516   4.325   4.084   7.202  0.1381  0.1719 -0.4607
   12SAPS   H9R 1517   4.375   3.995   7.241 -0.5489 -0.5891 -1.2763
   12SAPS  C210 1518   4.277   4.191   7.301 -0.7104 -0.0218 -0.2233
   12SAPS  H10R 1519   4.169   4.204   7.278 -0.8089  0.7040  0.5836
   12SAPS  H10S 1520   4.328   4.288   7.284 -0.0459 -0.2127  0.5597
   12SAPS  C211 1521   4.310   4.144   7.441  0.0380 -0.8478 -0.2354
   12SAPS  H11R 1522   4.398   4.193   7.486  1.0165 -1.3804 -1.4997
   12SAPS  C212 1523   4.244   4.049   7.517 -1.0599 -0.2522 -0.2709
   12SAPS  H12R 1524   4.277   4.032   7.620 -1.2117 -1.2214 -0.3685
   12SAPS  C213 1525   4.132   3.964   7.464 -0.1988 -0.0580  0.3118
   12SAPS  H13R 1526   4.107   3.970   7.356  0.4865 -0.2346  0.1363
   12SAPS  H13S 1527   4.037   4.002   7.506 -0.7552 -1.0123 -0.0617
   12SAPS  C214 1528   4.139   3.824   7.500 -0.5462  0.0511  0.1387
   12SAPS  H14R 1529   4.087   3.797   7.593 -0.2420 -1.6708 -0.1597
   12SAPS  C215 1530   4.202   3.723   7.444 -0.3780 -0.0884  0.7393
   12SAPS  H15R 1531   4.195   3.621   7.482  0.8172 -0.9429 -1.1702
   12SAPS  C216 1532   4.297   3.715   7.322 -0.2712  0.6997  0.3874
   12SAPS  H16R 1533   4.406   3.706   7.342  0.0807  0.0814 -1.5758
   12SAPS  H16S 1534   4.282   3.807   7.261 -2.1491 -0.8883 -1.7364
   12SAPS  C217 1535   4.264   3.600   7.223 -0.1610 -0.3619 -0.3205
   12SAPS  H17R 1536   4.304   3.625   7.122 -0.4306 -1.2301 -0.6535
   12SAPS  H17S 1537   4.155   3.579   7.220 -0.4353 -0.1834  3.3536
   12SAPS  C218 1538   4.339   3.480   7.276  0.1667  0.1279  0.4169
   12SAPS  H18R 1539   4.329   3.486   7.386  1.3667  0.4794  0.5183
   12SAPS  H18S 1540   4.448   3.492   7.258  0.2366 -0.8378  0.1240
   12SAPS  C219 1541   4.297   3.342   7.235  0.5114  0.1105  0.3808
   12SAPS  H19R 1542   4.191   3.318   7.258  0.9401 -1.7058  0.6388
   12SAPS  H19S 1543   4.356   3.261   7.284 -1.6166 -2.3612 -0.8782
   12SAPS  C220 1544   4.314   3.328   7.077 -0.0970 -0.8135 -0.8644
   12SAPS  H20R 1545   4.423   3.339   7.057  0.0028  1.8724  0.7620
   12SAPS  H20S 1546   4.260   3.407   7.022  0.1544  0.5239  0.7358
   12SAPS  H20T 1547   4.275   3.231   7.039  0.5070 -0.5139 -2.3176
   12SAPS   C33 1548   3.402   3.963   7.111  0.1899 -0.1791 -0.1995
   12SAPS   H3X 1549   3.442   3.912   7.201  1.3632  1.8683  0.5054
   12SAPS   H3Y 1550   3.314   3.902   7.079  0.1940 -0.8583  1.0325
   12SAPS   C34 1551   3.374   4.111   7.148 -0.9924  0.2430 -0.2753
   12SAPS   H4X 1552   3.315   4.162   7.068 -0.8297  1.9936  0.6708
   12SAPS   H4Y 1553   3.471   4.164   7.149 -0.5228 -0.6053  1.3490
   12SAPS   C35 1554   3.304   4.130   7.283 -0.5496 -0.2196 -0.6122
   12SAPS   H5X 1555   3.374   4.118   7.369  0.6535 -0.1067 -1.5623
   12SAPS   H5Y 1556   3.239   4.042   7.303  1.1385 -1.6346 -1.1152
   12SAPS   C36 1557   3.223   4.267   7.296 -0.7003  0.2834  0.3752
   12SAPS   H6X 1558   3.137   4.278   7.227  0.1091  1.7363 -0.4622
   12SAPS   H6Y 1559   3.279   4.357   7.262  1.3244 -0.6865  0.9794
   12SAPS   C37 1560   3.181   4.287   7.439  0.4935  0.6844 -0.1966
   12SAPS   H7X 1561   3.153   4.190   7.485  3.1068 -0.3034 -0.5090
   12SAPS   H7Y 1562   3.087   4.346   7.433 -1.5230 -2.4378 -2.5123
   12SAPS   C38 1563   3.289   4.345   7.532  0.6341 -0.1301  0.2436
   12SAPS   H8X 1564   3.303   4.450   7.497  1.8172 -0.7596 -1.3068
   12SAPS   H8Y 1565   3.384   4.292   7.513 -0.6642 -1.9697 -1.5994
   12SAPS   C39 1566   3.259   4.328   7.679 -0.1329  0.1944  0.7167
   12SAPS   H9X 1567   3.152   4.356   7.694 -0.1798  1.5186 -1.5929
   12SAPS   H9Y 1568   3.328   4.401   7.728 -0.1689  0.1301  0.8627
   12SAPS  C310 1569   3.286   4.191   7.740  0.0228 -0.1751  0.3580
   12SAPS  H10X 1570   3.371   4.147   7.683 -1.0061  0.5510 -1.8564
   12SAPS  H10Y 1571   3.196   4.129   7.721  0.0389 -0.8055  2.1334
   12SAPS  C311 1572   3.328   4.201   7.887 -0.4430  0.5311  0.7202
   12SAPS  H11X 1573   3.418   4.267   7.883  0.2803 -0.4523 -0.0614
   12SAPS  H11Y 1574   3.360   4.102   7.926  0.3330 -0.0232 -1.1813
   12SAPS  C312 1575   3.220   4.266   7.984  0.1905  0.0162  0.4973
   12SAPS  H12X 1576   3.135   4.199   8.008 -0.8499  1.2605  0.4177
   12SAPS  H12Y 1577   3.175   4.354   7.932  1.0267  0.6458  0.8225
   12SAPS  C313 1578   3.283   4.304   8.118  0.5828 -0.4253  0.3868
   12SAPS  H13X 1579   3.322   4.210   8.162  0.0384 -0.3674  1.0102
   12SAPS  H13Y 1580   3.210   4.345   8.191  1.0464  1.7850 -0.3040
   12SAPS  C314 1581   3.390   4.422   8.103  0.0473 -0.0640  1.0064
   12SAPS  H14X 1582   3.380   4.499   8.024  2.7069  0.5847  1.2010
   12SAPS  H14Y 1583   3.490   4.381   8.077  0.5603  0.9093  1.4012
   12SAPS  C315 1584   3.386   4.507   8.231 -0.0806 -0.0809 -0.0935
   12SAPS  H15X 1585   3.405   4.430   8.308 -1.0325 -0.2965 -0.0634
   12SAPS  H15Y 1586   3.281   4.542   8.245 -0.2540 -0.7937  0.4241
   12SAPS  C316 1587   3.478   4.631   8.220 -0.5121  0.2314  0.1079
   12SAPS  H16X 1588   3.442   4.688   8.132 -1.8683 -1.2337 -0.3577
   12SAPS  H16Y 1589   3.578   4.590   8.193  0.9499  2.3477  1.9775
   12SAPS  C317 1590   3.497   4.717   8.344  0.0113 -0.1405  0.5014
   12SAPS  H17X 1591   3.493   4.651   8.433 -0.1854 -2.6114 -1.2578
   12SAPS  H17Y 1592   3.406   4.781   8.342 -0.8225 -1.2872  0.9874
   12SAPS  C318 1593   3.620   4.811   8.355  0.2025  0.3934 -0.0109
   12SAPS  H18X 1594   3.655   4.855   8.259  2.1886 -2.6285 -0.8155
   12SAPS  H18Y 1595   3.713   4.767   8.397  0.3353 -0.1177 -0.8246
   12SAPS  H18Z 1596   3.590   4.901   8.414 -0.8233  0.6275 -0.8530
   13SAPS     N 1597   2.744   3.040   5.851  0.2164  0.0186  0.1641
   13SAPS   HN1 1598   2.807   3.108   5.806  2.0931 -0.0452  2.4624
   13SAPS   HN2 1599   2.733   3.061   5.953 -1.5345  0.5962 -0.1169
   13SAPS   HN3 1600   2.784   2.946   5.829 -2.0474 -1.1659  0.6864
   13SAPS   C12 1601   2.616   3.047   5.776 -0.1973 -0.8186 -0.1907
   13SAPS  H12A 1602   2.579   3.148   5.784 -0.3094 -0.9670  1.2784
   13SAPS   C13 1603   2.620   3.026   5.626 -0.3382  0.0102  0.2848
   13SAPS  O13A 1604   2.724   3.001   5.566  0.0726 -0.1627  0.4799
   13SAPS  O13B 1605   2.515   3.042   5.560  0.2626 -0.1692 -0.6644
   13SAPS   C11 1606   2.516   2.947   5.839 -0.4816 -0.7679  0.4360
   13SAPS  H11A 1607   2.530   2.837   5.830 -1.9391 -1.0825  1.6875
   13SAPS  H11B 1608   2.418   2.966   5.790  0.5471 -1.8363 -2.2443
   13SAPS     P 1609   2.415   2.883   6.071 -0.0958 -0.3700  0.0638
   13SAPS   O13 1610   2.332   2.964   6.165  0.4322  0.4415 -0.0082
   13SAPS   O14 1611   2.351   2.783   5.985 -0.2955  0.0519  0.4359
   13SAPS   O12 1612   2.502   2.979   5.979 -0.8336  0.5191 -0.0536
   13SAPS   O11 1613   2.522   2.806   6.155 -0.4562 -0.5094 -0.6814
   13SAPS    C1 1614   2.630   2.864   6.215  0.5436 -0.0877  0.9629
   13SAPS    HA 1615   2.711   2.833   6.146 -1.8521 -0.4644 -1.9038
   13SAPS    HB 1616   2.621   2.974   6.225  2.3221  0.0074  1.9511
   13SAPS    C2 1617   2.657   2.809   6.362 -0.0992  0.2830  0.2633
   13SAPS    HS 1618   2.652   2.698   6.363 -1.0483  0.3189  0.0537
   13SAPS   O21 1619   2.565   2.875   6.444  0.2698  0.2476  0.2854
   13SAPS   C21 1620   2.516   2.808   6.543  0.2553 -0.4042 -0.6532
   13SAPS   O22 1621   2.532   2.691   6.565  0.3324 -0.0315 -0.2321
   13SAPS   C22 1622   2.440   2.910   6.630  0.3570  0.9641 -0.1495
   13SAPS   H2R 1623   2.509   2.995   6.648  3.2186 -1.3828  0.6732
   13SAPS   H2S 1624   2.348   2.933   6.572  0.2982  1.7258  0.2346
   13SAPS    C3 1625   2.801   2.861   6.397 -0.6195  0.4539 -0.2348
   13SAPS    HX 1626   2.790   2.971   6.383  0.2720  0.4749 -0.7679
   13SAPS    HY 1627   2.888   2.839   6.333 -0.4337  2.1085 -0.6038
   13SAPS   O31 1628   2.840   2.841   6.536  0.1735 -0.2708  0.2678
   13SAPS   C31 1629   2.891   2.724   6.559  0.0073 -0.2021 -0.5684
   13SAPS   O32 1630   2.913   2.638   6.475  0.4786  0.6916  0.4888
   13SAPS   C32 1631   2.946   2.719   6.702 -0.1757 -0.1838 -0.9168
   13SAPS   H2X 1632   2.981   2.821   6.728  1.3848 -0.4917 -1.6557
   13SAPS   H2Y 1633   3.038   2.655   6.704 -1.8786 -2.7644  0.0766
   13SAPS   C23 1634   2.399   2.847   6.767 -0.2653  0.7194 -0.5654
   13SAPS   H3R 1635   2.489   2.819   6.825 -0.4242  0.7097 -0.3231
   13SAPS   H3S 1636   2.332   2.761   6.745 -0.0817 -0.0585  1.6483
   13SAPS   C24 1637   2.319   2.952   6.852 -0.3837 -0.0916 -0.2486
   13SAPS   H4R 1638   2.389   3.032   6.882 -1.1154 -0.3055  2.2557
   13SAPS   H4S 1639   2.314   2.896   6.948  0.5641  0.9554  0.4399
   13SAPS   C25 1640   2.188   3.009   6.804  0.2263  0.0185  0.2804
   13SAPS   H5R 1641   2.135   2.958   6.722 -0.2448 -0.9255  1.1466
   13SAPS   C26 1642   2.128   3.122   6.844  0.0338  0.1668  0.0094
   13SAPS   H6R 1643   2.038   3.157   6.792 -0.8585 -0.7398  0.9017
   13SAPS   C27 1644   2.182   3.218   6.944  0.4648 -0.0195  0.3744
   13SAPS   H7R 1645   2.275   3.179   6.992  0.8637 -0.3485 -0.6397
   13SAPS   H7S 1646   2.105   3.220   7.024  2.0867  2.1538  2.0037
   13SAPS   C28 1647   2.193   3.353   6.886 -0.2140 -0.0561  0.2892
   13SAPS   H8R 1648   2.101   3.398   6.848  1.3240  1.5862 -1.7371
   13SAPS   C29 1649   2.313   3.416   6.860  0.7510 -0.5899 -0.3909
   13SAPS   H9R 1650   2.301   3.519   6.823  0.8234 -0.2622  0.4765
   13SAPS  C210 1651   2.449   3.376   6.906  0.0631  0.1197  0.6348
   13SAPS  H10R 1652   2.514   3.356   6.818 -1.3702 -0.1279 -0.3892
   13SAPS  H10S 1653   2.442   3.280   6.962 -2.7005  0.4952  1.0518
   13SAPS  C211 1654   2.521   3.481   6.986  0.5486 -0.0104  0.5935
   13SAPS  H11R 1655   2.539   3.572   6.925 -0.7393 -0.4408 -0.4621
   13SAPS  C212 1656   2.545   3.484   7.118  0.2001 -0.0190 -0.3629
   13SAPS  H12R 1657   2.596   3.571   7.164  1.5426 -0.2949 -1.2726
   13SAPS  C213 1658   2.516   3.367   7.208  0.0731 -0.3334 -0.4400
   13SAPS  H13R 1659   2.603   3.298   7.203  1.2595  1.1667 -1.6892
   13SAPS  H13S 1660   2.429   3.307   7.176  0.6506 -1.6469  0.3798
   13SAPS  C214 1661   2.500   3.410   7.354 -0.4402  0.0513  0.2258
   13SAPS  H14R 1662   2.414   3.477   7.367 -1.6548 -1.3858 -0.1401
   13SAPS  C215 1663   2.575   3.380   7.454 -0.5707  0.1876  0.6761
   13SAPS  H15R 1664   2.548   3.410   7.557 -0.4855  3.1968 -0.0711
   13SAPS  C216 1665   2.699   3.296   7.448 -0.2209  0.3936 -0.5192
   13SAPS  H16R 1666   2.764   3.310   7.537  0.7624 -0.2274 -1.1284
   13SAPS  H16S 1667   2.767   3.332   7.368 -0.1311  2.4306  0.4156
   13SAPS  C217 1668   2.662   3.147   7.446 -0.1908  0.1452 -0.3458
   13SAPS  H17R 1669   2.757   3.093   7.460  0.5205  1.5263  0.3846
   13SAPS  H17S 1670   2.619   3.121   7.347 -1.1044 -1.1441  0.3491
   13SAPS  C218 1671   2.570   3.108   7.559  0.4826  0.4139 -0.0173
   13SAPS  H18R 1672   2.476   3.167   7.558  1.1100  1.5946 -3.1330
   13SAPS  H18S 1673   2.614   3.137   7.656  1.3652  2.3338 -0.9378
   13SAPS  C219 1674   2.525   2.965   7.552  0.5331  0.3961  0.4696
   13SAPS  H19R 1675   2.619   2.906   7.551  0.3105 -0.0052 -1.4779
   13SAPS  H19S 1676   2.488   2.958   7.447  1.7712  0.6036  0.0052
   13SAPS  C220 1677   2.419   2.925   7.658  0.3923 -0.4205 -0.0219
   13SAPS  H20R 1678   2.364   2.834   7.627 -0.0800  0.3612 -1.5973
   13SAPS  H20S 1679   2.344   3.007   7.666 -1.4852 -2.0092 -0.4909
   13SAPS  H20T 1680   2.466   2.904   7.756 -1.0155  1.0614  1.0262
   13SAPS   C33 1681   2.838   2.684   6.800 -0.4730  0.5467 -0.1380
   13SAPS   H3X 1682   2.755   2.757   6.796  0.6095  1.8799  0.9257
   13SAPS   H3Y 1683   2.876   2.694   6.904  1.8059  0.4961 -0.9121
   13SAPS   C34 1684   2.786   2.536   6.787  0.6231 -0.1999 -0.0379
   13SAPS   H4X 1685   2.848   2.463   6.843 -1.0597 -0.1796  2.0053
   13SAPS   H4Y 1686   2.785   2.518   6.677  1.1766  0.8064 -0.2196
   13SAPS   C35 1687   2.638   2.532   6.837  0.2461 -0.2903  0.2509
   13SAPS   H5X 1688   2.606   2.426   6.827 -3.4240  0.6357  0.4455
   13SAPS   H5Y 1689   2.570   2.596   6.776 -0.2040  1.1965  2.2164
   13SAPS   C36 1690   2.625   2.581   6.978  0.7160 -0.3252 -1.0554
   13SAPS   H6X 1691   2.658   2.687   6.991 -0.3429  0.0139 -1.0343
   13SAPS   H6Y 1692   2.694   2.527   7.047  1.7467  3.5528  1.2721
   13SAPS   C37 1693   2.472   2.571   7.019 -0.2744  0.7840 -0.0006
   13SAPS   H7X 1694   2.433   2.467   7.011  0.5488  0.5962 -2.8732
   13SAPS   H7Y 1695   2.413   2.618   6.938  0.9832  1.4037 -0.5836
   13SAPS   C38 1696   2.432   2.647   7.147  0.0383  0.5735 -0.3382
   13SAPS   H8X 1697   2.321   2.645   7.141 -0.0598  0.4395  1.1978
   13SAPS   H8Y 1698   2.466   2.751   7.165 -1.0915  0.6196  1.8838
   13SAPS   C39 1699   2.485   2.560   7.269 -0.0636 -0.0342 -0.1658
   13SAPS   H9X 1700   2.589   2.596   7.286 -0.1412  0.3467 -0.4840
   13SAPS   H9Y 1701   2.478   2.454   7.235 -0.7307  0.7351 -2.7101
   13SAPS  C310 1702   2.401   2.585   7.391 -0.7081  0.6340  0.3666
   13SAPS  H10X 1703   2.300   2.548   7.361  0.6181  0.1082 -4.0208
   13SAPS  H10Y 1704   2.389   2.693   7.416  0.2787  0.8516 -0.0722
   13SAPS  C311 1705   2.442   2.509   7.515 -0.8183  0.4655 -0.5122
   13SAPS  H11X 1706   2.436   2.399   7.505  1.6581  0.2530 -0.2569
   13SAPS  H11Y 1707   2.363   2.547   7.584 -0.6448  0.7332 -0.4583
   13SAPS  C312 1708   2.578   2.553   7.566  0.1314  0.1134  0.9744
   13SAPS  H12X 1709   2.575   2.664   7.564 -1.8070  0.1395 -2.3465
   13SAPS  H12Y 1710   2.658   2.503   7.507  1.3737  1.4897  1.4422
   13SAPS  C313 1711   2.607   2.517   7.710  0.2164  0.3996 -0.1703
   13SAPS  H13X 1712   2.715   2.541   7.721  0.7330 -1.1645 -1.4624
   13SAPS  H13Y 1713   2.584   2.411   7.734  3.7213 -0.4874 -0.2550
   13SAPS  C314 1714   2.534   2.599   7.814  0.0288  0.0711  1.0928
   13SAPS  H14X 1715   2.431   2.617   7.776  0.6238  0.3902 -0.4229
   13SAPS  H14Y 1716   2.601   2.687   7.809 -0.0470  0.0396 -1.0129
   13SAPS  C315 1717   2.544   2.541   7.951 -0.7567  0.7296  0.1149
   13SAPS  H15X 1718   2.649   2.527   7.984 -1.0180 -2.0937  0.0245
   13SAPS  H15Y 1719   2.498   2.440   7.965  0.1877  0.4515  1.3930
   13SAPS  C316 1720   2.499   2.631   8.063  0.0636 -0.2784  0.1702
   13SAPS  H16X 1721   2.545   2.732   8.059 -0.5336  0.0970  1.9598
   13SAPS  H16Y 1722   2.529   2.599   8.165 -0.2350  3.4829  1.6078
   13SAPS  C317 1723   2.351   2.653   8.073 -0.7167  0.0556 -0.1495
   13SAPS  H17X 1724   2.306   2.551   8.072 -0.9760  0.0800  2.1798
   13SAPS  H17Y 1725   2.326   2.711   7.982 -0.6742  1.0713  0.4687
   13SAPS  C318 1726   2.308   2.735   8.195 -0.2975 -0.1874  0.0027
   13SAPS  H18X 1727   2.367   2.829   8.195  0.3354 -0.5731 -0.8023
   13SAPS  H18Y 1728   2.319   2.669   8.284 -0.2956 -0.0025  0.1387
   13SAPS  H18Z 1729   2.203   2.769   8.187 -0.2912 -0.2938 -0.5800
   14SAPS     N 1730   5.151   4.409   5.745  0.4069  0.2599  0.2836
   14SAPS   HN1 1731   5.196   4.357   5.666 -0.5479 -0.3701  0.1408
   14SAPS   HN2 1732   5.136   4.337   5.818 -1.3800 -1.2408 -1.4387
   14SAPS   HN3 1733   5.052   4.440   5.739  0.0927 -0.6476  0.5050
   14SAPS   C12 1734   5.241   4.520   5.792 -0.1423  0.8978  0.0893
   14SAPS  H12A 1735   5.341   4.487   5.771 -0.3227  0.8496 -0.7618
   14SAPS   C13 1736   5.230   4.662   5.732  0.2740 -0.0046  0.1942
   14SAPS  O13A 1737   5.128   4.671   5.651 -0.5524  0.0848 -0.0112
   14SAPS  O13B 1738   5.309   4.760   5.754 -0.2861  0.0366 -0.4529
   14SAPS   C11 1739   5.224   4.530   5.946 -0.0057  0.1270 -0.3177
   14SAPS  H11A 1740   5.115   4.542   5.962 -0.2670 -1.0474 -1.0987
   14SAPS  H11B 1741   5.270   4.625   5.982  0.1213  0.1576 -0.5551
   14SAPS     P 1742   5.414   4.383   6.054 -0.3120  0.3171 -0.1387
   14SAPS   O13 1743   5.494   4.349   5.935  0.3152  0.3206 -1.1796
   14SAPS   O14 1744   5.467   4.496   6.137 -0.0636  0.4946 -0.1774
   14SAPS   O12 1745   5.259   4.402   6.013 -0.4897  0.0575  0.3085
   14SAPS   O11 1746   5.408   4.255   6.145 -0.3373  0.0961  0.2070
   14SAPS    C1 1747   5.298   4.213   6.227  1.1117 -0.3317 -0.1860
   14SAPS    HA 1748   5.207   4.197   6.165  1.1257 -3.1372  0.4248
   14SAPS    HB 1749   5.322   4.110   6.259  0.8148 -0.2436  0.3212
   14SAPS    C2 1750   5.272   4.301   6.352 -0.1383  0.1260 -0.4759
   14SAPS    HS 1751   5.281   4.410   6.331  3.0898  0.3525  1.3739
   14SAPS   O21 1752   5.363   4.257   6.452 -0.3172 -0.7193  0.1231
   14SAPS   C21 1753   5.407   4.350   6.536  0.1658 -0.0708  0.2696
   14SAPS   O22 1754   5.382   4.468   6.542 -0.1408 -0.0532  0.1964
   14SAPS   C22 1755   5.495   4.281   6.640 -0.1943 -0.2912 -0.0004
   14SAPS   H2R 1756   5.428   4.213   6.698 -0.6963  0.4711  0.3366
   14SAPS   H2S 1757   5.570   4.228   6.578  1.5791  0.0346  1.7766
   14SAPS    C3 1758   5.134   4.272   6.403 -0.2829 -0.1193 -0.4302
   14SAPS    HX 1759   5.126   4.161   6.403 -1.3884 -0.0733  0.9210
   14SAPS    HY 1760   5.051   4.312   6.341 -0.0680  1.8066  0.4401
   14SAPS   O31 1761   5.118   4.317   6.540 -0.1984  0.1131  0.0113
   14SAPS   C31 1762   5.087   4.446   6.549  0.1989  0.1100 -0.2348
   14SAPS   O32 1763   5.047   4.517   6.454 -0.4322  0.1983  0.7033
   14SAPS   C32 1764   5.086   4.495   6.700 -0.4046  0.6195  0.1605
   14SAPS   H2X 1765   4.977   4.483   6.720 -0.6558  0.9307 -0.9249
   14SAPS   H2Y 1766   5.109   4.604   6.694  0.5743  0.5817  2.4873
   14SAPS   C23 1767   5.567   4.387   6.729 -0.0300 -0.3083  0.1415
   14SAPS   H3R 1768   5.488   4.433   6.792  0.2262  1.7069 -0.9057
   14SAPS   H3S 1769   5.589   4.466   6.654 -3.1862 -1.9447 -2.8350
   14SAPS   C24 1770   5.682   4.319   6.805  0.3124  0.0268 -0.2500
   14SAPS   H4R 1771   5.775   4.305   6.745 -0.3520 -0.2247 -1.2445
   14SAPS   H4S 1772   5.657   4.217   6.839  2.5953 -0.3622  0.4312
   14SAPS   C25 1773   5.738   4.408   6.908  0.1853  0.7709  0.5447
   14SAPS   H5R 1774   5.775   4.503   6.866  0.8218  1.2780  2.1555
   14SAPS   C26 1775   5.753   4.389   7.036 -0.2101  0.0958 -0.0898
   14SAPS   H6R 1776   5.801   4.471   7.092 -1.0033  0.5584 -0.0685
   14SAPS   C27 1777   5.711   4.271   7.122  0.4780  0.7204  0.2002
   14SAPS   H7R 1778   5.766   4.272   7.219  1.7314  3.6672 -0.4506
   14SAPS   H7S 1779   5.738   4.176   7.070  0.3974  1.1666 -0.6738
   14SAPS   C28 1780   5.554   4.253   7.145  0.1799  0.4463 -0.0307
   14SAPS   H8R 1781   5.487   4.264   7.059 -0.0206  0.0207  0.0685
   14SAPS   C29 1782   5.503   4.200   7.260  0.1052 -1.1662  0.2460
   14SAPS   H9R 1783   5.395   4.183   7.273 -0.2635  2.6620  4.4760
   14SAPS  C210 1784   5.581   4.158   7.382  1.2408 -0.2786  0.1526
   14SAPS  H10R 1785   5.681   4.118   7.357  0.9776  0.5094 -2.4772
   14SAPS  H10S 1786   5.535   4.071   7.434  2.6413 -1.2384 -0.1579
   14SAPS  C211 1787   5.609   4.282   7.466 -0.0920  0.7774 -0.4324
   14SAPS  H11R 1788   5.643   4.375   7.417  0.2349  0.7102 -0.3328
   14SAPS  C212 1789   5.594   4.304   7.600  0.2967 -0.3116 -0.7399
   14SAPS  H12R 1790   5.608   4.404   7.644 -1.7186  0.1871 -1.1134
   14SAPS  C213 1791   5.552   4.200   7.701  0.2863 -0.4441  0.3183
   14SAPS  H13R 1792   5.634   4.168   7.770  0.1669 -2.0384 -0.2495
   14SAPS  H13S 1793   5.528   4.108   7.645 -0.8018  0.6370 -1.0726
   14SAPS  C214 1794   5.432   4.239   7.785 -1.1323 -0.1764 -0.0061
   14SAPS  H14R 1795   5.351   4.275   7.719 -0.7520 -0.2572 -0.5194
   14SAPS  C215 1796   5.419   4.244   7.920 -0.2847 -0.1468  0.2967
   14SAPS  H15R 1797   5.317   4.255   7.958 -0.3098  1.2540 -0.1046
   14SAPS  C216 1798   5.511   4.196   8.028 -0.3409  0.1303 -0.4279
   14SAPS  H16R 1799   5.597   4.147   7.978 -0.0898 -0.2634  0.3868
   14SAPS  H16S 1800   5.475   4.118   8.098  2.0343 -0.0924  0.6422
   14SAPS  C217 1801   5.570   4.316   8.105  0.0420 -0.6174 -0.1492
   14SAPS  H17R 1802   5.496   4.380   8.157 -0.8108 -0.4179 -1.5401
   14SAPS  H17S 1803   5.628   4.376   8.031 -0.5039 -3.2564 -2.9510
   14SAPS  C218 1804   5.668   4.265   8.208 -0.2614 -0.4271 -0.2106
   14SAPS  H18R 1805   5.734   4.345   8.246 -0.1450  0.3222 -1.9036
   14SAPS  H18S 1806   5.732   4.185   8.164  1.7856 -0.3858  2.4447
   14SAPS  C219 1807   5.591   4.203   8.328 -0.3429  0.2959 -0.7985
   14SAPS  H19R 1808   5.652   4.115   8.358 -1.4698 -0.3204 -0.2522
   14SAPS  H19S 1809   5.494   4.162   8.295  0.4396 -2.1442 -0.2354
   14SAPS  C220 1810   5.560   4.305   8.437 -0.2248 -0.5997  0.5179
   14SAPS  H20R 1811   5.494   4.250   8.507 -2.5217 -0.2244 -1.2544
   14SAPS  H20S 1812   5.515   4.395   8.390  1.0685  0.2756  0.8954
   14SAPS  H20T 1813   5.654   4.319   8.495  0.2638  0.3933 -0.4719
   14SAPS   C33 1814   5.182   4.416   6.789 -0.2249 -0.4572 -0.3890
   14SAPS   H3X 1815   5.285   4.456   6.775 -0.6821  0.6703 -0.6711
   14SAPS   H3Y 1816   5.178   4.305   6.779 -0.4759 -0.3377 -1.9228
   14SAPS   C34 1817   5.146   4.454   6.934 -0.0544  0.0730 -0.5084
   14SAPS   H4X 1818   5.046   4.409   6.954  0.4340 -0.8419 -0.0621
   14SAPS   H4Y 1819   5.138   4.563   6.953 -0.6713 -0.2405  1.2474
   14SAPS   C35 1820   5.236   4.405   7.041 -0.2977  0.8313 -0.0442
   14SAPS   H5X 1821   5.335   4.455   7.039 -0.3911  1.0733  0.8073
   14SAPS   H5Y 1822   5.274   4.303   7.019  3.2444  2.1156 -0.5859
   14SAPS   C36 1823   5.204   4.437   7.187  0.1134 -0.0300 -0.3887
   14SAPS   H6X 1824   5.134   4.522   7.203 -2.4103 -1.8535 -1.1561
   14SAPS   H6Y 1825   5.297   4.464   7.241 -0.8342  2.9711 -0.0739
   14SAPS   C37 1826   5.132   4.319   7.257 -0.2305 -0.0348  0.0780
   14SAPS   H7X 1827   5.199   4.231   7.260  1.3332  1.1340  2.5507
   14SAPS   H7Y 1828   5.040   4.284   7.206 -0.0519  1.2484 -1.1975
   14SAPS   C38 1829   5.097   4.354   7.400 -0.5621 -0.2260  0.9433
   14SAPS   H8X 1830   5.028   4.441   7.412 -0.9499 -0.2074 -1.0136
   14SAPS   H8Y 1831   5.192   4.390   7.445 -0.1336 -1.9386  1.4646
   14SAPS   C39 1832   5.046   4.228   7.473 -0.4361 -0.1908  0.1495
   14SAPS   H9X 1833   5.121   4.148   7.456 -0.5707 -0.1271 -0.8008
   14SAPS   H9Y 1834   4.946   4.216   7.426 -1.0567 -1.3944  1.6705
   14SAPS  C310 1835   5.019   4.242   7.620  0.2537  0.4154  0.1307
   14SAPS  H10X 1836   4.956   4.327   7.654  1.6484  1.3672  0.4143
   14SAPS  H10Y 1837   5.114   4.239   7.678  0.7481 -0.6511 -0.6898
   14SAPS  C311 1838   4.948   4.114   7.680  1.0091 -0.1256 -0.7039
   14SAPS  H11X 1839   4.999   4.017   7.660 -3.0693 -2.7596  0.4180
   14SAPS  H11Y 1840   4.854   4.111   7.620 -0.4656 -2.4901  1.4893
   14SAPS  C312 1841   4.900   4.132   7.825 -0.7157 -0.3388 -0.1946
   14SAPS  H12X 1842   4.818   4.059   7.845 -1.5202  0.9026  1.2346
   14SAPS  H12Y 1843   4.856   4.233   7.830 -1.2445 -0.4622 -1.9253
   14SAPS  C313 1844   5.009   4.102   7.933  0.7139  0.0400 -0.4319
   14SAPS  H13X 1845   5.099   4.161   7.906  0.4029 -0.0205 -1.6842
   14SAPS  H13Y 1846   5.039   3.997   7.950  0.0245  0.0218  0.8359
   14SAPS  C314 1847   4.961   4.153   8.069  0.0918  0.1417 -0.2997
   14SAPS  H14X 1848   4.861   4.116   8.102  0.6433 -0.7400  0.4438
   14SAPS  H14Y 1849   4.956   4.264   8.064  1.0419  0.3091  1.5396
   14SAPS  C315 1850   5.065   4.135   8.186 -0.0638 -0.2963 -0.7288
   14SAPS  H15X 1851   5.165   4.173   8.157  0.5709 -1.9882 -0.8696
   14SAPS  H15Y 1852   5.083   4.029   8.211 -1.0159  0.0940  1.8923
   14SAPS  C316 1853   5.020   4.208   8.313  0.0946 -0.2107  0.2323
   14SAPS  H16X 1854   4.934   4.156   8.358  0.4829 -0.0313  1.1972
   14SAPS  H16Y 1855   5.003   4.317   8.299  0.5542 -0.0914  0.6084
   14SAPS  C317 1856   5.129   4.213   8.427  0.1042  0.4308 -0.5784
   14SAPS  H17X 1857   5.106   4.298   8.495 -0.1245 -0.7936  0.9311
   14SAPS  H17Y 1858   5.224   4.232   8.374  0.3952 -0.6735 -0.4788
   14SAPS  C318 1859   5.130   4.082   8.510 -0.1874 -0.6838 -0.0862
   14SAPS  H18X 1860   5.194   4.101   8.599 -0.7814 -0.7503  0.3625
   14SAPS  H18Y 1861   5.152   3.992   8.449 -1.1375  0.4746 -2.2809
   14SAPS  H18Z 1862   5.024   4.071   8.542  0.1337 -1.0115  0.8894
   15SAPS     N 1863   5.633   3.328   5.550  0.3351 -0.1290  0.5057
   15SAPS   HN1 1864   5.560   3.308   5.478  1.3878  2.1339 -1.3131
   15SAPS   HN2 1865   5.600   3.399   5.619 -4.2419 -0.1150 -1.3650
   15SAPS   HN3 1866   5.710   3.367   5.491 -1.2523  1.6266 -0.5145
   15SAPS   C12 1867   5.676   3.206   5.624 -0.1392 -0.1813 -0.0435
   15SAPS  H12A 1868   5.592   3.138   5.614  1.2011 -1.7540 -1.0094
   15SAPS   C13 1869   5.801   3.128   5.570 -0.2897 -0.5280  0.2454
   15SAPS  O13A 1870   5.864   3.181   5.474 -0.8223 -0.4086 -0.2192
   15SAPS  O13B 1871   5.817   3.012   5.612  0.1941  0.5412 -0.4689
   15SAPS   C11 1872   5.700   3.242   5.783  1.5179 -0.8560 -0.6065
   15SAPS  H11A 1873   5.787   3.310   5.776  1.7308 -1.2311 -1.9541
   15SAPS  H11B 1874   5.737   3.149   5.830 -0.3040 -1.3004  0.0249
   15SAPS     P 1875   5.473   3.187   5.902  0.0568  0.0873  0.1936
   15SAPS   O13 1876   5.365   3.260   5.973  0.3354  0.1474 -0.1814
   15SAPS   O14 1877   5.440   3.100   5.793  0.3508 -0.5484  0.3502
   15SAPS   O12 1878   5.573   3.291   5.843 -0.1424 -0.3201  0.8866
   15SAPS   O11 1879   5.566   3.113   6.007 -0.1828 -0.3133 -0.3569
   15SAPS    C1 1880   5.551   3.128   6.149  0.2058 -0.5828  0.6727
   15SAPS    HA 1881   5.507   3.228   6.168  0.1724 -0.4242 -0.2251
   15SAPS    HB 1882   5.484   3.045   6.180 -2.6578  1.3554  0.0223
   15SAPS    C2 1883   5.685   3.106   6.228  0.1755  0.9267  0.8323
   15SAPS    HS 1884   5.718   3.011   6.182 -0.3969  0.7362  0.8014
   15SAPS   O21 1885   5.652   3.077   6.366 -0.4921  0.1344  0.4122
   15SAPS   C21 1886   5.755   3.043   6.433 -0.1272 -0.0346 -0.1641
   15SAPS   O22 1887   5.856   2.995   6.387 -0.2678 -0.0994  0.1080
   15SAPS   C22 1888   5.734   3.055   6.585 -0.1075  0.5015 -0.5848
   15SAPS   H2R 1889   5.668   3.143   6.604 -1.4549 -0.2327 -1.6692
   15SAPS   H2S 1890   5.667   2.972   6.618 -0.1243  1.6063  2.4469
   15SAPS    C3 1891   5.785   3.225   6.200  0.1457 -0.1025  0.2127
   15SAPS    HX 1892   5.801   3.235   6.091 -0.3776 -0.6256  0.0833
   15SAPS    HY 1893   5.886   3.204   6.242  0.3425 -0.9277 -0.6419
   15SAPS   O31 1894   5.720   3.342   6.255 -0.0926  0.0364 -0.0235
   15SAPS   C31 1895   5.751   3.368   6.384 -0.1572  0.4467 -0.7957
   15SAPS   O32 1896   5.847   3.321   6.442  0.3848 -0.0473  0.0578
   15SAPS   C32 1897   5.655   3.477   6.443 -0.2087  0.3413  0.0732
   15SAPS   H2X 1898   5.594   3.523   6.362 -0.5037  1.0461  0.6802
   15SAPS   H2Y 1899   5.723   3.537   6.507  0.7825  0.0861 -0.7208
   15SAPS   C23 1900   5.869   3.058   6.663 -0.0645 -0.3297  0.1082
   15SAPS   H3R 1901   5.925   3.142   6.618 -1.1408  0.4301  0.1477
   15SAPS   H3S 1902   5.928   2.968   6.636 -1.8389 -1.3552 -0.5047
   15SAPS   C24 1903   5.838   3.064   6.814  0.1365  0.1269 -0.3772
   15SAPS   H4R 1904   5.836   2.959   6.852 -0.1431  0.4725  0.5628
   15SAPS   H4S 1905   5.742   3.112   6.840 -0.2358  1.0047 -3.0086
   15SAPS   C25 1906   5.958   3.132   6.876 -0.0878 -0.5319  0.9675
   15SAPS   H5R 1907   6.033   3.176   6.809  0.2342 -1.8522  0.4391
   15SAPS   C26 1908   5.988   3.136   7.006 -0.2836 -0.3779  0.0512
   15SAPS   H6R 1909   6.085   3.176   7.039  0.4185 -1.6668 -0.3894
   15SAPS   C27 1910   5.900   3.081   7.108 -1.0456 -0.4506 -0.3178
   15SAPS   H7R 1911   5.884   2.975   7.079 -0.2066 -0.6880  0.0470
   15SAPS   H7S 1912   5.798   3.122   7.098  0.4280  3.3667 -1.2975
   15SAPS   C28 1913   5.958   3.104   7.244  0.5757  0.4179 -0.7460
   15SAPS   H8R 1914   6.068   3.112   7.249  0.7415 -1.8313  1.4766
   15SAPS   C29 1915   5.891   3.149   7.352  0.0629  0.8878  0.2051
   15SAPS   H9R 1916   5.939   3.149   7.451 -1.5578 -0.3158  1.0341
   15SAPS  C210 1917   5.738   3.159   7.361 -0.0214 -0.2459  0.2531
   15SAPS  H10R 1918   5.703   3.212   7.270  0.5295 -1.1422 -0.5014
   15SAPS  H10S 1919   5.709   3.228   7.444 -2.0307  0.6401 -1.1196
   15SAPS  C211 1920   5.656   3.033   7.368  0.3484 -0.3746  0.2567
   15SAPS  H11R 1921   5.631   2.990   7.270 -0.4675 -2.4770  1.3134
   15SAPS  C212 1922   5.617   2.969   7.481  0.0151 -0.3228 -0.0797
   15SAPS  H12R 1923   5.563   2.875   7.461 -0.3368  0.1578 -1.5255
   15SAPS  C213 1924   5.643   3.002   7.625  0.3923 -0.7068  0.1160
   15SAPS  H13R 1925   5.557   2.968   7.688  1.1834 -2.4662  0.3191
   15SAPS  H13S 1926   5.640   3.113   7.629  2.1928 -0.4687 -2.7020
   15SAPS  C214 1927   5.776   2.944   7.671 -0.5433 -0.1626 -0.9411
   15SAPS  H14R 1928   5.853   2.926   7.594  1.6141 -1.2129  1.3150
   15SAPS  C215 1929   5.809   2.931   7.801 -0.1851  0.0749  0.0115
   15SAPS  H15R 1930   5.912   2.894   7.814  0.7557  1.4706 -2.6108
   15SAPS  C216 1931   5.730   2.965   7.920  0.7006  0.5200 -0.4246
   15SAPS  H16R 1932   5.643   2.896   7.930 -0.0141  0.8495 -3.4905
   15SAPS  H16S 1933   5.695   3.070   7.919 -0.9408  0.0145  0.4870
   15SAPS  C217 1934   5.814   2.941   8.054 -0.3590  0.6247  0.0225
   15SAPS  H17R 1935   5.889   3.023   8.043  0.5828 -0.5533 -4.0216
   15SAPS  H17S 1936   5.847   2.835   8.058 -1.6724  0.2332  1.1147
   15SAPS  C218 1937   5.733   2.973   8.175  0.3051 -0.2214  0.3952
   15SAPS  H18R 1938   5.678   2.894   8.231 -0.4931  1.2912  1.8307
   15SAPS  H18S 1939   5.650   3.042   8.148  0.0653  0.4402  2.6741
   15SAPS  C219 1940   5.815   3.043   8.281 -0.1544 -0.4715 -0.3756
   15SAPS  H19R 1941   5.855   3.140   8.245 -0.9956  0.3448  0.8096
   15SAPS  H19S 1942   5.905   2.989   8.318 -1.1744 -0.2061  2.8402
   15SAPS  C220 1943   5.733   3.076   8.408  1.0242 -0.3574 -0.0913
   15SAPS  H20R 1944   5.693   2.988   8.464 -1.4635 -0.5520 -1.9864
   15SAPS  H20S 1945   5.657   3.151   8.377  0.0146 -1.9067 -1.5164
   15SAPS  H20T 1946   5.795   3.138   8.477 -0.3577  2.3076 -1.0778
   15SAPS   C33 1947   5.555   3.412   6.540 -0.2056 -0.4442 -0.5201
   15SAPS   H3X 1948   5.524   3.306   6.524  1.8836 -1.3540  1.0087
   15SAPS   H3Y 1949   5.459   3.467   6.538  0.0324  0.1960  2.0731
   15SAPS   C34 1950   5.606   3.413   6.682 -0.9415  0.3503  0.0266
   15SAPS   H4X 1951   5.637   3.511   6.723 -1.8669 -0.2694  2.3232
   15SAPS   H4Y 1952   5.686   3.341   6.708 -3.2889 -2.4618 -0.0831
   15SAPS   C35 1953   5.485   3.380   6.779  0.6441 -0.2438 -0.7173
   15SAPS   H5X 1954   5.457   3.274   6.761  3.2461 -0.9898 -0.8341
   15SAPS   H5Y 1955   5.410   3.459   6.759  0.3419  0.1811  1.7775
   15SAPS   C36 1956   5.513   3.394   6.930 -0.5275 -0.0722  0.0033
   15SAPS   H6X 1957   5.574   3.486   6.942  0.6899 -0.5351 -2.1568
   15SAPS   H6Y 1958   5.583   3.312   6.958 -0.3205 -0.4626 -1.5741
   15SAPS   C37 1959   5.392   3.409   7.015  0.4817  0.0473 -0.0370
   15SAPS   H7X 1960   5.347   3.307   7.016 -0.5163  0.4713  0.3340
   15SAPS   H7Y 1961   5.333   3.480   6.952  2.4525 -0.9470 -3.2848
   15SAPS   C38 1962   5.409   3.459   7.155  0.3675 -0.1011 -0.1310
   15SAPS   H8X 1963   5.324   3.531   7.161  0.4576  0.0643 -0.8167
   15SAPS   H8Y 1964   5.499   3.523   7.151 -0.6326  1.2995 -0.7981
   15SAPS   C39 1965   5.398   3.349   7.260  1.1119  0.5316 -0.4526
   15SAPS   H9X 1966   5.447   3.254   7.229  1.0633  1.2028 -2.7356
   15SAPS   H9Y 1967   5.289   3.324   7.264  1.3795 -1.1607 -2.1937
   15SAPS  C310 1968   5.449   3.394   7.391  0.0243  0.7788 -0.3134
   15SAPS  H10X 1969   5.400   3.493   7.405 -1.2442 -0.1210  2.4751
   15SAPS  H10Y 1970   5.559   3.401   7.375 -0.2440  1.0661 -2.1447
   15SAPS  C311 1971   5.413   3.303   7.514 -0.1373  0.4815  0.3795
   15SAPS  H11X 1972   5.463   3.206   7.490 -1.6038 -0.4060  0.7790
   15SAPS  H11Y 1973   5.303   3.287   7.505  0.0564 -0.0347 -1.6927
   15SAPS  C312 1974   5.459   3.363   7.648  0.1210  0.5645  0.0674
   15SAPS  H12X 1975   5.426   3.468   7.663 -1.7950 -0.1737  1.5502
   15SAPS  H12Y 1976   5.569   3.369   7.641  0.3354 -0.6175  1.7738
   15SAPS  C313 1977   5.427   3.287   7.778  0.0979 -0.0574 -0.0557
   15SAPS  H13X 1978   5.501   3.204   7.779  0.6546  0.4246 -0.5832
   15SAPS  H13Y 1979   5.324   3.244   7.770 -0.6587  1.8539 -1.3508
   15SAPS  C314 1980   5.431   3.367   7.907  0.4139 -0.2914  0.3161
   15SAPS  H14X 1981   5.333   3.418   7.910  1.2834  1.4082  0.8160
   15SAPS  H14Y 1982   5.508   3.446   7.906  1.0167 -0.8631  0.6250
   15SAPS  C315 1983   5.445   3.276   8.027 -0.2621  0.1796 -0.4509
   15SAPS  H15X 1984   5.535   3.215   8.007  0.8398  2.1486 -1.9246
   15SAPS  H15Y 1985   5.359   3.205   8.026 -1.3835  1.4181  1.3973
   15SAPS  C316 1986   5.430   3.342   8.168 -0.9658  0.2470 -0.0438
   15SAPS  H16X 1987   5.498   3.430   8.182 -0.7792  0.2166 -0.7463
   15SAPS  H16Y 1988   5.450   3.265   8.246  0.3103  0.6633  0.0568
   15SAPS  C317 1989   5.291   3.399   8.198 -0.5385  0.0756 -0.0903
   15SAPS  H17X 1990   5.245   3.458   8.116 -1.9561  0.7113  1.1118
   15SAPS  H17Y 1991   5.298   3.465   8.288 -2.5840  0.0812  0.0974
   15SAPS  C318 1992   5.174   3.306   8.233 -0.0891  0.3822 -0.4407
   15SAPS  H18X 1993   5.086   3.371   8.253  0.2808  1.9623 -3.3716
   15SAPS  H18Y 1994   5.204   3.244   8.321 -1.2711 -1.1338 -1.0618
   15SAPS  H18Z 1995   5.151   3.239   8.148 -0.1927  0.9148 -0.8361
   16SAPS     N 1996   2.872   6.270   6.236  0.5634 -0.5478  0.0852
   16SAPS   HN1 1997   2.898   6.365   6.270 -1.1101  0.6903 -1.8748
   16SAPS   HN2 1998   2.861   6.196   6.308 -0.0211 -2.7008 -2.0749
   16SAPS   HN3 1999   2.943   6.234   6.169  0.5133  0.5699 -0.5930
   16SAPS   C12 2000   2.743   6.295   6.166  0.7032 -0.3187 -0.0958
   16SAPS  H12A 2001   2.763   6.360   6.081  1.0653  0.6056  0.6808
   16SAPS   C13 2002   2.661   6.176   6.103  0.3499 -0.5784  0.2017
   16SAPS  O13A 2003   2.704   6.061   6.126 -0.3380  0.4724 -0.5668
   16SAPS  O13B 2004   2.551   6.200   6.045 -0.9246  0.3961 -0.4853
   16SAPS   C11 2005   2.648   6.361   6.281 -0.5810  0.5140  0.7957
   16SAPS  H11A 2006   2.615   6.275   6.342  2.2083 -1.0253  0.2783
   16SAPS  H11B 2007   2.568   6.405   6.217  0.2106 -0.3471 -0.8508
   16SAPS     P 2008   2.641   6.579   6.439 -0.5292 -0.0084 -0.1440
   16SAPS   O13 2009   2.720   6.635   6.549 -0.2229  0.0139 -0.5504
   16SAPS   O14 2010   2.585   6.672   6.341  0.1330  0.4704  0.2562
   16SAPS   O12 2011   2.724   6.459   6.362 -0.8318 -0.5478  0.0873
   16SAPS   O11 2012   2.515   6.499   6.492 -0.1578  0.3515  0.5115
   16SAPS    C1 2013   2.517   6.409   6.606 -0.2204 -0.4909 -0.1930
   16SAPS    HA 2014   2.470   6.312   6.580 -2.7363 -0.2092  2.6649
   16SAPS    HB 2015   2.618   6.392   6.649 -0.4045 -0.3855  0.2940
   16SAPS    C2 2016   2.436   6.469   6.724  0.8837 -0.0619  0.4650
   16SAPS    HS 2017   2.329   6.485   6.696  0.4043 -0.9808  1.7032
   16SAPS   O21 2018   2.503   6.586   6.765 -0.9194  0.3378 -0.7367
   16SAPS   C21 2019   2.447   6.703   6.769  0.1707  0.1547 -0.3836
   16SAPS   O22 2020   2.327   6.722   6.740 -0.5182 -0.2705  0.1470
   16SAPS   C22 2021   2.543   6.812   6.811 -0.5421  0.8962 -0.0600
   16SAPS   H2R 2022   2.623   6.771   6.877  0.0603 -1.7474 -2.2541
   16SAPS   H2S 2023   2.580   6.852   6.715  0.6868  0.7753  0.3437
   16SAPS    C3 2024   2.433   6.364   6.838 -0.5696  0.0802 -0.0698
   16SAPS    HX 2025   2.533   6.316   6.829 -1.1901 -0.8262 -3.9776
   16SAPS    HY 2026   2.375   6.275   6.807 -0.5297  0.6272 -1.8492
   16SAPS   O31 2027   2.395   6.419   6.964  0.5173  0.2558  0.3165
   16SAPS   C31 2028   2.499   6.447   7.045  0.5075  0.1548  0.2591
   16SAPS   O32 2029   2.619   6.439   7.010 -0.1940  0.0687 -0.4336
   16SAPS   C32 2030   2.459   6.516   7.178  0.7019 -0.5452  0.4742
   16SAPS   H2X 2031   2.353   6.484   7.187 -0.0781  1.9093  0.6103
   16SAPS   H2Y 2032   2.472   6.625   7.158 -0.3749 -0.7203 -1.4357
   16SAPS   C23 2033   2.476   6.921   6.900 -0.4373 -0.3090  0.1979
   16SAPS   H3R 2034   2.421   6.868   6.981 -0.9910 -0.1594 -0.0701
   16SAPS   H3S 2035   2.397   6.973   6.841 -0.1133 -2.1154 -1.9586
   16SAPS   C24 2036   2.579   7.024   6.949  0.1351  0.5135 -0.8915
   16SAPS   H4R 2037   2.606   7.093   6.866  0.8321  1.0901 -0.2045
   16SAPS   H4S 2038   2.675   6.977   6.977 -0.9627 -0.6460  1.1573
   16SAPS   C25 2039   2.534   7.096   7.077 -0.1052 -0.1156  0.2887
   16SAPS   H5R 2040   2.513   7.203   7.061  2.0952  0.5364  1.3922
   16SAPS   C26 2041   2.546   7.042   7.198  0.2707  0.4531  0.0969
   16SAPS   H6R 2042   2.490   7.092   7.279 -1.1552 -0.7732 -0.1071
   16SAPS   C27 2043   2.601   6.907   7.232 -0.5147  0.0847 -0.0845
   16SAPS   H7R 2044   2.710   6.914   7.252 -0.6273 -0.0485  0.6248
   16SAPS   H7S 2045   2.592   6.835   7.148 -2.8512 -1.6539  1.4842
   16SAPS   C28 2046   2.531   6.834   7.342  0.4023 -0.5545  0.8118
   16SAPS   H8R 2047   2.424   6.816   7.324  0.4506 -0.0021 -0.1233
   16SAPS   C29 2048   2.587   6.792   7.450 -0.6454 -0.7645 -0.3892
   16SAPS   H9R 2049   2.530   6.732   7.523 -0.8102 -1.0072 -0.7151
   16SAPS  C210 2050   2.734   6.819   7.486  0.5369  0.3023  0.2668
   16SAPS  H10R 2051   2.802   6.813   7.399  1.4360 -0.1332  0.9834
   16SAPS  H10S 2052   2.770   6.732   7.545 -1.6936 -2.1482 -1.7335
   16SAPS  C211 2053   2.744   6.939   7.580  0.3804  0.3222  0.4197
   16SAPS  H11R 2054   2.779   7.028   7.525  1.2679  0.4042  1.0918
   16SAPS  C212 2055   2.714   6.949   7.715  0.7648  0.3561  0.3149
   16SAPS  H12R 2056   2.725   7.043   7.771 -0.3933  1.9576 -1.9604
   16SAPS  C213 2057   2.655   6.836   7.796 -0.5750  0.2031 -0.0105
   16SAPS  H13R 2058   2.680   6.746   7.736 -3.8402  0.2442 -1.6759
   16SAPS  H13S 2059   2.544   6.842   7.794 -0.7393 -1.9821 -0.5081
   16SAPS  C214 2060   2.707   6.828   7.937 -1.0360 -0.2827 -0.4392
   16SAPS  H14R 2061   2.778   6.745   7.953 -2.6828 -1.7930 -0.5826
   16SAPS  C215 2062   2.682   6.902   8.044 -0.6232  0.1989  0.3805
   16SAPS  H15R 2063   2.746   6.882   8.131 -1.1090 -0.3169  0.6253
   16SAPS  C216 2064   2.584   7.024   8.059 -0.4986  0.4288  1.0130
   16SAPS  H16R 2065   2.534   7.040   7.960  0.0547 -1.4428  0.3847
   16SAPS  H16S 2066   2.653   7.107   8.088  1.6356 -0.4858 -1.0858
   16SAPS  C217 2067   2.467   7.018   8.159  0.2753  0.4875  0.2338
   16SAPS  H17R 2068   2.383   6.953   8.125 -1.9117  3.0280  0.4218
   16SAPS  H17S 2069   2.416   7.117   8.166 -0.5786  0.0414  0.4910
   16SAPS  C218 2070   2.502   6.988   8.298  0.4656  0.4286 -0.6110
   16SAPS  H18R 2071   2.573   6.903   8.302 -0.0009  0.0401 -0.3689
   16SAPS  H18S 2072   2.418   6.956   8.363  2.8101  0.3609  2.6280
   16SAPS  C219 2073   2.569   7.106   8.365 -0.3961 -0.2988  0.5955
   16SAPS  H19R 2074   2.492   7.182   8.391 -1.3079 -1.5534  1.6597
   16SAPS  H19S 2075   2.639   7.149   8.291 -1.7956 -1.0502 -1.2673
   16SAPS  C220 2076   2.646   7.078   8.493 -0.4701 -0.1690 -0.6304
   16SAPS  H20R 2077   2.722   7.158   8.511 -0.8409 -0.0574  0.5030
   16SAPS  H20S 2078   2.696   6.979   8.489  2.0121  0.9967 -0.4918
   16SAPS  H20T 2079   2.576   7.089   8.578  0.1593 -1.3426  0.0611
   16SAPS   C33 2080   2.554   6.470   7.293  0.4692 -0.4812  0.4285
   16SAPS   H3X 2081   2.625   6.551   7.322 -1.5534  1.4467  0.2613
   16SAPS   H3Y 2082   2.611   6.378   7.270 -1.2600 -1.8046  1.2084
   16SAPS   C34 2083   2.480   6.435   7.426 -0.3604 -0.7450  0.2900
   16SAPS   H4X 2084   2.413   6.346   7.423 -0.8387 -0.3822 -2.5336
   16SAPS   H4Y 2085   2.405   6.513   7.451  0.6929  1.0109 -1.6958
   16SAPS   C35 2086   2.581   6.421   7.547  0.5462 -0.3578  0.1653
   16SAPS   H5X 2087   2.642   6.513   7.558  0.8988 -0.5761  0.0379
   16SAPS   H5Y 2088   2.653   6.338   7.534  0.3868 -0.5041  0.2129
   16SAPS   C36 2089   2.507   6.402   7.678 -0.3652  0.8539 -0.0341
   16SAPS   H6X 2090   2.491   6.292   7.690  2.2748  0.0422 -2.7638
   16SAPS   H6Y 2091   2.410   6.456   7.675 -0.3014  0.9161 -1.5464
   16SAPS   C37 2092   2.576   6.476   7.798  0.1114  0.6876 -0.8087
   16SAPS   H7X 2093   2.552   6.584   7.801 -0.9072  0.4644 -0.1996
   16SAPS   H7Y 2094   2.686   6.468   7.794  0.2410  2.2280 -0.9271
   16SAPS   C38 2095   2.540   6.405   7.934 -0.6723 -0.4563 -0.3473
   16SAPS   H8X 2096   2.583   6.303   7.942 -1.2012 -0.6465  0.1993
   16SAPS   H8Y 2097   2.429   6.406   7.939 -0.7646  1.9720 -1.7569
   16SAPS   C39 2098   2.593   6.478   8.060 -0.1665  0.4166 -0.3764
   16SAPS   H9X 2099   2.576   6.588   8.050 -0.6940  0.6736  2.5162
   16SAPS   H9Y 2100   2.703   6.469   8.068 -0.0540  1.5748 -0.4339
   16SAPS  C310 2101   2.538   6.431   8.195  0.5771  0.0284  0.4352
   16SAPS  H10X 2102   2.573   6.327   8.215  0.2162 -0.3097 -0.6007
   16SAPS  H10Y 2103   2.428   6.423   8.183  0.6155 -0.1472  0.2001
   16SAPS  C311 2104   2.574   6.513   8.321  0.6297  0.3433 -0.3773
   16SAPS  H11X 2105   2.516   6.471   8.406  0.8249  1.5444  0.3803
   16SAPS  H11Y 2106   2.521   6.608   8.298  1.5464  0.1933 -3.5907
   16SAPS  C312 2107   2.719   6.541   8.355  0.2139  0.3546  0.3155
   16SAPS  H12X 2108   2.766   6.596   8.271  0.3508 -2.8684 -1.9019
   16SAPS  H12Y 2109   2.779   6.448   8.364 -0.9275 -0.4453 -0.0444
   16SAPS  C313 2110   2.723   6.639   8.478 -0.6287  0.4058 -0.2431
   16SAPS  H13X 2111   2.659   6.598   8.559 -0.8709  0.2468 -0.5194
   16SAPS  H13Y 2112   2.678   6.734   8.444  1.9096  2.0386  0.6483
   16SAPS  C314 2113   2.863   6.660   8.537 -0.0881  0.4668 -0.1387
   16SAPS  H14X 2114   2.923   6.711   8.458  0.4533  0.0907  0.0292
   16SAPS  H14Y 2115   2.909   6.564   8.567  0.5347  0.7322 -0.2177
   16SAPS  C315 2116   2.884   6.761   8.659  0.4672  0.5231 -0.2862
   16SAPS  H15X 2117   2.835   6.717   8.748 -0.2756  1.5383 -0.1733
   16SAPS  H15Y 2118   2.843   6.863   8.642  1.7344  1.3403  1.1907
   16SAPS  C316 2119   3.028   6.781   8.691  0.2621  0.0587  0.4703
   16SAPS  H16X 2120   3.049   6.890   8.699 -1.5739  0.4733  0.0547
   16SAPS  H16Y 2121   3.099   6.736   8.619  0.5032 -0.0969  0.7994
   16SAPS  C317 2122   3.073   6.718   8.826  0.2271 -0.4107  0.5502
   16SAPS  H17X 2123   3.055   6.608   8.826  1.6840 -0.7027 -1.1459
   16SAPS  H17Y 2124   3.008   6.763   8.905 -1.5716  0.9237 -1.5795
   16SAPS  C318 2125   3.216   6.745   8.866 -0.0722 -0.2874  0.9480
   16SAPS  H18X 2126   3.232   6.669   8.946  0.7390 -1.0223  0.1153
   16SAPS  H18Y 2127   3.245   6.847   8.900  1.2433  0.3986 -1.9104
   16SAPS  H18Z 2128   3.287   6.736   8.781 -1.4163 -2.2399 -0.0452
   17SAPC     N 2129   3.105   3.151  10.573 -0.0754  0.0898  0.1750
   17SAPC   C12 2130   3.159   3.070  10.460 -0.3821 -0.0462  0.2875
   17SAPC  H12A 2131   3.090   3.051  10.379  0.5565  0.6676 -0.7149
   17SAPC  H12B 2132   3.168   2.975  10.510 -0.6526 -1.1488 -1.6697
   17SAPC   C13 2133   2.983   3.087  10.630  0.3253 -0.9811 -0.1652
   17SAPC  H13A 2134   2.902   3.118  10.565  0.6239 -0.9229 -0.5177
   17SAPC  H13B 2135   2.985   2.979  10.621  2.4812 -1.0749  0.7926
   17SAPC  H13C 2136   2.964   3.126  10.729  1.0474  1.4415 -0.9215
   17SAPC   C14 2137   3.201   3.146  10.687  0.1336  0.7085  0.7217
   17SAPC  H14A 2138   3.296   3.195  10.669 -0.0242  1.3516  1.5739
   17SAPC  H14B 2139   3.155   3.193  10.773  1.9954  2.5695  0.7787
   17SAPC  H14C 2140   3.217   3.040  10.699 -1.3487  0.3487 -0.2655
   17SAPC   C15 2141   3.074   3.288  10.533  0.4198 -0.5366  0.3465
   17SAPC  H15A 2142   3.155   3.343  10.487 -0.7209 -0.8186 -2.1308
   17SAPC  H15B 2143   2.993   3.294  10.462  0.1848  1.0603  0.6999
   17SAPC  H15C 2144   3.038   3.348  10.616  0.8916  0.4529 -0.1528
   17SAPC   C11 2145   3.304   3.096  10.412 -0.2454 -0.3897 -0.1325
   17SAPC  H11A 2146   3.317   3.203  10.387  0.4652 -1.1018 -3.2762
   17SAPC  H11B 2147   3.318   3.037  10.318 -0.7660 -0.8412  0.0689
   17SAPC     P 2148   3.454   2.927  10.546  0.0483  0.3617 -0.1572
   17SAPC   O13 2149   3.603   2.923  10.534  0.6949  0.0199 -0.5054
   17SAPC   O14 2150   3.396   2.897  10.683 -0.7961  0.4801 -0.3555
   17SAPC   O12 2151   3.401   3.067  10.510 -0.6107  0.0640  0.4265
   17SAPC   O11 2152   3.401   2.828  10.438 -0.7745 -0.6090  0.4046
   17SAPC    C1 2153   3.466   2.710  10.389 -0.0072  0.6341  0.2731
   17SAPC    HA 2154   3.548   2.681  10.459  0.6759  2.2666  0.1864
   17SAPC    HB 2155   3.385   2.635  10.380  1.3845 -0.7375 -1.8360
   17SAPC    C2 2156   3.524   2.737  10.246  0.0645  0.1900  0.3535
   17SAPC    HS 2157   3.604   2.811  10.267  0.7227 -0.9288  2.0337
   17SAPC   O21 2158   3.414   2.788  10.160  0.0826  1.0944  0.0573
   17SAPC   C21 2159   3.427   2.912  10.126  0.4251  0.3816 -0.4570
   17SAPC   O22 2160   3.521   2.983  10.156 -0.0938  0.2542 -0.4460
   17SAPC   C22 2161   3.302   2.952  10.043  0.0916  0.5532 -0.4202
   17SAPC   H2R 2162   3.270   2.861   9.987  0.4164  0.1569  0.0265
   17SAPC   H2S 2163   3.227   2.984  10.119 -0.5283 -2.6179  0.4636
   17SAPC    C3 2164   3.569   2.597  10.195  0.1141  0.2483 -0.8210
   17SAPC    HX 2165   3.496   2.515  10.207  0.2537  0.0308 -1.4654
   17SAPC    HY 2166   3.643   2.559  10.269  0.8333 -0.8606 -2.0793
   17SAPC   O31 2167   3.608   2.604  10.061  0.7385  0.2359  0.1643
   17SAPC   C31 2168   3.726   2.663  10.039 -0.0711 -0.5473  0.7164
   17SAPC   O32 2169   3.794   2.707  10.129  0.3100 -0.1833 -0.5194
   17SAPC   C32 2170   3.730   2.694   9.885 -0.0515 -0.4758 -0.6069
   17SAPC   H2X 2171   3.649   2.769   9.870  0.5775  0.0476 -1.4461
   17SAPC   H2Y 2172   3.713   2.609   9.816 -0.0416  0.3094 -1.5967
   17SAPC   C23 2173   3.331   3.063   9.934 -0.1501 -0.0313 -0.3891
   17SAPC   H3R 2174   3.364   3.155   9.986  0.1931  0.0377 -0.7284
   17SAPC   H3S 2175   3.242   3.081   9.869 -0.6882  0.3292  0.4266
   17SAPC   C24 2176   3.437   3.003   9.840  0.0053 -0.4527  0.2906
   17SAPC   H4R 2177   3.399   2.910   9.791 -0.0802  0.2643 -1.0393
   17SAPC   H4S 2178   3.521   2.972   9.905  2.4857  1.6412 -1.7350
   17SAPC   C25 2179   3.492   3.105   9.747 -0.2823 -0.0862  0.2775
   17SAPC   H5R 2180   3.544   3.192   9.790  0.7327 -0.3893 -0.3067
   17SAPC   C26 2181   3.488   3.102   9.612 -0.5283 -0.2017 -0.1509
   17SAPC   H6R 2182   3.535   3.187   9.559 -2.2828  0.8273 -0.1331
   17SAPC   C27 2183   3.427   3.006   9.525 -0.4437 -0.1471  0.9407
   17SAPC   H7R 2184   3.380   2.928   9.589 -0.0869 -1.5315 -0.4566
   17SAPC   H7S 2185   3.489   2.947   9.455 -1.1285  1.0740 -0.7859
   17SAPC   C28 2186   3.315   3.083   9.447  0.9457 -0.1925  0.0638
   17SAPC   H8R 2187   3.242   3.125   9.517 -0.8384 -3.0224  0.0489
   17SAPC   C29 2188   3.305   3.088   9.316 -0.4954 -0.6293  0.0807
   17SAPC   H9R 2189   3.224   3.145   9.267 -1.5883 -0.3093  2.1384
   17SAPC  C210 2190   3.419   3.041   9.222  0.0837  0.1984 -0.0799
   17SAPC  H10R 2191   3.524   3.038   9.260 -0.7056 -0.9666  2.1444
   17SAPC  H10S 2192   3.431   3.129   9.156 -3.1735  1.2175  0.5323
   17SAPC  C211 2193   3.377   2.917   9.143 -0.5975 -0.1771 -0.9117
   17SAPC  H11R 2194   3.421   2.823   9.179 -2.1947 -0.6154 -0.0044
   17SAPC  C212 2195   3.292   2.921   9.037 -0.2909  0.7858  0.0356
   17SAPC  H12R 2196   3.259   2.829   8.987  0.1245 -0.1706  1.4693
   17SAPC  C213 2197   3.223   3.047   8.995  0.0735 -0.2788  0.8163
   17SAPC  H13R 2198   3.299   3.128   8.990 -2.0080  1.7788  0.9406
   17SAPC  H13S 2199   3.148   3.073   9.073 -2.1236 -1.3744 -0.8390
   17SAPC  C214 2200   3.157   3.041   8.858  0.5781  0.1954  0.7620
   17SAPC  H14R 2201   3.179   2.956   8.792  0.6862  0.7202  0.1146
   17SAPC  C215 2202   3.085   3.143   8.806 -0.5977 -0.4482 -0.6237
   17SAPC  H15R 2203   3.062   3.143   8.698  3.0070  2.7266 -1.5963
   17SAPC  C216 2204   3.064   3.276   8.883  0.2237  0.0274  0.1347
   17SAPC  H16R 2205   3.139   3.353   8.856  0.4883 -0.0081  0.7600
   17SAPC  H16S 2206   3.067   3.265   8.993 -0.4283  1.1535  0.2756
   17SAPC  C217 2207   2.920   3.336   8.869 -0.0926  0.5978 -0.3749
   17SAPC  H17R 2208   2.919   3.422   8.940 -0.4990  0.4377 -0.1825
   17SAPC  H17S 2209   2.845   3.271   8.918  0.0357  2.0939  1.9867
   17SAPC  C218 2210   2.866   3.368   8.732 -0.0066 -0.0730  0.4072
   17SAPC  H18R 2211   2.762   3.406   8.726 -0.2527 -0.8719 -0.7822
   17SAPC  H18S 2212   2.855   3.269   8.683  1.0814  0.4892 -1.0338
   17SAPC  C219 2213   2.952   3.464   8.644  1.3901 -0.3147  0.1927
   17SAPC  H19R 2214   3.035   3.403   8.602 -1.7406 -2.9516 -2.7711
   17SAPC  H19S 2215   2.993   3.554   8.695 -2.8235  2.1763 -0.3388
   17SAPC  C220 2216   2.884   3.516   8.519  0.7888  0.0001 -0.8318
   17SAPC  H20R 2217   2.953   3.573   8.453 -2.2697  4.7812 -0.4031
   17SAPC  H20S 2218   2.815   3.602   8.529  1.4101  0.7742 -2.7366
   17SAPC  H20T 2219   2.824   3.438   8.466 -0.0990  0.2387 -0.2068
   17SAPC   C33 2220   3.865   2.767   9.842  0.3462 -1.0009 -0.1165
   17SAPC   H3X 2221   3.945   2.690   9.838  0.0654 -1.2534 -1.3945
   17SAPC   H3Y 2222   3.885   2.853   9.910  0.6129 -1.2623  0.1442
   17SAPC   C34 2223   3.846   2.811   9.690  0.3320 -0.4440 -0.0808
   17SAPC   H4X 2224   3.771   2.893   9.697  0.0051 -0.8050  0.9534
   17SAPC   H4Y 2225   3.812   2.727   9.625 -1.0446 -1.4698  1.8472
   17SAPC   C35 2226   3.983   2.866   9.641 -0.1584  0.2375 -0.1623
   17SAPC   H5X 2227   4.050   2.783   9.673 -2.7021 -1.7425  0.4115
   17SAPC   H5Y 2228   4.006   2.952   9.706  1.3967 -0.7653  0.6765
   17SAPC   C36 2229   3.985   2.904   9.496 -0.4974 -0.4584  0.3838
   17SAPC   H6X 2230   3.919   2.842   9.432 -1.4234  0.3016  0.5800
   17SAPC   H6Y 2231   4.082   2.902   9.443 -1.9984 -3.0099 -2.5980
   17SAPC   C37 2232   3.934   3.046   9.466 -0.5330 -0.1270 -0.2024
   17SAPC   H7X 2233   3.993   3.121   9.524 -0.9104  0.3013 -0.3678
   17SAPC   H7Y 2234   3.831   3.060   9.505 -0.6829 -0.7319 -0.3748
   17SAPC   C38 2235   3.946   3.074   9.317  0.3078  0.1376  0.0255
   17SAPC   H8X 2236   4.047   3.051   9.276 -0.4735 -4.3214  0.0493
   17SAPC   H8Y 2237   3.920   3.181   9.304 -0.2395  0.1806  1.3378
   17SAPC   C39 2238   3.851   2.985   9.228  0.0677  0.1714  0.0077
   17SAPC   H9X 2239   3.758   2.973   9.287  0.0555  0.8299  0.1349
   17SAPC   H9Y 2240   3.887   2.883   9.204 -0.3815  0.7925 -3.9056
   17SAPC  C310 2241   3.820   3.039   9.090 -0.7420  0.1995 -0.5519
   17SAPC  H10X 2242   3.916   3.065   9.041  0.6912  0.5675  2.2289
   17SAPC  H10Y 2243   3.752   3.127   9.098 -0.1289  0.6406 -0.0721
   17SAPC  C311 2244   3.745   2.932   9.016 -0.2471 -0.3408  1.1399
   17SAPC  H11X 2245   3.655   2.900   9.073 -1.0344  2.0959  1.3905
   17SAPC  H11Y 2246   3.818   2.850   9.004  0.8511  0.8201 -0.5252
   17SAPC  C312 2247   3.697   2.968   8.877  0.3870 -0.3487 -0.7887
   17SAPC  H12X 2248   3.789   2.977   8.816  1.4018 -2.3653  0.3737
   17SAPC  H12Y 2249   3.645   3.067   8.867 -1.0611 -1.3058 -4.2267
   17SAPC  C313 2250   3.599   2.865   8.817 -0.0531  0.4148  0.1373
   17SAPC  H13X 2251   3.526   2.835   8.894  1.2754 -3.5126  0.0683
   17SAPC  H13Y 2252   3.657   2.771   8.808 -0.4704 -0.0908  2.3607
   17SAPC  C314 2253   3.520   2.915   8.689  0.3099 -0.3301 -0.1881
   17SAPC  H14X 2254   3.477   3.009   8.732 -1.6145 -1.0338 -0.4838
   17SAPC  H14Y 2255   3.432   2.852   8.664 -0.3038  0.6957 -0.6738
   17SAPC  C315 2256   3.604   2.957   8.567  0.1810 -0.2999  0.4088
   17SAPC  H15X 2257   3.691   2.888   8.559  0.3003  0.0005 -1.4528
   17SAPC  H15Y 2258   3.653   3.055   8.583 -1.3032  0.5518  0.0100
   17SAPC  C316 2259   3.525   2.941   8.432 -0.9176 -0.3334 -0.7139
   17SAPC  H16X 2260   3.431   2.999   8.436 -0.8892 -0.3337  0.0129
   17SAPC  H16Y 2261   3.510   2.833   8.413  1.7814 -0.7299 -1.1350
   17SAPC  C317 2262   3.617   2.988   8.318 -0.2935  0.2122 -0.1581
   17SAPC  H17X 2263   3.662   3.086   8.345  0.4947 -0.4213  0.8983
   17SAPC  H17Y 2264   3.552   3.014   8.232 -0.4127  1.2809  0.2376
   17SAPC  C318 2265   3.738   2.887   8.282  0.1825 -0.0536  0.3133
   17SAPC  H18X 2266   3.816   2.926   8.213  0.1358  0.7829  0.7163
   17SAPC  H18Y 2267   3.803   2.870   8.371  3.5236 -0.7759 -2.0650
   17SAPC  H18Z 2268   3.699   2.787   8.255 -1.0804  0.1738  1.2234
   18SAPC     N 2269   3.730   3.529  10.511  0.0583 -0.1956 -0.8370
   18SAPC   C12 2270   3.883   3.525  10.525  0.4194  0.4557  0.3704
   18SAPC  H12A 2271   3.928   3.515  10.427 -0.6457  0.6252 -0.1474
   18SAPC  H12B 2272   3.906   3.429  10.570 -2.1248 -1.5326 -2.1420
   18SAPC   C13 2273   3.684   3.658  10.445 -0.2100 -0.6276  0.5269
   18SAPC  H13A 2274   3.576   3.663  10.446 -0.1663  2.0999  0.4321
   18SAPC  H13B 2275   3.708   3.748  10.500  0.1859  0.7210 -1.7441
   18SAPC  H13C 2276   3.721   3.674  10.345  0.3496  1.3465  0.9889
   18SAPC   C14 2277   3.678   3.407  10.431 -0.3715  0.4917  0.3060
   18SAPC  H14A 2278   3.735   3.397  10.340  1.1032 -0.8098  1.3082
   18SAPC  H14B 2279   3.689   3.311  10.480 -1.2561 -0.4428 -1.2735
   18SAPC  H14C 2280   3.574   3.425  10.408  0.0917  1.1542 -1.4059
   18SAPC   C15 2281   3.667   3.507  10.646 -0.5610  0.0537  0.3138
   18SAPC  H15A 2282   3.659   3.400  10.652  2.4685 -0.5256 -2.8698
   18SAPC  H15B 2283   3.718   3.557  10.727 -1.6436  0.4627  0.7625
   18SAPC  H15C 2284   3.564   3.540  10.642 -1.1986 -1.7797  0.7306
   18SAPC   C11 2285   3.957   3.645  10.596 -0.3476 -0.0789  0.2283
   18SAPC  H11A 2286   4.059   3.603  10.607  0.5263  2.0162  0.7487
   18SAPC  H11B 2287   3.910   3.654  10.696  0.8512 -2.1850  1.0518
   18SAPC     P 2288   4.084   3.836  10.465 -0.5144 -0.1574  0.1510
   18SAPC   O13 2289   4.050   3.982  10.463 -0.6871 -0.4320 -0.0953
   18SAPC   O14 2290   4.210   3.794  10.523 -0.7383 -0.2573 -0.0840
   18SAPC   O12 2291   3.953   3.766  10.518 -0.0147  0.0210 -0.2142
   18SAPC   O11 2292   4.078   3.794  10.315 -0.1533  0.1346  1.0976
   18SAPC    C1 2293   3.970   3.805  10.223 -0.1645  0.3353  0.2261
   18SAPC    HA 2294   3.944   3.707  10.176  0.9201  1.0311 -1.9498
   18SAPC    HB 2295   3.879   3.845  10.273  0.3586  1.6735  0.1397
   18SAPC    C2 2296   4.009   3.886  10.094 -0.2887 -0.0193  0.1588
   18SAPC    HS 2297   3.924   3.892  10.023  1.1376  2.7795 -1.4993
   18SAPC   O21 2298   4.128   3.838  10.027  0.2665  0.4916  0.1722
   18SAPC   C21 2299   4.134   3.872   9.901 -0.2410  0.1492  0.1338
   18SAPC   O22 2300   4.048   3.923   9.839 -0.3081  0.0751  0.3760
   18SAPC   C22 2301   4.276   3.830   9.846 -0.1794 -0.1003  0.3249
   18SAPC   H2R 2302   4.342   3.919   9.858 -1.3320  1.3149 -2.7588
   18SAPC   H2S 2303   4.320   3.753   9.913 -1.1930  1.3156  2.7425
   18SAPC    C3 2304   4.033   4.028  10.141  0.2434 -0.6620  0.0627
   18SAPC    HX 2305   4.141   4.030  10.166  0.3121 -0.5298 -0.2303
   18SAPC    HY 2306   3.981   4.048  10.237  0.0875  1.9236 -0.4795
   18SAPC   O31 2307   4.000   4.124  10.036 -0.1107 -0.4122  0.3226
   18SAPC   C31 2308   3.877   4.174  10.038  0.5619  0.0842  0.1395
   18SAPC   O32 2309   3.793   4.147  10.122  0.3703  0.1805 -0.1860
   18SAPC   C32 2310   3.848   4.246   9.906  0.6720  0.3371 -0.1143
   18SAPC   H2X 2311   3.746   4.216   9.874  0.8689 -1.0541  0.4807
   18SAPC   H2Y 2312   3.920   4.211   9.829 -1.7015 -2.1460 -1.3805
   18SAPC   C23 2313   4.286   3.784   9.695  0.3685  0.9804  0.1686
   18SAPC   H3R 2314   4.192   3.729   9.673  1.1995 -2.1028  3.2759
   18SAPC   H3S 2315   4.363   3.703   9.692 -0.6016  0.0552 -0.5028
   18SAPC   C24 2316   4.305   3.890   9.590 -0.1120  0.9108  0.7907
   18SAPC   H4R 2317   4.372   3.846   9.512  0.8346 -1.9042  3.0460
   18SAPC   H4S 2318   4.376   3.963   9.635  3.0510 -2.1224  1.1813
   18SAPC   C25 2319   4.177   3.953   9.536 -0.5912 -0.4935 -0.2542
   18SAPC   H5R 2320   4.109   3.994   9.612 -1.9444 -0.5629 -1.3994
   18SAPC   C26 2321   4.130   3.951   9.406  0.0199  0.6902 -0.2678
   18SAPC   H6R 2322   4.029   3.988   9.381 -0.6623 -0.6049  0.4488
   18SAPC   C27 2323   4.202   3.888   9.286 -0.7577  0.0293 -1.3671
   18SAPC   H7R 2324   4.305   3.852   9.311 -0.7587 -0.7988 -2.4702
   18SAPC   H7S 2325   4.213   3.968   9.211 -1.0226  1.1559 -0.2410
   18SAPC   C28 2326   4.124   3.771   9.240  0.0218  0.5020 -0.1844
   18SAPC   H8R 2327   4.134   3.680   9.302  1.2360  1.7454  1.5440
   18SAPC   C29 2328   4.079   3.747   9.114  0.4389  0.1319  0.0257
   18SAPC   H9R 2329   4.003   3.672   9.090 -0.4984  1.0824 -0.0278
   18SAPC  C210 2330   4.095   3.841   9.001  0.1304 -0.1228 -0.3379
   18SAPC  H10R 2331   4.144   3.935   9.031 -0.5942 -0.2085  1.2678
   18SAPC  H10S 2332   3.997   3.869   8.957 -0.9041 -0.1731  1.7823
   18SAPC  C211 2333   4.175   3.772   8.899  0.0633  0.3059  0.8103
   18SAPC  H11R 2334   4.279   3.750   8.927  0.3080 -2.8948 -2.0098
   18SAPC  C212 2335   4.144   3.752   8.764  0.5077  0.2161  0.4064
   18SAPC  H12R 2336   4.226   3.701   8.711  0.2293  0.0413  0.1436
   18SAPC  C213 2337   4.012   3.789   8.694  0.1203 -0.3978  0.3067
   18SAPC  H13R 2338   3.929   3.833   8.753  0.5533  0.9394 -0.0338
   18SAPC  H13S 2339   3.968   3.696   8.653  1.9853 -0.5361 -1.5667
   18SAPC  C214 2340   4.054   3.877   8.577  0.6168  0.2259  0.3131
   18SAPC  H14R 2341   4.075   3.982   8.604  0.2929  0.9898 -2.1485
   18SAPC  C215 2342   4.064   3.829   8.454 -0.2215 -0.2142 -0.1023
   18SAPC  H15R 2343   4.074   3.909   8.379 -2.1210 -1.2564 -1.5769
   18SAPC  C216 2344   4.038   3.689   8.406  0.4511 -0.2357 -0.3156
   18SAPC  H16R 2345   3.939   3.651   8.437  0.3495 -0.3104 -0.7220
   18SAPC  H16S 2346   4.118   3.623   8.445 -0.1650  1.1347  3.6963
   18SAPC  C217 2347   4.054   3.699   8.254  0.1259  0.2700  0.0975
   18SAPC  H17R 2348   4.159   3.724   8.228  0.3589 -0.9425 -0.2114
   18SAPC  H17S 2349   3.993   3.784   8.216  0.1964  1.2957  2.1609
   18SAPC  C218 2350   4.032   3.567   8.181  0.4452  0.1374 -0.0973
   18SAPC  H18R 2351   4.107   3.496   8.220  1.6093 -0.1161 -2.5613
   18SAPC  H18S 2352   4.064   3.565   8.074  0.9473  1.3688  0.0185
   18SAPC  C219 2353   3.893   3.507   8.205  0.3044  0.5448  0.4832
   18SAPC  H19R 2354   3.887   3.484   8.314  2.0599  1.2359  0.7554
   18SAPC  H19S 2355   3.907   3.416   8.143 -0.6085 -0.3219  1.4989
   18SAPC  C220 2356   3.784   3.591   8.137 -0.2650 -0.0598 -0.1108
   18SAPC  H20R 2357   3.776   3.692   8.183  0.0708 -0.3450  0.5925
   18SAPC  H20S 2358   3.684   3.544   8.148 -0.5307  0.2052 -1.2317
   18SAPC  H20T 2359   3.803   3.599   8.027  0.8583 -5.1768 -0.5412
   18SAPC   C33 2360   3.852   4.403   9.917 -0.7095 -0.3349  0.2502
   18SAPC   H3X 2361   3.957   4.419   9.951  0.0686 -0.2156 -2.0247
   18SAPC   H3Y 2362   3.779   4.435   9.994  0.0938 -0.9065  1.2756
   18SAPC   C34 2363   3.820   4.479   9.787 -0.0719 -0.0356 -0.5168
   18SAPC   H4X 2364   3.902   4.461   9.715  1.5578  1.3176  0.9220
   18SAPC   H4Y 2365   3.812   4.588   9.807 -1.6545 -0.3939  1.0652
   18SAPC   C35 2366   3.687   4.427   9.730 -0.0873 -0.8396  0.0478
   18SAPC   H5X 2367   3.621   4.421   9.819 -1.3871  0.5039 -0.7947
   18SAPC   H5Y 2368   3.702   4.327   9.683 -2.8538 -1.3883  0.1919
   18SAPC   C36 2369   3.633   4.527   9.628  0.3394 -0.2106  0.8474
   18SAPC   H6X 2370   3.636   4.630   9.669 -0.1344 -0.5680  1.7932
   18SAPC   H6Y 2371   3.532   4.491   9.598  1.3591 -1.6442 -1.0730
   18SAPC   C37 2372   3.721   4.532   9.502 -0.3148  0.0890  0.5252
   18SAPC   H7X 2373   3.755   4.429   9.479  1.6370  0.2659  2.3416
   18SAPC   H7Y 2374   3.820   4.578   9.519  1.1985 -2.5140 -0.6704
   18SAPC   C38 2375   3.655   4.599   9.378 -0.2709  0.2183  0.3166
   18SAPC   H8X 2376   3.637   4.706   9.404 -0.6089 -0.1431  1.7028
   18SAPC   H8Y 2377   3.556   4.561   9.345 -0.1724  0.9171 -0.8511
   18SAPC   C39 2378   3.746   4.599   9.256  0.3779 -0.3108  0.5984
   18SAPC   H9X 2379   3.788   4.500   9.233 -0.9651 -0.5496 -1.0286
   18SAPC   H9Y 2380   3.828   4.671   9.275  0.7918 -1.5000  3.9950
   18SAPC  C310 2381   3.660   4.641   9.141 -0.2309  0.5238 -0.9523
   18SAPC  H10X 2382   3.583   4.717   9.166 -0.8468  0.3482 -2.2438
   18SAPC  H10Y 2383   3.610   4.551   9.098 -0.1379 -0.1609  0.3295
   18SAPC  C311 2384   3.742   4.702   9.037  0.7700  0.2165 -0.7149
   18SAPC  H11X 2385   3.831   4.637   9.026  1.0195  0.5681 -0.7694
   18SAPC  H11Y 2386   3.777   4.800   9.075  0.5569 -0.8068  2.3985
   18SAPC  C312 2387   3.659   4.716   8.905 -0.2533 -0.6646  0.0120
   18SAPC  H12X 2388   3.582   4.795   8.913 -0.2583 -0.6977  0.2799
   18SAPC  H12Y 2389   3.611   4.617   8.886 -0.3256 -0.1925 -2.7401
   18SAPC  C313 2390   3.742   4.743   8.776  0.2312 -0.3338 -0.2837
   18SAPC  H13X 2391   3.668   4.747   8.694 -0.1725  2.3318  0.1280
   18SAPC  H13Y 2392   3.812   4.656   8.769  0.4722 -0.4540  2.4042
   18SAPC  C314 2393   3.828   4.862   8.792 -0.3627 -0.8236 -0.4218
   18SAPC  H14X 2394   3.899   4.862   8.877 -0.7337  0.7753 -0.0864
   18SAPC  H14Y 2395   3.761   4.933   8.845  0.5779 -0.9539  0.9826
   18SAPC  C315 2396   3.886   4.921   8.662 -0.0822 -0.4232  0.5232
   18SAPC  H15X 2397   3.937   5.015   8.690 -1.8064  0.4594  0.7893
   18SAPC  H15Y 2398   3.805   4.952   8.592 -1.1148 -1.0117  1.4316
   18SAPC  C316 2399   3.978   4.820   8.600  0.7042  0.1196  0.1574
   18SAPC  H16X 2400   3.915   4.735   8.567 -0.1890  0.9867 -0.4247
   18SAPC  H16Y 2401   4.041   4.779   8.681 -1.3780 -1.0331  1.2862
   18SAPC  C317 2402   4.063   4.867   8.482 -0.3724  0.4301  0.2086
   18SAPC  H17X 2403   4.005   4.930   8.412  0.6889  0.7982 -0.3741
   18SAPC  H17Y 2404   4.092   4.780   8.419 -0.8507  0.2330  0.2588
   18SAPC  C318 2405   4.188   4.938   8.542 -0.1191  0.4496  0.4788
   18SAPC  H18X 2406   4.236   4.873   8.619 -0.6215  0.4007  0.7513
   18SAPC  H18Y 2407   4.172   5.034   8.594  2.7174  0.7947  0.8894
   18SAPC  H18Z 2408   4.259   4.960   8.459 -1.1781  0.1697 -0.5255
   19SAPC     N 2409   6.567   2.889  10.924 -0.4689  0.1635  0.1840
   19SAPC   C12 2410   6.477   2.848  10.809 -0.2811 -0.1597 -0.4088
   19SAPC  H12A 2411   6.540   2.855  10.721  1.4190  1.3985  0.8627
   19SAPC  H12B 2412   6.398   2.921  10.798  1.1321  1.3881 -0.6895
   19SAPC   C13 2413   6.587   3.041  10.917  0.7759 -0.4551 -0.5380
   19SAPC  H13A 2414   6.660   3.071  10.991 -0.3173 -0.2026  0.4591
   19SAPC  H13B 2415   6.625   3.087  10.827 -0.1159  1.8610  0.2120
   19SAPC  H13C 2416   6.493   3.089  10.937 -0.3301 -2.9957  0.8559
   19SAPC   C14 2417   6.521   2.848  11.061 -0.3146 -0.1983  0.0889
   19SAPC  H14A 2418   6.514   2.742  11.082  0.9962 -0.4909 -0.8066
   19SAPC  H14B 2419   6.586   2.882  11.141  0.5690  3.6569 -1.9943
   19SAPC  H14C 2420   6.425   2.891  11.086 -0.5350 -0.9958  0.6293
   19SAPC   C15 2421   6.707   2.821  10.907 -1.0769  0.4337 -0.7316
   19SAPC  H15A 2422   6.700   2.714  10.896  0.8084  0.1642  0.3598
   19SAPC  H15B 2423   6.749   2.860  10.815  1.9309  1.2872  0.8520
   19SAPC  H15C 2424   6.782   2.844  10.981  0.1587 -1.4655 -1.3256
   19SAPC   C11 2425   6.419   2.717  10.818  0.5271 -0.0307  0.6437
   19SAPC  H11A 2426   6.505   2.648  10.830  2.4477  2.0678 -0.2401
   19SAPC  H11B 2427   6.385   2.689  10.716 -1.7471  0.1150  1.3043
   19SAPC     P 2428   6.167   2.734  10.875  0.1163  0.1417  0.1792
   19SAPC   O13 2429   6.117   2.629  10.791  0.4401 -0.2672  0.3255
   19SAPC   O14 2430   6.100   2.768  11.001  0.1236 -0.3059 -0.4385
   19SAPC   O12 2431   6.317   2.701  10.913  0.1406  0.0863  0.3331
   19SAPC   O11 2432   6.193   2.864  10.791  0.6817  0.4015 -0.4889
   19SAPC    C1 2433   6.120   2.984  10.800 -0.6551 -0.0072 -0.3202
   19SAPC    HA 2434   6.044   2.972  10.880 -0.0824 -0.0582  0.2260
   19SAPC    HB 2435   6.188   3.059  10.846  0.1499  1.4476 -3.5494
   19SAPC    C2 2436   6.063   3.043  10.669  0.7328 -0.0884  0.1171
   19SAPC    HS 2437   6.031   3.149  10.686 -0.5042 -0.2757 -0.8498
   19SAPC   O21 2438   5.947   2.966  10.621 -0.1199 -0.3165  0.0925
   19SAPC   C21 2439   5.827   3.009  10.663  0.4708 -0.4612  0.1373
   19SAPC   O22 2440   5.812   3.084  10.759 -0.0785 -0.1860  0.2407
   19SAPC   C22 2441   5.723   2.955  10.562 -0.3248 -0.6175 -0.0141
   19SAPC   H2R 2442   5.745   2.859  10.511  1.4871 -0.1595 -0.1433
   19SAPC   H2S 2443   5.635   2.925  10.623 -0.0050  0.7565  1.1741
   19SAPC    C3 2444   6.185   3.060  10.574  0.8633 -0.1120  0.3064
   19SAPC    HX 2445   6.222   2.957  10.554 -1.5883 -0.6184 -2.3448
   19SAPC    HY 2446   6.255   3.120  10.635 -0.5771  1.7289  0.2223
   19SAPC   O31 2447   6.131   3.130  10.457 -0.0723 -0.7910  0.3676
   19SAPC   C31 2448   6.229   3.165  10.378 -0.5788 -0.1240 -0.3054
   19SAPC   O32 2449   6.350   3.141  10.396  0.1265  0.3345  0.5455
   19SAPC   C32 2450   6.170   3.235  10.258  0.0168  0.5612  0.0903
   19SAPC   H2X 2451   6.062   3.249  10.278  0.4948  3.4256  1.1445
   19SAPC   H2Y 2452   6.195   3.171  10.171 -0.4515  1.3478 -0.6349
   19SAPC   C23 2453   5.680   3.055  10.448  0.2644  0.3024 -0.1167
   19SAPC   H3R 2454   5.644   3.148  10.498 -1.2745  0.1954 -0.9776
   19SAPC   H3S 2455   5.593   3.011  10.395  1.0581 -0.4375 -0.8364
   19SAPC   C24 2456   5.792   3.096  10.350  0.0360 -0.0213  0.0232
   19SAPC   H4R 2457   5.870   3.162  10.394 -0.7432  1.1426 -0.3076
   19SAPC   H4S 2458   5.746   3.150  10.265  1.9400 -0.1827 -1.1645
   19SAPC   C25 2459   5.866   2.974  10.291  0.0654 -0.0899  0.3712
   19SAPC   H5R 2460   5.900   2.901  10.367  0.9417 -1.2231 -1.0661
   19SAPC   C26 2461   5.871   2.939  10.159  0.4014  0.4488 -0.6324
   19SAPC   H6R 2462   5.909   2.839  10.134 -0.5829 -0.2639  0.5804
   19SAPC   C27 2463   5.819   3.019  10.040  0.3894  0.5131  1.0550
   19SAPC   H7R 2464   5.741   3.090  10.073  0.0844 -0.0913  1.6774
   19SAPC   H7S 2465   5.757   2.955   9.973  0.3929  0.6549  0.9178
   19SAPC   C28 2466   5.929   3.094   9.968 -0.4389 -0.5028  0.8562
   19SAPC   H8R 2467   5.988   3.167  10.024  0.0012 -1.0547  1.1189
   19SAPC   C29 2468   5.952   3.097   9.834 -0.1100 -0.4775  0.4791
   19SAPC   H9R 2469   6.030   3.166   9.798 -1.3718  0.7444 -0.0164
   19SAPC  C210 2470   5.883   3.030   9.716  0.0714  0.6824 -1.2216
   19SAPC  H10R 2471   5.790   2.976   9.746 -1.1417  3.1216 -0.3211
   19SAPC  H10S 2472   5.961   2.963   9.674  0.2602  0.3546 -0.3813
   19SAPC  C211 2473   5.833   3.138   9.620  0.0876 -0.8811  0.0656
   19SAPC  H11R 2474   5.757   3.204   9.665 -0.4995 -2.4597  1.5245
   19SAPC  C212 2475   5.849   3.140   9.486  0.1499 -0.2163 -0.3328
   19SAPC  H12R 2476   5.815   3.218   9.415 -0.1223 -1.1718 -1.2785
   19SAPC  C213 2477   5.929   3.029   9.418  0.5440 -0.2147  0.1934
   19SAPC  H13R 2478   5.875   3.007   9.324 -1.8705 -0.8879  1.6275
   19SAPC  H13S 2479   5.914   2.935   9.476 -0.1391  0.5823  1.3525
   19SAPC  C214 2480   6.078   3.042   9.409  0.4354 -0.1280  0.7117
   19SAPC  H14R 2481   6.130   2.989   9.491 -0.4770 -1.3144  0.5417
   19SAPC  C215 2482   6.146   3.095   9.309 -0.6362 -0.2006  0.3727
   19SAPC  H15R 2483   6.256   3.098   9.312 -0.6628 -0.0893  2.3784
   19SAPC  C216 2484   6.083   3.158   9.186 -0.4427  0.0658  0.3882
   19SAPC  H16R 2485   6.137   3.255   9.175 -1.0237  1.0044  4.3807
   19SAPC  H16S 2486   5.979   3.187   9.209 -1.1472 -0.7272 -1.5587
   19SAPC  C217 2487   6.100   3.081   9.058  0.3597  0.5294 -0.3871
   19SAPC  H17R 2488   6.051   2.982   9.072  1.2047 -0.0294 -1.2901
   19SAPC  H17S 2489   6.201   3.041   9.037 -1.1216 -2.2477 -3.1683
   19SAPC  C218 2490   6.035   3.139   8.929  0.0523  0.0854 -0.4198
   19SAPC  H18R 2491   6.073   3.074   8.847 -1.5985 -1.2293 -0.1901
   19SAPC  H18S 2492   6.068   3.244   8.914  0.5791  0.1011  0.7370
   19SAPC  C219 2493   5.887   3.128   8.921  0.3146 -0.7658 -0.1348
   19SAPC  H19R 2494   5.856   3.184   9.012  2.0427  0.4630 -0.2440
   19SAPC  H19S 2495   5.850   3.025   8.939 -0.4698 -0.4824 -0.0812
   19SAPC  C220 2496   5.829   3.184   8.788 -0.2865 -0.3765  0.1033
   19SAPC  H20R 2497   5.863   3.108   8.715 -0.6521 -1.9632  1.5163
   19SAPC  H20S 2498   5.871   3.285   8.768 -1.3478  0.1010  0.1673
   19SAPC  H20T 2499   5.718   3.186   8.800 -0.5053 -0.2352 -1.6718
   19SAPC   C33 2500   6.220   3.380  10.222  0.0251  0.1372  0.4150
   19SAPC   H3X 2501   6.328   3.385  10.199  0.4604  1.2933  2.4491
   19SAPC   H3Y 2502   6.201   3.451  10.306 -0.7917 -0.1683  0.4949
   19SAPC   C34 2503   6.140   3.423  10.094  0.2848  0.3104 -0.3983
   19SAPC   H4X 2504   6.035   3.431  10.127  0.0704 -0.3439 -0.8939
   19SAPC   H4Y 2505   6.138   3.337  10.024 -0.8231 -0.6387  0.7491
   19SAPC   C35 2506   6.179   3.555  10.022 -0.2816  0.2952 -0.3077
   19SAPC   H5X 2507   6.285   3.571   9.993 -0.7897  0.8762 -1.9185
   19SAPC   H5Y 2508   6.162   3.637  10.094 -0.7137  0.6737 -0.8375
   19SAPC   C36 2509   6.079   3.585   9.902 -0.3147  1.0450 -0.8054
   19SAPC   H6X 2510   6.074   3.696   9.904 -0.4945  1.0261 -0.0201
   19SAPC   H6Y 2511   5.977   3.563   9.941  0.7164  0.4207  1.7410
   19SAPC   C37 2512   6.110   3.522   9.769  0.5041 -0.4454  0.0697
   19SAPC   H7X 2513   6.011   3.511   9.718 -0.2907  3.4973  0.4133
   19SAPC   H7Y 2514   6.156   3.421   9.768  1.1390 -0.2844 -4.1495
   19SAPC   C38 2515   6.194   3.614   9.688 -0.3436  0.6503 -0.1537
   19SAPC   H8X 2516   6.281   3.650   9.747  0.4785 -3.7759  1.8044
   19SAPC   H8Y 2517   6.133   3.704   9.666  2.6672  2.6072 -1.0413
   19SAPC   C39 2518   6.236   3.572   9.551  0.5066  0.3220  0.5571
   19SAPC   H9X 2519   6.258   3.464   9.556  2.7599  0.7690  1.5872
   19SAPC   H9Y 2520   6.332   3.616   9.517  1.0914 -1.1867  0.1908
   19SAPC  C310 2521   6.120   3.594   9.443 -0.2916 -0.6320 -0.3893
   19SAPC  H10X 2522   6.121   3.705   9.444  0.4373 -0.6356 -0.2621
   19SAPC  H10Y 2523   6.029   3.548   9.489 -1.1788  1.8207  0.5048
   19SAPC  C311 2524   6.156   3.523   9.316  0.4027 -0.1698 -0.0144
   19SAPC  H11X 2525   6.069   3.531   9.248 -1.9673 -1.1635  2.7086
   19SAPC  H11Y 2526   6.164   3.416   9.343  0.9820 -0.2692 -0.5528
   19SAPC  C312 2527   6.281   3.578   9.236  0.3884 -0.1671  0.3665
   19SAPC  H12X 2528   6.374   3.544   9.286 -0.9105 -1.6658  1.8667
   19SAPC  H12Y 2529   6.271   3.688   9.227  1.1104  0.0201  1.6240
   19SAPC  C313 2530   6.292   3.521   9.092 -0.8039  0.5501  1.0358
   19SAPC  H13X 2531   6.256   3.416   9.090 -0.9841  0.6194  0.0163
   19SAPC  H13Y 2532   6.395   3.516   9.050 -0.5289  1.4214  1.5738
   19SAPC  C314 2533   6.213   3.602   8.992 -0.6007 -0.5867 -0.3316
   19SAPC  H14X 2534   6.150   3.670   9.053 -0.1269 -1.6102  1.3623
   19SAPC  H14Y 2535   6.152   3.534   8.929 -1.5425  0.3313 -0.4314
   19SAPC  C315 2536   6.308   3.699   8.909  0.1467 -0.6681 -0.1065
   19SAPC  H15X 2537   6.395   3.647   8.862  1.4045  0.6485  0.6931
   19SAPC  H15Y 2538   6.357   3.777   8.971 -3.4803  0.4930  1.5749
   19SAPC  C316 2539   6.230   3.758   8.794  0.7403 -0.2203  0.6918
   19SAPC  H16X 2540   6.140   3.808   8.835 -0.8798 -2.8464  0.5724
   19SAPC  H16Y 2541   6.200   3.674   8.727  0.4521  0.7772 -0.4450
   19SAPC  C317 2542   6.311   3.861   8.717 -0.3324  0.6469 -0.4366
   19SAPC  H17X 2543   6.388   3.799   8.666  0.6671  1.1163  0.4590
   19SAPC  H17Y 2544   6.370   3.920   8.790  0.1843 -0.2259 -0.1333
   19SAPC  C318 2545   6.231   3.955   8.628  0.1211  0.6999  0.4884
   19SAPC  H18X 2546   6.123   3.930   8.620  0.0635  0.2835  2.1085
   19SAPC  H18Y 2547   6.280   3.961   8.529  2.7410  0.4947  1.7003
   19SAPC  H18Z 2548   6.234   4.058   8.670 -2.1697  0.5575  1.1344
   20SAPC     N 2549   4.549   0.461  11.229 -0.4088  0.4975 -0.5609
   20SAPC   C12 2550   4.508   0.561  11.122 -0.0741 -0.1386  0.2347
   20SAPC  H12A 2551   4.401   0.564  11.130  0.0723  3.0054  2.5000
   20SAPC  H12B 2552   4.533   0.517  11.026 -0.4860 -1.4189  0.6875
   20SAPC   C13 2553   4.472   0.335  11.213 -0.5844  0.4561 -0.2866
   20SAPC  H13A 2554   4.486   0.273  11.301  2.3442 -0.6953 -1.4281
   20SAPC  H13B 2555   4.371   0.371  11.199 -1.0524 -1.1708 -1.2750
   20SAPC  H13C 2556   4.502   0.289  11.120  0.2311 -0.8394  0.5815
   20SAPC   C14 2557   4.694   0.432  11.229  0.1352 -0.0510 -0.2037
   20SAPC  H14A 2558   4.746   0.526  11.238  2.1082 -1.0722 -0.4148
   20SAPC  H14B 2559   4.730   0.360  11.300  1.0467  0.6571  0.0644
   20SAPC  H14C 2560   4.736   0.403  11.134  1.9984  0.8827  0.3022
   20SAPC   C15 2561   4.521   0.528  11.363 -0.1736  0.5700 -0.0907
   20SAPC  H15A 2562   4.416   0.541  11.385 -0.2153  2.2454 -1.1242
   20SAPC  H15B 2563   4.559   0.466  11.443 -0.8456  0.8475  0.4630
   20SAPC  H15C 2564   4.569   0.625  11.367  1.0000 -0.0171  0.7737
   20SAPC   C11 2565   4.557   0.704  11.136 -0.5710  0.0328 -0.1377
   20SAPC  H11A 2566   4.520   0.757  11.226 -1.5868 -0.3413 -0.3197
   20SAPC  H11B 2567   4.518   0.756  11.045  1.5683  0.5302 -0.8239
   20SAPC     P 2568   4.786   0.802  11.072 -0.0419  0.1694 -0.0397
   20SAPC   O13 2569   4.751   0.928  11.141 -0.3884 -0.4127 -0.3000
   20SAPC   O14 2570   4.924   0.754  11.095  0.2325 -0.1439 -0.2974
   20SAPC   O12 2571   4.697   0.696  11.130  0.2895  0.1074 -0.0552
   20SAPC   O11 2572   4.748   0.799  10.914  0.3302 -0.4597 -0.1974
   20SAPC    C1 2573   4.782   0.700  10.825 -0.0480  0.0978  0.5568
   20SAPC    HA 2574   4.787   0.604  10.880  0.1228 -0.4125 -0.3399
   20SAPC    HB 2575   4.705   0.680  10.748  1.4893 -2.7315 -0.4135
   20SAPC    C2 2576   4.922   0.724  10.752 -0.6090  0.5896  0.6882
   20SAPC    HS 2577   4.989   0.749  10.837 -0.3824 -4.0591  2.1742
   20SAPC   O21 2578   4.909   0.837  10.662 -0.7097  0.7057  0.0867
   20SAPC   C21 2579   4.863   0.813  10.546  0.9396  0.6376  0.5280
   20SAPC   O22 2580   4.835   0.698  10.502  0.3955 -0.5518  0.6438
   20SAPC   C22 2581   4.846   0.941  10.465  0.4222 -0.6517  0.5269
   20SAPC   H2R 2582   4.858   1.030  10.529 -1.1282  1.2288 -1.6345
   20SAPC   H2S 2583   4.923   0.938  10.384 -0.0968  2.1576 -0.1871
   20SAPC    C3 2584   4.996   0.601  10.690 -0.5645 -0.8878 -0.4485
   20SAPC    HX 2585   4.924   0.537  10.634  0.3977 -1.3553 -1.1818
   20SAPC    HY 2586   5.038   0.545  10.777  2.2233  3.2317  1.1555
   20SAPC   O31 2587   5.106   0.636  10.597 -0.4477  0.2095 -0.0320
   20SAPC   C31 2588   5.143   0.542  10.510  0.2338  0.4444 -0.5521
   20SAPC   O32 2589   5.113   0.424  10.506  0.0042  0.5190  0.2522
   20SAPC   C32 2590   5.232   0.619  10.405  0.7743  0.0659 -0.1072
   20SAPC   H2X 2591   5.323   0.655  10.457  0.8973 -1.2675  0.6601
   20SAPC   H2Y 2592   5.172   0.708  10.376 -1.5435 -0.8799  1.4728
   20SAPC   C23 2593   4.709   0.944  10.386 -0.6938 -0.4407 -0.1148
   20SAPC   H3R 2594   4.626   0.955  10.459 -0.7881  1.0129 -0.4061
   20SAPC   H3S 2595   4.711   0.850  10.327 -2.2154 -0.5939  0.0495
   20SAPC   C24 2596   4.708   1.057  10.287  0.2635  0.2046 -0.2392
   20SAPC   H4R 2597   4.783   1.051  10.205 -1.6756 -0.5751 -2.0499
   20SAPC   H4S 2598   4.723   1.156  10.334 -0.3256  1.0750 -1.7821
   20SAPC   C25 2599   4.572   1.056  10.224 -0.5600 -0.4492  0.4282
   20SAPC   H5R 2600   4.489   1.050  10.296 -0.7962 -0.6461  0.1468
   20SAPC   C26 2601   4.537   1.049  10.093 -0.1576  0.1624  0.7831
   20SAPC   H6R 2602   4.429   1.032  10.074  0.3437 -0.3208 -2.1603
   20SAPC   C27 2603   4.629   1.056   9.971 -0.7102  0.8384  0.4340
   20SAPC   H7R 2604   4.694   1.145   9.986  0.6282 -0.1384  0.5111
   20SAPC   H7S 2605   4.560   1.073   9.885 -2.0927 -2.8482  0.6328
   20SAPC   C28 2606   4.719   0.938   9.942  0.9600 -0.2294  0.3453
   20SAPC   H8R 2607   4.808   0.925  10.005  1.8806 -0.8068 -1.0372
   20SAPC   C29 2608   4.686   0.841   9.852  0.1392 -0.0133 -0.3770
   20SAPC   H9R 2609   4.752   0.756   9.826  1.7422  1.4570 -1.3835
   20SAPC  C210 2610   4.556   0.837   9.775 -0.0986 -0.0237  0.2752
   20SAPC  H10R 2611   4.474   0.868   9.843  0.4829 -2.5736  2.2753
   20SAPC  H10S 2612   4.532   0.731   9.753  0.2684 -0.3388  1.3737
   20SAPC  C211 2613   4.560   0.916   9.647 -1.0653 -0.2637  0.2975
   20SAPC  H11R 2614   4.586   1.023   9.658 -0.8091 -0.3884  0.9182
   20SAPC  C212 2615   4.547   0.867   9.519  0.2818  0.6511  0.0613
   20SAPC  H12R 2616   4.541   0.928   9.428  0.1046  3.3774  1.7932
   20SAPC  C213 2617   4.512   0.735   9.476 -0.0108  0.6598  0.1326
   20SAPC  H13R 2618   4.465   0.745   9.375  1.3727 -1.2958 -0.7710
   20SAPC  H13S 2619   4.451   0.683   9.553 -0.1931  0.1672 -0.3279
   20SAPC  C214 2620   4.639   0.650   9.468 -0.2643  0.1210  0.0150
   20SAPC  H14R 2621   4.691   0.635   9.564  0.8973  0.2577 -0.5652
   20SAPC  C215 2622   4.698   0.601   9.358 -0.2251  1.1702  0.2350
   20SAPC  H15R 2623   4.785   0.536   9.374 -1.8736 -1.0992  0.4153
   20SAPC  C216 2624   4.641   0.613   9.212  0.0355  0.5192 -0.0412
   20SAPC  H16R 2625   4.720   0.589   9.138  1.9615 -0.1833  2.1307
   20SAPC  H16S 2626   4.621   0.722   9.201 -1.3528  0.4179  1.2036
   20SAPC  C217 2627   4.507   0.538   9.188 -0.0768  0.3409 -0.0520
   20SAPC  H17R 2628   4.432   0.572   9.263 -0.3182 -1.3025  0.4862
   20SAPC  H17S 2629   4.520   0.429   9.203 -1.3483  0.2586  0.5869
   20SAPC  C218 2630   4.441   0.558   9.049 -0.2783  0.6194 -0.5674
   20SAPC  H18R 2631   4.507   0.521   8.968  0.7063  0.6828  0.1786
   20SAPC  H18S 2632   4.415   0.665   9.039  1.2171  1.4320  2.6704
   20SAPC  C219 2633   4.308   0.485   9.037  0.9915  0.2849  0.3719
   20SAPC  H19R 2634   4.259   0.523   8.945  1.3548  0.8792  0.4238
   20SAPC  H19S 2635   4.247   0.498   9.129  1.9883  1.2400  0.9179
   20SAPC  C220 2636   4.306   0.327   9.022 -0.5904  0.4967  0.2472
   20SAPC  H20R 2637   4.363   0.297   8.932 -0.4485  0.6852  0.2762
   20SAPC  H20S 2638   4.203   0.285   9.010  0.4714 -2.0056 -0.8593
   20SAPC  H20T 2639   4.350   0.273   9.108 -0.5119  0.5497  0.2392
   20SAPC   C33 2640   5.295   0.530  10.295 -0.3066 -0.6375 -1.1655
   20SAPC   H3X 2641   5.212   0.475  10.247 -0.4376 -0.7533 -0.8051
   20SAPC   H3Y 2642   5.369   0.465  10.346  0.1280  0.9331  0.3066
   20SAPC   C34 2643   5.361   0.616  10.187  0.1902  0.1143  0.2936
   20SAPC   H4X 2644   5.467   0.636  10.213 -0.2359  1.8675  0.7964
   20SAPC   H4Y 2645   5.306   0.712  10.179  0.7527  0.6213  2.0526
   20SAPC   C35 2646   5.353   0.550  10.047 -0.3700  0.2225 -0.2985
   20SAPC   H5X 2647   5.258   0.499  10.024 -1.7465  2.6113 -0.2754
   20SAPC   H5Y 2648   5.437   0.477  10.044 -2.0663 -1.9858  1.8258
   20SAPC   C36 2649   5.394   0.651   9.938 -0.2981  0.1849  0.5772
   20SAPC   H6X 2650   5.490   0.696   9.969  0.4028 -1.3155  0.6839
   20SAPC   H6Y 2651   5.320   0.733   9.927 -1.6349 -1.0290 -0.0451
   20SAPC   C37 2652   5.435   0.582   9.809  0.5032 -0.3127  0.4806
   20SAPC   H7X 2653   5.498   0.492   9.824  0.0214 -0.3394  2.7823
   20SAPC   H7Y 2654   5.505   0.651   9.756 -0.9869  0.7437 -0.1995
   20SAPC   C38 2655   5.321   0.562   9.714  0.1297 -0.2089  0.0469
   20SAPC   H8X 2656   5.224   0.572   9.767 -0.9741 -1.6339 -1.5938
   20SAPC   H8Y 2657   5.317   0.465   9.661 -2.3683  0.5894 -1.3564
   20SAPC   C39 2658   5.322   0.675   9.609  0.3152  0.4640  0.5501
   20SAPC   H9X 2659   5.414   0.668   9.546 -0.4280  0.4921 -0.5597
   20SAPC   H9Y 2660   5.319   0.774   9.659  1.8387 -0.4994  2.7486
   20SAPC  C310 2661   5.200   0.675   9.521  0.1031  0.1944 -0.7725
   20SAPC  H10X 2662   5.114   0.675   9.592  1.3233  0.6324  0.7671
   20SAPC  H10Y 2663   5.189   0.582   9.461 -2.2497  1.5255 -2.6102
   20SAPC  C311 2664   5.195   0.799   9.425  0.0634 -0.5156  0.3995
   20SAPC  H11X 2665   5.280   0.782   9.355  3.0696  3.3510  2.7048
   20SAPC  H11Y 2666   5.227   0.887   9.484  1.5669 -1.1617  0.5901
   20SAPC  C312 2667   5.053   0.807   9.363 -0.1044  1.3452  0.5443
   20SAPC  H12X 2668   4.974   0.842   9.432 -2.9192  0.4065 -1.9637
   20SAPC  H12Y 2669   5.023   0.711   9.315 -0.3098  2.7027 -2.2757
   20SAPC  C313 2670   5.057   0.910   9.252 -0.1081 -0.1058  0.6186
   20SAPC  H13X 2671   5.115   0.889   9.160  1.3739  1.7109  1.0771
   20SAPC  H13Y 2672   5.099   1.003   9.295  2.2421 -1.1776  0.7467
   20SAPC  C314 2673   4.906   0.922   9.212  0.0210 -0.1774  0.0616
   20SAPC  H14X 2674   4.848   0.980   9.287 -1.5713 -1.2984 -0.2568
   20SAPC  H14Y 2675   4.858   0.824   9.192 -0.0606 -0.2955  0.8113
   20SAPC  C315 2676   4.879   0.998   9.078 -0.3465  0.3207  0.0813
   20SAPC  H15X 2677   4.773   0.990   9.049 -0.4629  2.7823 -0.4393
   20SAPC  H15Y 2678   4.951   0.965   9.000  1.8074  2.2031  1.1420
   20SAPC  C316 2679   4.893   1.151   9.079 -0.8649 -0.0781  0.2223
   20SAPC  H16X 2680   5.002   1.156   9.101 -0.2420 -0.1573 -2.4850
   20SAPC  H16Y 2681   4.833   1.194   9.162 -0.4149 -0.7568  0.9262
   20SAPC  C317 2682   4.882   1.226   8.943 -0.0283  0.2446  0.3451
   20SAPC  H17X 2683   4.801   1.301   8.956 -0.6517 -0.1239 -1.1237
   20SAPC  H17Y 2684   4.867   1.150   8.862  1.0394 -0.3464  0.6860
   20SAPC  C318 2685   5.009   1.299   8.911 -0.1193 -0.1048  1.0797
   20SAPC  H18X 2686   4.985   1.362   8.822  0.8656 -0.6857  0.3885
   20SAPC  H18Y 2687   5.086   1.223   8.887 -0.6342 -0.2046 -0.3383
   20SAPC  H18Z 2688   5.049   1.356   8.997  0.1146  2.0173 -0.3474
   21SAPC     N 2689   5.106   1.818  11.363 -0.7098 -0.1591  0.9159
   21SAPC   C12 2690   5.177   1.947  11.318  0.4701  0.1344 -0.0871
   21SAPC  H12A 2691   5.285   1.940  11.323  0.4142 -0.7055  0.1374
   21SAPC  H12B 2692   5.143   2.027  11.382  1.5938  0.8969 -0.4112
   21SAPC   C13 2693   4.958   1.823  11.332  0.0153  1.2302 -0.2234
   21SAPC  H13A 2694   4.942   1.840  11.227  0.1250  0.2961 -0.3951
   21SAPC  H13B 2695   4.914   1.730  11.364  2.1199 -0.0748 -0.8814
   21SAPC  H13C 2696   4.906   1.901  11.386 -0.1955 -0.7790  2.7334
   21SAPC   C14 2697   5.170   1.701  11.299  0.3519  0.2811  0.0871
   21SAPC  H14A 2698   5.159   1.695  11.192 -1.1051 -3.1048  0.2963
   21SAPC  H14B 2699   5.277   1.694  11.311  0.4662  2.1638  0.5814
   21SAPC  H14C 2700   5.129   1.604  11.324  2.6620 -0.9840 -0.7680
   21SAPC   C15 2701   5.129   1.802  11.512 -0.2698 -0.2762 -0.2041
   21SAPC  H15A 2702   5.233   1.782  11.529 -0.3225 -2.2610 -1.8489
   21SAPC  H15B 2703   5.108   1.899  11.554  3.0068 -0.1876  1.5147
   21SAPC  H15C 2704   5.075   1.720  11.557 -0.0297  1.2252  3.1226
   21SAPC   C11 2705   5.143   1.995  11.178 -0.8684 -0.7234  0.2706
   21SAPC  H11A 2706   5.166   2.102  11.157  1.9600 -1.4996 -1.1540
   21SAPC  H11B 2707   5.034   1.981  11.165 -0.7870 -1.1457 -0.0036
   21SAPC     P 2708   5.353   1.922  11.042  0.2252  0.1763 -0.0533
   21SAPC   O13 2709   5.427   1.935  11.170  0.1134  0.8573  0.5169
   21SAPC   O14 2710   5.398   1.822  10.945 -0.2834 -0.4640  0.3202
   21SAPC   O12 2711   5.202   1.910  11.079  0.5111  0.4200  0.4169
   21SAPC   O11 2712   5.373   2.064  10.984 -0.0761 -0.4013 -0.0311
   21SAPC    C1 2713   5.280   2.143  10.914  0.4344  0.0126  0.1722
   21SAPC    HA 2714   5.189   2.166  10.972 -0.4683 -0.6483 -0.9408
   21SAPC    HB 2715   5.334   2.239  10.900  0.7903 -0.2756 -0.5002
   21SAPC    C2 2716   5.244   2.077  10.775  0.6245  0.3515 -0.3819
   21SAPC    HS 2717   5.205   1.978  10.805  0.5596 -0.1427 -1.9762
   21SAPC   O21 2718   5.359   2.069  10.689  0.1849  0.4623  0.2323
   21SAPC   C21 2719   5.368   1.958  10.625 -0.2082 -0.0386  0.2322
   21SAPC   O22 2720   5.297   1.860  10.634  0.4141 -0.0754 -0.7497
   21SAPC   C22 2721   5.487   1.961  10.540 -0.4166 -0.0688 -0.7669
   21SAPC   H2R 2722   5.569   2.007  10.600 -0.5633 -0.1607 -0.4973
   21SAPC   H2S 2723   5.518   1.858  10.514 -0.4710  0.0542 -1.3453
   21SAPC    C3 2724   5.135   2.156  10.695  0.5326 -0.3584 -0.3838
   21SAPC    HX 2725   5.193   2.249  10.675  0.5493 -0.2858  0.0006
   21SAPC    HY 2726   5.051   2.173  10.765 -0.9258  1.2985 -2.3956
   21SAPC   O31 2727   5.097   2.095  10.571  0.1699 -0.8090  0.3458
   21SAPC   C31 2728   5.046   2.177  10.477 -0.4143  0.0400 -0.1655
   21SAPC   O32 2729   5.033   2.300  10.494  0.1190  0.5030  0.4701
   21SAPC   C32 2730   4.997   2.101  10.350 -0.5040 -0.3322 -0.4457
   21SAPC   H2X 2731   5.016   2.171  10.266  2.0603  0.7443  0.9104
   21SAPC   H2Y 2732   4.888   2.084  10.343 -1.2470  2.3247  2.4306
   21SAPC   C23 2733   5.467   2.036  10.406 -0.0083 -0.3215 -0.1981
   21SAPC   H3R 2734   5.472   2.146  10.425 -1.6595  0.1270 -2.0085
   21SAPC   H3S 2735   5.364   2.015  10.370  0.0410 -1.8121  0.4871
   21SAPC   C24 2736   5.555   1.994  10.291  0.7599 -1.1080  0.3460
   21SAPC   H4R 2737   5.522   1.895  10.252 -2.5045 -0.2838  0.7130
   21SAPC   H4S 2738   5.662   1.983  10.320  1.4345 -0.7686 -1.8348
   21SAPC   C25 2739   5.564   2.090  10.174  0.1204  0.3299 -0.7379
   21SAPC   H5R 2740   5.562   2.196  10.206  0.8193  0.1731 -0.1532
   21SAPC   C26 2741   5.559   2.065  10.042 -0.4897  0.5691  0.3380
   21SAPC   H6R 2742   5.565   2.153   9.976  0.3044  1.0716  1.0531
   21SAPC   C27 2743   5.546   1.927   9.976 -0.3378  0.4564 -0.2393
   21SAPC   H7R 2744   5.469   1.942   9.897  0.2255 -0.5251 -0.9884
   21SAPC   H7S 2745   5.490   1.864  10.048 -0.3611 -1.4047 -1.8078
   21SAPC   C28 2746   5.672   1.871   9.921 -0.4104  0.1809  0.1887
   21SAPC   H8R 2747   5.752   1.862   9.996 -0.8209 -0.2085  0.5857
   21SAPC   C29 2748   5.704   1.835   9.796 -0.1992 -0.1354  0.1697
   21SAPC   H9R 2749   5.799   1.788   9.766  0.3669  0.1071  1.5287
   21SAPC  C210 2750   5.609   1.848   9.679 -1.1520  0.3164  0.8178
   21SAPC  H10R 2751   5.523   1.783   9.704 -0.4123 -1.2173 -0.4292
   21SAPC  H10S 2752   5.655   1.811   9.584  1.5711  3.4305  0.7511
   21SAPC  C211 2753   5.562   1.981   9.634 -0.1283 -0.5912  0.5507
   21SAPC  H11R 2754   5.577   2.069   9.699 -0.3981  2.0698 -2.7449
   21SAPC  C212 2755   5.515   2.022   9.512 -0.5980 -0.0062 -0.0962
   21SAPC  H12R 2756   5.484   2.127   9.497 -2.3663 -0.7810 -2.5167
   21SAPC  C213 2757   5.509   1.928   9.394 -0.0946  0.0551 -0.0730
   21SAPC  H13R 2758   5.408   1.937   9.349  1.2400  0.6834 -3.2015
   21SAPC  H13S 2759   5.517   1.819   9.417 -2.7026  0.0828  1.3771
   21SAPC  C214 2760   5.622   1.955   9.291  0.8802 -0.4999 -0.2037
   21SAPC  H14R 2761   5.720   1.921   9.326  1.3533  0.3071 -0.6976
   21SAPC  C215 2762   5.616   2.033   9.184  0.1852  0.5937 -0.0450
   21SAPC  H15R 2763   5.710   2.046   9.129  0.8286  3.2845  1.5401
   21SAPC  C216 2764   5.503   2.118   9.130  0.9480  0.8133  0.2600
   21SAPC  H16R 2765   5.554   2.214   9.107  2.8798 -0.0933  0.4843
   21SAPC  H16S 2766   5.419   2.132   9.201 -0.3780  1.9103 -1.4496
   21SAPC  C217 2767   5.450   2.077   8.993  0.6567 -0.3143 -1.0603
   21SAPC  H17R 2768   5.385   2.162   8.963 -1.1624 -1.1697  0.2094
   21SAPC  H17S 2769   5.380   1.992   9.005  0.6444 -0.0117  1.6481
   21SAPC  C218 2770   5.556   2.044   8.885  0.1659  0.0550  0.3059
   21SAPC  H18R 2771   5.582   1.936   8.895  1.8673  0.5428  1.8778
   21SAPC  H18S 2772   5.652   2.096   8.908  0.7819 -1.3555  1.0707
   21SAPC  C219 2773   5.507   2.095   8.744 -0.2192  0.4703 -0.1573
   21SAPC  H19R 2774   5.403   2.065   8.721  0.1023 -1.4779  0.7576
   21SAPC  H19S 2775   5.581   2.050   8.674  0.1766  0.0791  0.5024
   21SAPC  C220 2776   5.521   2.243   8.741  0.3981 -0.9121 -0.4232
   21SAPC  H20R 2777   5.629   2.267   8.739  0.3263 -0.4799  0.2993
   21SAPC  H20S 2778   5.485   2.294   8.834 -0.1857 -1.5348 -0.3038
   21SAPC  H20T 2779   5.466   2.297   8.661  1.6943  0.4652 -0.4282
   21SAPC   C33 2780   5.065   1.961  10.346 -0.4752 -0.3203 -0.2162
   21SAPC   H3X 2781   5.023   1.874  10.402 -1.4737 -2.2282 -3.6401
   21SAPC   H3Y 2782   5.167   1.973  10.389 -0.5814 -0.5759  0.1155
   21SAPC   C34 2783   5.088   1.898  10.204  0.3760 -0.3225 -0.3004
   21SAPC   H4X 2784   4.987   1.862  10.173 -0.6699  1.7461  0.4888
   21SAPC   H4Y 2785   5.153   1.808  10.206 -0.0721 -0.6552 -0.4526
   21SAPC   C35 2786   5.139   1.993  10.086  0.0707 -0.3656  0.4271
   21SAPC   H5X 2787   5.248   1.994  10.103  0.0844 -1.1869  0.4403
   21SAPC   H5Y 2788   5.093   2.094  10.092  1.2937  0.1600  1.2985
   21SAPC   C36 2789   5.103   1.936   9.957  0.4042  0.8347  0.7658
   21SAPC   H6X 2790   4.995   1.914   9.951  0.3430  0.4574  2.5815
   21SAPC   H6Y 2791   5.145   1.834   9.949 -1.5223  0.0224  0.5544
   21SAPC   C37 2792   5.154   2.015   9.834  0.2725  0.3426  0.5959
   21SAPC   H7X 2793   5.264   2.030   9.835  0.3184  0.3592 -1.1506
   21SAPC   H7Y 2794   5.118   2.120   9.835 -0.3402  0.1353  1.0693
   21SAPC   C38 2795   5.124   1.931   9.708 -0.5783  0.1907  0.3728
   21SAPC   H8X 2796   5.021   1.890   9.706 -0.7046  0.5213 -0.9031
   21SAPC   H8Y 2797   5.204   1.854   9.706  1.4563  1.9787  3.6047
   21SAPC   C39 2798   5.136   2.011   9.568  0.4379 -0.0941  0.5082
   21SAPC   H9X 2799   5.235   2.061   9.576 -0.3123  1.9098 -1.5883
   21SAPC   H9Y 2800   5.064   2.096   9.566  2.9611  2.2390 -2.8493
   21SAPC  C310 2801   5.125   1.921   9.444 -0.5577  0.1414 -0.2341
   21SAPC  H10X 2802   5.029   1.865   9.451  0.5008 -1.7011  0.3637
   21SAPC  H10Y 2803   5.196   1.836   9.447 -0.4148  0.2806  0.6827
   21SAPC  C311 2804   5.136   2.004   9.313  0.4014 -0.3421  0.3430
   21SAPC  H11X 2805   5.147   1.931   9.229 -0.9190 -0.5996  0.3746
   21SAPC  H11Y 2806   5.225   2.070   9.317  0.7766 -0.8994  1.5041
   21SAPC  C312 2807   5.015   2.093   9.281 -0.9787  0.6016  0.2583
   21SAPC  H12X 2808   4.996   2.156   9.370 -0.9976 -0.6493  1.1757
   21SAPC  H12Y 2809   4.935   2.016   9.282  0.7683 -1.2952  1.0674
   21SAPC  C313 2810   5.016   2.165   9.142 -0.7098 -0.2361  0.2610
   21SAPC  H13X 2811   5.109   2.223   9.127 -0.4297 -0.6722  0.2942
   21SAPC  H13Y 2812   4.934   2.241   9.139 -0.1855  0.3304  0.0936
   21SAPC  C314 2813   5.018   2.081   9.012 -0.3154  0.9990 -0.6768
   21SAPC  H14X 2814   4.972   1.985   9.043  0.1724  1.1140  0.4743
   21SAPC  H14Y 2815   5.123   2.051   8.991 -0.3374 -1.8598  2.4150
   21SAPC  C315 2816   4.950   2.142   8.885 -0.0708  0.0640  0.1476
   21SAPC  H15X 2817   5.011   2.228   8.850 -2.6018  1.2949 -1.5235
   21SAPC  H15Y 2818   4.851   2.184   8.913  0.8186  2.8727 -0.6155
   21SAPC  C316 2819   4.909   2.040   8.778  0.0176 -0.1107  0.6166
   21SAPC  H16X 2820   4.831   1.973   8.819 -0.8224  0.6572  0.3118
   21SAPC  H16Y 2821   4.996   1.973   8.763 -0.3163 -1.1462  2.9200
   21SAPC  C317 2822   4.868   2.103   8.647  0.0042 -0.4686  0.2553
   21SAPC  H17X 2823   4.796   2.187   8.660 -1.1091 -1.5315  1.1559
   21SAPC  H17Y 2824   4.809   2.025   8.595 -0.9352 -0.4634  1.2743
   21SAPC  C318 2825   4.991   2.138   8.555  0.1061  0.0854  0.4262
   21SAPC  H18X 2826   5.042   2.042   8.532  0.6338  0.2723  0.8146
   21SAPC  H18Y 2827   5.058   2.212   8.603 -0.6836  0.9009  0.3000
   21SAPC  H18Z 2828   4.952   2.179   8.459  0.9262 -0.6343 -0.2290
   22SAPC     N 2829   2.870   4.721  11.074 -0.4698  1.0910 -0.0452
   22SAPC   C12 2830   2.934   4.679  10.936 -0.3828 -0.3924 -0.1312
   22SAPC  H12A 2831   2.971   4.577  10.942 -0.2231 -0.4962 -2.2637
   22SAPC  H12B 2832   3.016   4.741  10.904 -1.2383 -0.5876 -2.9710
   22SAPC   C13 2833   2.755   4.627  11.114 -0.2685 -0.5585 -0.0696
   22SAPC  H13A 2834   2.763   4.522  11.089 -2.4781 -0.6737 -0.4617
   22SAPC  H13B 2835   2.735   4.637  11.220  0.9635 -1.7292  0.3110
   22SAPC  H13C 2836   2.671   4.663  11.057  1.3078  0.8567 -1.5590
   22SAPC   C14 2837   2.975   4.716  11.175 -0.3927  0.0337 -0.1946
   22SAPC  H14A 2838   3.026   4.621  11.185 -1.8892 -0.7985 -0.0191
   22SAPC  H14B 2839   3.045   4.795  11.153  1.5633 -1.6676 -0.4206
   22SAPC  H14C 2840   2.930   4.733  11.272  0.0663 -0.2603  0.0753
   22SAPC   C15 2841   2.820   4.862  11.078 -1.1818  0.3857  0.9490
   22SAPC  H15A 2842   2.739   4.869  11.006 -0.0517  0.0556 -0.3870
   22SAPC  H15B 2843   2.775   4.883  11.174 -2.5761 -1.4814  0.7456
   22SAPC  H15C 2844   2.891   4.942  11.067 -1.1318  0.1546 -0.6435
   22SAPC   C11 2845   2.839   4.673  10.809  0.5547 -0.2897 -0.1105
   22SAPC  H11A 2846   2.765   4.596  10.840 -0.4989  0.5290 -0.5477
   22SAPC  H11B 2847   2.898   4.636  10.722  1.1693 -0.7286  0.4771
   22SAPC     P 2848   2.859   4.919  10.733  0.2612  0.2826  0.4094
   22SAPC   O13 2849   2.786   5.037  10.783 -0.0020 -0.5156 -0.3330
   22SAPC   O14 2850   3.006   4.912  10.765 -0.0141  0.1205 -0.4136
   22SAPC   O12 2851   2.774   4.799  10.783  0.3300 -1.2103 -0.9985
   22SAPC   O11 2852   2.846   4.910  10.571  0.2861  0.0360  0.1569
   22SAPC    C1 2853   2.724   4.965  10.510 -0.6309 -0.1105 -0.6109
   22SAPC    HA 2854   2.685   5.061  10.550 -0.7371 -0.7937  0.9877
   22SAPC    HB 2855   2.754   4.998  10.408 -1.1252  1.5467 -0.2549
   22SAPC    C2 2856   2.600   4.861  10.512 -0.4687 -0.3024 -0.5730
   22SAPC    HS 2857   2.562   4.865  10.616  1.1045 -2.3535  0.1455
   22SAPC   O21 2858   2.660   4.730  10.497  0.1028  0.3377  0.1791
   22SAPC   C21 2859   2.587   4.628  10.555  0.2449 -0.0498 -0.4014
   22SAPC   O22 2860   2.484   4.642  10.613  0.0523  0.2542 -0.7036
   22SAPC   C22 2861   2.658   4.500  10.534 -0.2732 -0.1538 -0.7077
   22SAPC   H2R 2862   2.766   4.525  10.529  0.1681 -2.2143 -3.7173
   22SAPC   H2S 2863   2.650   4.445  10.630 -3.1101  0.4859 -0.4923
   22SAPC    C3 2864   2.479   4.881  10.418  0.2091 -0.3498  0.3811
   22SAPC    HX 2865   2.426   4.978  10.430 -0.2816 -0.7372  1.4487
   22SAPC    HY 2866   2.407   4.801  10.446  2.3537 -2.0734  1.2555
   22SAPC   O31 2867   2.518   4.868  10.277  0.8390  0.3487  0.2935
   22SAPC   C31 2868   2.407   4.855  10.198  0.1130 -0.6431 -0.2008
   22SAPC   O32 2869   2.289   4.867  10.228  0.2068  0.5133 -0.3393
   22SAPC   C32 2870   2.452   4.828  10.052  0.1336  0.1119 -0.4198
   22SAPC   H2X 2871   2.498   4.729  10.030  2.4424  1.2100 -0.8835
   22SAPC   H2Y 2872   2.538   4.897  10.035 -1.0200  1.3914 -1.3474
   22SAPC   C23 2873   2.613   4.411  10.426 -0.0062 -0.2180  1.1345
   22SAPC   H3R 2874   2.505   4.383  10.433  0.1003 -1.6679 -1.4668
   22SAPC   H3S 2875   2.667   4.313  10.422 -0.5172 -0.4810  0.4340
   22SAPC   C24 2876   2.641   4.471  10.283  0.4248 -0.4828 -0.0352
   22SAPC   H4R 2877   2.750   4.481  10.268  0.3396 -2.2535 -2.3222
   22SAPC   H4S 2878   2.585   4.567  10.285 -1.2146 -1.3968  1.7491
   22SAPC   C25 2879   2.588   4.385  10.170  0.5361 -0.2208  0.3904
   22SAPC   H5R 2880   2.481   4.369  10.189  0.4392  1.7359  1.8000
   22SAPC   C26 2881   2.660   4.330  10.063 -0.3653 -0.0503 -0.4501
   22SAPC   H6R 2882   2.600   4.260  10.003 -1.2687 -0.1182  0.5079
   22SAPC   C27 2883   2.810   4.338  10.040 -0.2380  0.0154  0.2390
   22SAPC   H7R 2884   2.866   4.328  10.135  0.6309  3.8467  0.3059
   22SAPC   H7S 2885   2.845   4.435   9.998 -0.0566  0.6464  1.7938
   22SAPC   C28 2886   2.849   4.235   9.944  0.2071 -0.1539  0.2342
   22SAPC   H8R 2887   2.811   4.135   9.972 -1.8500  1.0715  2.1559
   22SAPC   C29 2888   2.953   4.237   9.851  0.1514  0.1440 -0.3640
   22SAPC   H9R 2889   2.974   4.142   9.800  0.7622 -0.6307  1.2615
   22SAPC  C210 2890   3.053   4.345   9.814  0.1576  0.4460  0.4875
   22SAPC  H10R 2891   3.154   4.301   9.823 -1.1826 -2.5341  2.6797
   22SAPC  H10S 2892   3.045   4.426   9.890 -2.3127 -0.0691  0.8776
   22SAPC  C211 2893   3.025   4.390   9.676 -0.1499  0.1569 -0.7893
   22SAPC  H11R 2894   3.082   4.344   9.595  1.1842  0.0924  0.1561
   22SAPC  C212 2895   2.949   4.495   9.640 -0.4677 -0.9904 -0.0620
   22SAPC  H12R 2896   2.927   4.501   9.533  1.6549  0.1610 -0.4814
   22SAPC  C213 2897   2.869   4.598   9.730  0.6056 -0.1970 -0.3627
   22SAPC  H13R 2898   2.887   4.706   9.711 -2.9198  0.4589 -0.5869
   22SAPC  H13S 2899   2.886   4.586   9.839 -2.0040 -0.9265  0.0353
   22SAPC  C214 2900   2.722   4.559   9.716 -0.7319  0.0685  0.2699
   22SAPC  H14R 2901   2.697   4.469   9.775  2.4269 -0.2926  1.2078
   22SAPC  C215 2902   2.632   4.612   9.629 -0.4801 -0.0019  0.0657
   22SAPC  H15R 2903   2.528   4.575   9.634 -0.4253 -0.0401  1.4581
   22SAPC  C216 2904   2.665   4.726   9.535 -0.4772  0.1764 -0.3212
   22SAPC  H16R 2905   2.758   4.779   9.563  0.7021 -1.4564 -0.9835
   22SAPC  H16S 2906   2.588   4.806   9.538 -0.8265 -0.1856  1.9743
   22SAPC  C217 2907   2.671   4.690   9.393 -0.4215  0.1549  0.3662
   22SAPC  H17R 2908   2.575   4.642   9.362 -0.2121  0.8198 -1.3910
   22SAPC  H17S 2909   2.738   4.602   9.386 -0.2449  0.0378  2.6618
   22SAPC  C218 2910   2.710   4.812   9.303  0.0896  0.1736 -0.4936
   22SAPC  H18R 2911   2.810   4.847   9.338 -1.0849  1.7177  1.5850
   22SAPC  H18S 2912   2.642   4.897   9.327  0.5122 -0.0892  1.9009
   22SAPC  C219 2913   2.715   4.779   9.157 -0.0567 -0.1345 -0.1527
   22SAPC  H19R 2914   2.619   4.731   9.132 -0.6426  0.4119  0.9613
   22SAPC  H19S 2915   2.793   4.700   9.151  1.0517  0.7711  1.2795
   22SAPC  C220 2916   2.770   4.906   9.076 -0.0054  0.7006  0.4085
   22SAPC  H20R 2917   2.871   4.930   9.115 -0.0901  0.6794  0.6435
   22SAPC  H20S 2918   2.701   4.991   9.094  0.9773  1.9830 -1.5291
   22SAPC  H20T 2919   2.767   4.882   8.967  0.2370  0.4331  0.4619
   22SAPC   C33 2920   2.330   4.856   9.947  0.2531 -0.5470 -1.1415
   22SAPC   H3X 2921   2.275   4.949   9.975 -1.0330 -1.8460  0.8923
   22SAPC   H3Y 2922   2.256   4.774   9.953 -1.4297  0.9894  2.1975
   22SAPC   C34 2923   2.392   4.873   9.809  0.6014 -0.2526 -0.4157
   22SAPC   H4X 2924   2.434   4.774   9.779  1.8071 -0.2146  1.0066
   22SAPC   H4Y 2925   2.477   4.944   9.814 -0.0309  0.4663  0.6166
   22SAPC   C35 2926   2.287   4.918   9.707  0.0235 -0.7437 -0.4924
   22SAPC   H5X 2927   2.257   5.021   9.737  0.5548 -1.6371  3.6656
   22SAPC   H5Y 2928   2.199   4.853   9.726 -0.5594  0.0100 -0.5309
   22SAPC   C36 2929   2.340   4.904   9.567  0.3512  0.2005 -0.2405
   22SAPC   H6X 2930   2.366   4.798   9.547  1.2359  0.0644  1.4692
   22SAPC   H6Y 2931   2.425   4.971   9.543 -0.3436  1.4090  0.5862
   22SAPC   C37 2932   2.232   4.940   9.460  0.3579  0.2292  0.4178
   22SAPC   H7X 2933   2.196   5.045   9.460 -0.2204  0.0541 -0.9590
   22SAPC   H7Y 2934   2.139   4.886   9.490 -1.4476  1.0143 -3.2152
   22SAPC   C38 2935   2.273   4.887   9.315  0.0347  0.3861  0.1070
   22SAPC   H8X 2936   2.304   4.780   9.317 -0.3405  0.2196 -1.3465
   22SAPC   H8Y 2937   2.362   4.942   9.276 -0.4095 -0.1643 -1.8384
   22SAPC   C39 2938   2.162   4.895   9.208 -0.8984 -0.4771  0.0151
   22SAPC   H9X 2939   2.125   4.999   9.196  1.3203  0.6981  2.4279
   22SAPC   H9Y 2940   2.082   4.826   9.240 -2.2577  0.6061 -0.9336
   22SAPC  C310 2941   2.244   4.866   9.080 -0.2391  1.0033  0.2710
   22SAPC  H10X 2942   2.269   4.758   9.081  1.8316  1.4400  0.6768
   22SAPC  H10Y 2943   2.334   4.929   9.061 -0.9291  1.7363 -0.6803
   22SAPC  C311 2944   2.159   4.877   8.956  0.6336 -0.0734  0.3496
   22SAPC  H11X 2945   2.108   4.975   8.965 -1.3588 -1.1722  1.9502
   22SAPC  H11Y 2946   2.082   4.798   8.946 -0.1938  0.9342 -2.3246
   22SAPC  C312 2947   2.248   4.873   8.831  0.0513 -0.3991  0.0032
   22SAPC  H12X 2948   2.323   4.792   8.843  0.7514  0.2898  0.3921
   22SAPC  H12Y 2949   2.310   4.963   8.810  1.1035 -1.1052  0.0397
   22SAPC  C313 2950   2.165   4.844   8.707  0.1400  0.7776  0.2204
   22SAPC  H13X 2951   2.099   4.928   8.674 -0.4417  0.0259 -0.5811
   22SAPC  H13Y 2952   2.097   4.757   8.720  1.4313  0.1070  3.4900
   22SAPC  C314 2953   2.244   4.823   8.580 -0.4431  0.0356 -0.6340
   22SAPC  H14X 2954   2.314   4.747   8.620 -1.0985  1.4688  3.8018
   22SAPC  H14Y 2955   2.305   4.914   8.563  0.6946  0.5096  4.3957
   22SAPC  C315 2956   2.165   4.771   8.462 -0.3547 -0.2756  0.3544
   22SAPC  H15X 2957   2.087   4.843   8.429 -0.2277 -0.2721  0.0555
   22SAPC  H15Y 2958   2.105   4.685   8.497 -0.1595 -1.1727 -1.4127
   22SAPC  C316 2959   2.257   4.722   8.343  0.0627 -0.2809 -0.8888
   22SAPC  H16X 2960   2.320   4.641   8.384  0.0040 -1.3944 -2.8517
   22SAPC  H16Y 2961   2.328   4.801   8.311 -1.7257  0.4088 -3.5264
   22SAPC  C317 2962   2.180   4.662   8.225 -0.5670 -0.5217  0.2927
   22SAPC  H17X 2963   2.117   4.581   8.269 -0.4802 -1.6279 -1.5206
   22SAPC  H17Y 2964   2.264   4.631   8.160  0.2657  2.4076 -0.1416
   22SAPC  C318 2965   2.089   4.763   8.146 -1.1666 -0.5530 -0.5703
   22SAPC  H18X 2966   2.006   4.810   8.203 -1.4841  1.3468 -2.4556
   22SAPC  H18Y 2967   2.068   4.726   8.043 -0.9516 -1.2041 -0.3811
   22SAPC  H18Z 2968   2.152   4.853   8.131 -1.8235  0.4123  1.9943
   23SAPC     N 2969   6.459   6.405  10.911  0.1641  0.2346 -0.2262
   23SAPC   C12 2970   6.308   6.425  10.903  0.2002  0.6105 -0.4440
   23SAPC  H12A 2971   6.263   6.447  10.999 -1.2640  0.9771 -1.1950
   23SAPC  H12B 2972   6.268   6.328  10.881  1.8444 -1.0303  3.0214
   23SAPC   C13 2973   6.490   6.298  11.007 -0.0323  0.0436 -0.1686
   23SAPC  H13A 2974   6.593   6.267  10.993  0.2152  0.4553  0.6744
   23SAPC  H13B 2975   6.477   6.327  11.110 -1.5977 -0.5317 -0.1739
   23SAPC  H13C 2976   6.452   6.201  10.979  0.7076 -0.3653  0.2076
   23SAPC   C14 2977   6.506   6.362  10.774 -0.2180  0.0824 -0.3380
   23SAPC  H14A 2978   6.609   6.333  10.785  0.2134  1.9718  1.3044
   23SAPC  H14B 2979   6.453   6.275  10.739  1.8382 -0.7083 -1.6453
   23SAPC  H14C 2980   6.508   6.445  10.705  2.4660  3.0602  2.9448
   23SAPC   C15 2981   6.529   6.518  10.971 -0.4190 -0.1153 -0.0595
   23SAPC  H15A 2982   6.468   6.545  11.056 -1.5891 -1.1844 -0.5376
   23SAPC  H15B 2983   6.625   6.490  11.010 -1.4502 -1.6400  1.5390
   23SAPC  H15C 2984   6.526   6.599  10.900 -0.0936 -1.1015 -1.2272
   23SAPC   C11 2985   6.265   6.536  10.800 -0.0653 -0.0141 -0.2189
   23SAPC  H11A 2986   6.154   6.541  10.795  0.0229  1.7209 -1.4583
   23SAPC  H11B 2987   6.298   6.508  10.698 -0.5717 -2.1286  0.1387
   23SAPC     P 2988   6.351   6.772  10.744  0.1807 -0.0543 -0.1390
   23SAPC   O13 2989   6.334   6.900  10.824 -0.2167  0.4826  0.1759
   23SAPC   O14 2990   6.481   6.734  10.685 -0.1522  0.5123 -0.0493
   23SAPC   O12 2991   6.313   6.663  10.848  0.8055  0.6843 -0.1712
   23SAPC   O11 2992   6.246   6.758  10.626  0.4486 -0.2733 -0.0827
   23SAPC    C1 2993   6.116   6.813  10.641  0.3326  0.8584 -0.9435
   23SAPC    HA 2994   6.037   6.738  10.620  0.2668  0.5748  0.2409
   23SAPC    HB 2995   6.095   6.852  10.743 -1.8417 -0.4511 -0.8291
   23SAPC    C2 2996   6.094   6.930  10.543 -0.0202 -0.9693  0.3754
   23SAPC    HS 2997   6.001   6.987  10.565 -0.2188 -0.9953 -0.3843
   23SAPC   O21 2998   6.094   6.887  10.398 -0.4488  0.6290 -0.6742
   23SAPC   C21 2999   5.977   6.820  10.372 -0.8879 -0.6559  0.1474
   23SAPC   O22 3000   5.887   6.804  10.454  0.4349  0.1403 -0.2464
   23SAPC   C22 3001   5.977   6.773  10.232 -0.6427 -0.2080 -0.1646
   23SAPC   H2R 3002   6.015   6.854  10.166  0.9918 -1.4953 -0.8955
   23SAPC   H2S 3003   6.055   6.695  10.213 -0.3357  0.0823 -0.0990
   23SAPC    C3 3004   6.211   7.035  10.557  0.6854 -0.7668 -0.3900
   23SAPC    HX 3005   6.310   6.989  10.536  0.1158 -1.6072 -1.2619
   23SAPC    HY 3006   6.213   7.058  10.666  0.7136  0.2425 -0.5924
   23SAPC   O31 3007   6.179   7.156  10.485 -0.0395 -0.3381 -0.4144
   23SAPC   C31 3008   6.259   7.257  10.498 -0.9491 -0.0047  0.2531
   23SAPC   O32 3009   6.364   7.251  10.562 -0.3714  0.1039  0.6089
   23SAPC   C32 3010   6.197   7.381  10.430  0.1155 -0.6501  0.0774
   23SAPC   H2X 3011   6.128   7.413  10.510 -0.8298  0.0627 -0.9920
   23SAPC   H2Y 3012   6.135   7.361  10.340  0.9139 -1.2036 -0.3631
   23SAPC   C23 3013   5.833   6.750  10.176  1.3238  0.2438  0.2080
   23SAPC   H3R 3014   5.766   6.837  10.189 -1.6791 -2.1281  2.0667
   23SAPC   H3S 3015   5.790   6.665  10.234  2.9946 -1.0945 -0.4280
   23SAPC   C24 3016   5.827   6.722  10.026  0.0196  0.5322  0.1664
   23SAPC   H4R 3017   5.877   6.794   9.957 -1.4575 -1.4510 -3.2131
   23SAPC   H4S 3018   5.719   6.736  10.009 -0.5761 -1.9051  1.4954
   23SAPC   C25 3019   5.871   6.579  10.002  0.2523 -0.0477  0.9780
   23SAPC   H5R 3020   5.950   6.540  10.068 -0.1574 -1.5729  0.6084
   23SAPC   C26 3021   5.823   6.501   9.904  0.2423  0.1850 -1.0857
   23SAPC   H6R 3022   5.854   6.397   9.921 -1.1876  0.0149  0.7098
   23SAPC   C27 3023   5.719   6.535   9.799 -0.0730 -0.5071 -0.4384
   23SAPC   H7R 3024   5.771   6.573   9.709  2.2105 -1.1150  0.5587
   23SAPC   H7S 3025   5.643   6.611   9.826  0.0015 -0.4324 -0.4395
   23SAPC   C28 3026   5.643   6.419   9.737 -0.4350 -0.1937 -0.3910
   23SAPC   H8R 3027   5.697   6.323   9.728  0.1878  0.3183 -2.9501
   23SAPC   C29 3028   5.534   6.426   9.662 -0.4005  0.2472  0.7328
   23SAPC   H9R 3029   5.477   6.338   9.629  0.1720 -0.0970  0.6537
   23SAPC  C210 3030   5.463   6.555   9.630 -0.4709  0.9113  0.0860
   23SAPC  H10R 3031   5.536   6.636   9.653 -0.2173  0.7031  0.0193
   23SAPC  H10S 3032   5.377   6.571   9.699 -0.6755  1.4060 -0.2773
   23SAPC  C211 3033   5.409   6.580   9.494 -0.1793 -0.4504 -0.6752
   23SAPC  H11R 3034   5.465   6.652   9.433 -1.9181  1.4807 -0.0820
   23SAPC  C212 3035   5.292   6.533   9.446 -0.1691  0.1831 -0.3299
   23SAPC  H12R 3036   5.257   6.567   9.347  0.2524  0.3853 -0.4104
   23SAPC  C213 3037   5.198   6.435   9.520 -0.1505 -0.5351  0.0536
   23SAPC  H13R 3038   5.103   6.483   9.551 -2.0233 -1.2023 -4.0584
   23SAPC  H13S 3039   5.252   6.389   9.606  2.6191 -0.0085 -1.2776
   23SAPC  C214 3040   5.174   6.310   9.439 -0.1176  0.0660  0.3012
   23SAPC  H14R 3041   5.255   6.237   9.455  0.4569  0.7252  0.4160
   23SAPC  C215 3042   5.072   6.278   9.353  0.6313 -0.5825  0.7463
   23SAPC  H15R 3043   5.082   6.189   9.288  0.9449  0.7963 -1.1561
   23SAPC  C216 3044   4.957   6.375   9.316 -0.1886  0.3320 -0.0998
   23SAPC  H16R 3045   4.974   6.433   9.222 -0.6631  1.2276  0.3598
   23SAPC  H16S 3046   4.936   6.451   9.394 -1.6367 -0.8529  0.7162
   23SAPC  C217 3047   4.830   6.297   9.284  0.5222 -0.5220 -0.0877
   23SAPC  H17R 3048   4.775   6.263   9.374 -0.2880  1.7434  0.3363
   23SAPC  H17S 3049   4.864   6.209   9.225 -1.0168 -0.6169 -0.8809
   23SAPC  C218 3050   4.717   6.374   9.211  0.5988  0.0286  0.2558
   23SAPC  H18R 3051   4.761   6.448   9.141  0.9372  0.9921  1.4644
   23SAPC  H18S 3052   4.664   6.439   9.283  1.1616  3.2639 -2.0356
   23SAPC  C219 3053   4.631   6.273   9.137 -0.4548 -0.0333 -0.4270
   23SAPC  H19R 3054   4.712   6.217   9.084 -0.5401 -0.5302 -0.0418
   23SAPC  H19S 3055   4.568   6.326   9.063  1.3069 -0.4951 -2.3483
   23SAPC  C220 3056   4.555   6.179   9.224  0.5734 -0.1628  0.5897
   23SAPC  H20R 3057   4.489   6.106   9.173 -1.3630 -0.3081  3.1153
   23SAPC  H20S 3058   4.490   6.248   9.283 -1.6021 -2.5538  1.1424
   23SAPC  H20T 3059   4.619   6.126   9.298  0.6019 -2.1581 -0.7850
   23SAPC   C33 3060   6.306   7.488  10.391 -0.2526 -0.2324 -0.7736
   23SAPC   H3X 3061   6.353   7.524  10.485 -0.9740  1.8278 -1.1382
   23SAPC   H3Y 3062   6.251   7.582  10.371 -0.5967 -0.2672  0.0059
   23SAPC   C34 3063   6.412   7.446  10.284 -0.4303 -0.2164  0.0490
   23SAPC   H4X 3064   6.468   7.354  10.308 -1.3261 -1.0727 -1.0489
   23SAPC   H4Y 3065   6.486   7.528  10.270  0.8042 -1.4799 -1.2233
   23SAPC   C35 3066   6.337   7.424  10.155 -0.3592  0.3627 -0.2004
   23SAPC   H5X 3067   6.304   7.523  10.117  1.0349  0.3633 -1.5222
   23SAPC   H5Y 3068   6.244   7.364  10.167  0.0110  0.2538  2.8451
   23SAPC   C36 3069   6.425   7.371  10.035  0.2631  0.8723 -0.4776
   23SAPC   H6X 3070   6.456   7.266  10.055 -1.2626  0.1961 -1.4532
   23SAPC   H6Y 3071   6.516   7.434  10.026  0.3390  0.6684 -1.2739
   23SAPC   C37 3072   6.345   7.357   9.909  0.1121 -0.0539 -0.3846
   23SAPC   H7X 3073   6.288   7.451   9.892  0.1136 -0.2695 -1.7769
   23SAPC   H7Y 3074   6.276   7.271   9.912 -1.4676  1.1157 -1.4255
   23SAPC   C38 3075   6.427   7.332   9.784  0.2079 -0.0456 -0.0283
   23SAPC   H8X 3076   6.488   7.242   9.803  0.5786 -0.4149 -2.6066
   23SAPC   H8Y 3077   6.495   7.416   9.756  2.5713 -1.8273  0.0510
   23SAPC   C39 3078   6.338   7.305   9.662 -0.3642 -0.8648 -0.3809
   23SAPC   H9X 3079   6.303   7.403   9.623 -0.8018 -0.6915  0.4137
   23SAPC   H9Y 3080   6.244   7.251   9.688  0.2741 -1.9078 -0.1949
   23SAPC  C310 3081   6.408   7.214   9.559 -0.7050 -0.4242 -0.0855
   23SAPC  H10X 3082   6.458   7.128   9.609  1.1503  1.6335  1.7732
   23SAPC  H10Y 3083   6.490   7.261   9.501 -1.4146 -0.2148 -0.9540
   23SAPC  C311 3084   6.307   7.156   9.454  0.3496  0.9797 -0.0237
   23SAPC  H11X 3085   6.259   7.249   9.416  0.0344  0.8700  0.0959
   23SAPC  H11Y 3086   6.226   7.092   9.495 -0.9252 -0.6595 -4.4816
   23SAPC  C312 3087   6.384   7.083   9.344 -0.2203 -0.2352  0.3101
   23SAPC  H12X 3088   6.398   6.980   9.384 -0.4895  0.4528  2.2489
   23SAPC  H12Y 3089   6.482   7.120   9.307  0.0926 -1.7691 -0.5010
   23SAPC  C313 3090   6.293   7.074   9.217  0.0655 -0.4106 -0.4357
   23SAPC  H13X 3091   6.280   7.175   9.172 -0.2654 -1.2214 -2.2630
   23SAPC  H13Y 3092   6.188   7.048   9.238  0.2150  0.4340  1.5664
   23SAPC  C314 3093   6.350   6.957   9.127  0.9092 -0.4971 -0.5826
   23SAPC  H14X 3094   6.379   6.869   9.187 -2.4542 -2.7959 -1.9694
   23SAPC  H14Y 3095   6.442   7.000   9.082 -0.1457  3.2250  0.4398
   23SAPC  C315 3096   6.236   6.938   9.024  0.2491  0.1928 -0.1553
   23SAPC  H15X 3097   6.145   6.896   9.073 -0.2864  1.2983 -0.1708
   23SAPC  H15Y 3098   6.279   6.865   8.952  1.3209  1.0539 -0.4086
   23SAPC  C316 3099   6.201   7.059   8.928 -0.2066  0.1830  0.0747
   23SAPC  H16X 3100   6.297   7.093   8.884 -0.8019 -1.4632 -2.6959
   23SAPC  H16Y 3101   6.160   7.141   8.991 -0.5457  0.6139 -0.6899
   23SAPC  C317 3102   6.107   7.030   8.807 -0.0254  0.1208  0.3536
   23SAPC  H17X 3103   6.011   6.988   8.846  0.4120  1.2920  2.8839
   23SAPC  H17Y 3104   6.156   6.951   8.745  2.1083  2.0082 -0.4841
   23SAPC  C318 3105   6.090   7.156   8.720  0.2161 -0.0154  0.0527
   23SAPC  H18X 3106   6.058   7.242   8.783  0.2505  1.6682 -2.1147
   23SAPC  H18Y 3107   6.014   7.153   8.639 -1.2603  0.4730  1.3907
   23SAPC  H18Z 3108   6.184   7.178   8.665  0.4047  0.5340  0.5916
   24SAPC     N 3109   2.090   6.617  11.108  0.2945 -0.0147 -0.2765
   24SAPC   C12 3110   2.100   6.515  11.004  0.1970 -0.3458 -0.0859
   24SAPC  H12A 3111   2.030   6.517  10.922  1.6325 -0.7197 -1.3595
   24SAPC  H12B 3112   2.088   6.417  11.047 -1.2465  0.3801  1.2769
   24SAPC   C13 3113   2.176   6.590  11.218 -0.2852 -0.9862 -0.2253
   24SAPC  H13A 3114   2.281   6.601  11.193 -0.0388 -2.0820  0.2655
   24SAPC  H13B 3115   2.174   6.656  11.304  3.7846 -0.2664 -0.4543
   24SAPC  H13C 3116   2.159   6.491  11.256 -0.6973 -1.0097 -0.4635
   24SAPC   C14 3117   2.122   6.752  11.046  0.1673 -0.0343  0.4806
   24SAPC  H14A 3118   2.102   6.838  11.107 -1.0952 -1.6884  2.5363
   24SAPC  H14B 3119   2.224   6.765  11.013  0.8397  0.4825  2.6102
   24SAPC  H14C 3120   2.056   6.757  10.960  0.5513  0.4205  0.2109
   24SAPC   C15 3121   1.953   6.627  11.169 -0.0713  0.3398  0.2074
   24SAPC  H15A 3122   1.927   6.715  11.225 -3.6097 -0.2172 -0.3191
   24SAPC  H15B 3123   1.878   6.612  11.093  0.9494 -1.2222 -0.5666
   24SAPC  H15C 3124   1.933   6.541  11.231 -0.5238 -0.0492 -0.4560
   24SAPC   C11 3125   2.241   6.508  10.944  0.5168  0.3535 -0.2878
   24SAPC  H11A 3126   2.321   6.504  11.021 -0.6010  1.5436  1.0071
   24SAPC  H11B 3127   2.268   6.593  10.878  0.4558  0.3187 -0.3569
   24SAPC     P 3128   2.261   6.249  10.901  0.0779 -0.2342 -0.6598
   24SAPC   O13 3129   2.256   6.233  11.051  0.2483  0.3536 -0.1693
   24SAPC   O14 3130   2.182   6.154  10.820 -0.6688  0.3055 -0.0440
   24SAPC   O12 3131   2.232   6.395  10.860 -0.4613 -0.2312 -0.0602
   24SAPC   O11 3132   2.411   6.228  10.854  0.0352 -0.1580 -0.0459
   24SAPC    C1 3133   2.510   6.330  10.837 -0.3870 -1.2138  0.3784
   24SAPC    HA 3134   2.501   6.393  10.928  2.9859  0.2300 -0.1275
   24SAPC    HB 3135   2.615   6.294  10.831  0.6133  1.6173 -1.6345
   24SAPC    C2 3136   2.479   6.415  10.712 -0.2831  0.1221  0.4192
   24SAPC    HS 3137   2.395   6.485  10.734 -1.4351 -0.4904 -1.7747
   24SAPC   O21 3138   2.428   6.325  10.612  0.3237  0.5447 -0.4637
   24SAPC   C21 3139   2.336   6.373  10.533 -0.3957 -0.1590  0.4031
   24SAPC   O22 3140   2.281   6.482  10.546 -0.0607 -0.4331  0.0757
   24SAPC   C22 3141   2.318   6.284  10.415  0.1820 -0.6096 -0.1168
   24SAPC   H2R 3142   2.418   6.254  10.377  0.5584  2.0526 -1.4512
   24SAPC   H2S 3143   2.267   6.192  10.449 -2.3242  0.4573 -0.8124
   24SAPC    C3 3144   2.605   6.484  10.659  0.0857 -1.0229 -0.0354
   24SAPC    HX 3145   2.687   6.411  10.641  0.8773 -0.0688 -0.3507
   24SAPC    HY 3146   2.636   6.551  10.742 -0.8810  1.7953 -1.8074
   24SAPC   O31 3147   2.580   6.560  10.539  0.4498  0.1487 -0.1116
   24SAPC   C31 3148   2.554   6.692  10.554 -0.4942 -0.5227 -0.3537
   24SAPC   O32 3149   2.558   6.747  10.662 -0.2133  0.1315 -0.6906
   24SAPC   C32 3150   2.530   6.762  10.418  0.5240  1.2774  0.5307
   24SAPC   H2X 3151   2.524   6.870  10.445 -0.8943  1.4495 -0.3864
   24SAPC   H2Y 3152   2.437   6.717  10.376  0.8761  0.6805  0.3780
   24SAPC   C23 3153   2.252   6.360  10.294 -0.2257 -0.1304  0.2102
   24SAPC   H3R 3154   2.291   6.463  10.279 -1.0527  0.2468  0.5870
   24SAPC   H3S 3155   2.144   6.359  10.318 -0.0893  1.9891  1.1776
   24SAPC   C24 3156   2.286   6.300  10.160 -0.0233  0.5675 -0.2289
   24SAPC   H4R 3157   2.270   6.191  10.163  1.4525  0.3272 -0.2703
   24SAPC   H4S 3158   2.396   6.309  10.144  0.0345 -1.8176 -1.5068
   24SAPC   C25 3159   2.196   6.359  10.052 -0.4964 -0.2188 -0.4538
   24SAPC   H5R 3160   2.099   6.395  10.089 -0.2273  0.1910 -0.1305
   24SAPC   C26 3161   2.236   6.400   9.928  0.4011 -0.0576 -0.6840
   24SAPC   H6R 3162   2.153   6.449   9.874 -0.9239 -0.8068  0.5842
   24SAPC   C27 3163   2.369   6.376   9.859  0.8125 -0.3353 -0.4488
   24SAPC   H7R 3164   2.356   6.298   9.781 -0.3764 -1.1346  0.5064
   24SAPC   H7S 3165   2.441   6.319   9.922  1.5879 -0.4605 -1.4350
   24SAPC   C28 3166   2.435   6.500   9.816  0.0693  0.8403  0.5575
   24SAPC   H8R 3167   2.515   6.536   9.882 -0.3890  0.5763  1.2642
   24SAPC   C29 3168   2.409   6.578   9.703 -0.7571 -0.1391 -0.1314
   24SAPC   H9R 3169   2.459   6.672   9.676  0.6672 -0.7660  0.2280
   24SAPC  C210 3170   2.305   6.551   9.597 -0.1881  0.3899 -0.8994
   24SAPC  H10R 3171   2.253   6.645   9.570 -1.1352  0.0785 -0.2223
   24SAPC  H10S 3172   2.228   6.482   9.639  1.6900 -1.0903  0.3049
   24SAPC  C211 3173   2.369   6.481   9.486 -0.4131  0.2016  0.5083
   24SAPC  H11R 3174   2.451   6.415   9.518  1.3719  0.3165 -3.1945
   24SAPC  C212 3175   2.367   6.505   9.353  0.4622  0.5870 -0.5416
   24SAPC  H12R 3176   2.421   6.441   9.282 -1.4498  0.6716 -2.1551
   24SAPC  C213 3177   2.285   6.611   9.280  0.1085  0.1123  0.9632
   24SAPC  H13R 3178   2.333   6.637   9.184 -0.9307  2.6524  1.0564
   24SAPC  H13S 3179   2.305   6.704   9.337  3.1419 -0.6937  1.4000
   24SAPC  C214 3180   2.136   6.580   9.262  0.7299  0.1078  0.0907
   24SAPC  H14R 3181   2.062   6.601   9.341 -2.2758 -1.7380 -1.9914
   24SAPC  C215 3182   2.084   6.505   9.156 -0.4719 -0.3570  0.2287
   24SAPC  H15R 3183   1.976   6.488   9.169 -0.7657  0.8387 -0.5036
   24SAPC  C216 3184   2.160   6.453   9.035  0.5121 -0.8185 -0.6192
   24SAPC  H16R 3185   2.258   6.504   9.039 -0.4449  1.0195  1.1295
   24SAPC  H16S 3186   2.109   6.475   8.939 -0.4681 -1.4068 -0.2505
   24SAPC  C217 3187   2.172   6.295   9.053  0.0072 -0.3128  0.5646
   24SAPC  H17R 3188   2.078   6.238   9.071  1.1661 -2.1048  1.1675
   24SAPC  H17S 3189   2.240   6.273   9.138  0.7175  1.1407  0.4022
   24SAPC  C218 3190   2.229   6.235   8.917  0.2176 -1.0714 -0.0671
   24SAPC  H18R 3191   2.339   6.236   8.927  0.3114  1.1020 -0.8726
   24SAPC  H18S 3192   2.205   6.305   8.834 -0.9285  0.6063  1.5928
   24SAPC  C219 3193   2.190   6.091   8.909 -0.9343  0.3474 -0.6753
   24SAPC  H19R 3194   2.187   6.044   9.009 -1.7006  0.0981 -0.8112
   24SAPC  H19S 3195   2.268   6.031   8.857  1.2035  2.4835 -0.1082
   24SAPC  C220 3196   2.055   6.085   8.843  0.0786  0.1614  0.3364
   24SAPC  H20R 3197   1.981   6.161   8.876 -1.7151  0.2589 -3.3260
   24SAPC  H20S 3198   2.002   5.994   8.878 -0.4040  0.4105  0.2718
   24SAPC  H20T 3199   2.057   6.093   8.732  1.3173 -0.5398  0.2941
   24SAPC   C33 3200   2.635   6.740  10.302  1.1162 -0.3399 -0.0532
   24SAPC   H3X 3201   2.654   6.632  10.283  0.4801 -0.2678 -1.2095
   24SAPC   H3Y 3202   2.732   6.780  10.337 -0.1344  0.4051  2.8188
   24SAPC   C34 3203   2.586   6.819  10.177  0.0568  0.3193 -0.6887
   24SAPC   H4X 3204   2.604   6.927  10.194  0.2512  0.3006 -0.7799
   24SAPC   H4Y 3205   2.476   6.809  10.172 -0.0006  1.4278 -1.9976
   24SAPC   C35 3206   2.674   6.785  10.060  0.2305 -0.0401 -0.1156
   24SAPC   H5X 3207   2.650   6.687  10.014 -2.7441 -0.1839  1.5416
   24SAPC   H5Y 3208   2.781   6.790  10.090  0.5160 -0.5477 -1.0221
   24SAPC   C36 3209   2.649   6.886   9.947 -0.5332  0.0572 -0.0305
   24SAPC   H6X 3210   2.702   6.983   9.966  0.1689 -0.4700  0.7668
   24SAPC   H6Y 3211   2.541   6.904   9.927 -0.3444  1.3287 -0.0300
   24SAPC   C37 3212   2.724   6.837   9.816 -0.1221 -0.6461 -0.5310
   24SAPC   H7X 3213   2.684   6.741   9.777  0.4594 -0.0988 -2.6328
   24SAPC   H7Y 3214   2.833   6.831   9.835 -0.0193  1.2653 -0.2985
   24SAPC   C38 3215   2.709   6.936   9.705 -0.2034  0.1714 -0.0447
   24SAPC   H8X 3216   2.757   7.033   9.731 -0.4297  0.8212 -1.9122
   24SAPC   H8Y 3217   2.604   6.970   9.690  0.2836  1.4186 -0.7669
   24SAPC   C39 3218   2.758   6.863   9.580  0.0929  0.3637 -0.1949
   24SAPC   H9X 3219   2.690   6.776   9.567 -0.9976  1.0222  0.8702
   24SAPC   H9Y 3220   2.860   6.825   9.602  0.2746  0.0034 -1.5714
   24SAPC  C310 3221   2.765   6.951   9.454  0.2460  1.1098 -0.6628
   24SAPC  H10X 3222   2.869   6.990   9.441  0.6525  0.2507 -0.0006
   24SAPC  H10Y 3223   2.692   7.035   9.459 -0.5735  0.4243 -0.9549
   24SAPC  C311 3224   2.737   6.868   9.325 -1.0402 -1.0875 -0.1676
   24SAPC  H11X 3225   2.761   6.932   9.237  0.8983 -1.6715 -0.1087
   24SAPC  H11Y 3226   2.632   6.830   9.316 -0.6730 -2.3514  0.5948
   24SAPC  C312 3227   2.842   6.755   9.321  0.6209 -1.0358 -0.8289
   24SAPC  H12X 3228   2.816   6.686   9.405 -2.4305 -0.1184 -0.9036
   24SAPC  H12Y 3229   2.946   6.793   9.330  0.3088 -0.4616  0.6194
   24SAPC  C313 3230   2.819   6.678   9.188  0.1446  0.0102  0.0315
   24SAPC  H13X 3231   2.825   6.739   9.096  1.7771 -0.7330 -0.3806
   24SAPC  H13Y 3232   2.716   6.639   9.204 -1.5516  3.2261 -2.0695
   24SAPC  C314 3233   2.922   6.567   9.181  0.4186  0.0287 -0.5993
   24SAPC  H14X 3234   2.923   6.523   9.283  1.4286  1.2433 -0.0636
   24SAPC  H14Y 3235   3.024   6.610   9.166  1.3639 -1.8323  0.1898
   24SAPC  C315 3236   2.889   6.460   9.073 -0.0583 -0.7798 -0.4154
   24SAPC  H15X 3237   2.882   6.512   8.976  1.2270  1.5161  0.6285
   24SAPC  H15Y 3238   2.789   6.419   9.099 -0.1321 -0.5695 -0.3617
   24SAPC  C316 3239   2.987   6.350   9.068  0.4289  0.0309  0.3560
   24SAPC  H16X 3240   3.089   6.375   9.032  0.6190 -1.1488  0.0081
   24SAPC  H16Y 3241   2.962   6.276   8.989 -1.5941  2.3077 -1.2931
   24SAPC  C317 3242   3.009   6.278   9.200 -0.6982 -0.0884 -0.1260
   24SAPC  H17X 3243   3.058   6.348   9.272 -1.2684  0.4847 -0.2810
   24SAPC  H17Y 3244   3.082   6.198   9.173 -2.2536 -1.0704 -1.6084
   24SAPC  C318 3245   2.880   6.227   9.266  0.6531 -0.7628 -0.4708
   24SAPC  H18X 3246   2.902   6.169   9.358 -1.7214  0.4590  0.9719
   24SAPC  H18Y 3247   2.824   6.157   9.200 -0.8183 -3.6860  3.5170
   24SAPC  H18Z 3248   2.799   6.296   9.298  0.1757 -1.5141 -0.0431
   25SAPC     N 3249   4.146   3.284   5.922 -0.1163 -0.2270  0.3869
   25SAPC   C12 3250   4.014   3.210   5.897 -0.3014  0.4819 -0.5042
   25SAPC  H12A 3251   3.996   3.202   5.791  0.5711 -1.7507 -0.5242
   25SAPC  H12B 3252   3.931   3.256   5.949  0.7872  0.4378  1.3584
   25SAPC   C13 3253   4.146   3.419   5.847 -0.2416 -0.0514 -0.2627
   25SAPC  H13A 3254   4.055   3.477   5.860  0.0068  0.4668 -0.7728
   25SAPC  H13B 3255   4.224   3.492   5.864  0.4066 -0.2834 -2.1236
   25SAPC  H13C 3256   4.159   3.409   5.741 -0.8342  0.9955 -0.4490
   25SAPC   C14 3257   4.157   3.320   6.064  0.9791 -0.0625 -0.8458
   25SAPC  H14A 3258   4.247   3.371   6.095 -0.6479  1.8048  1.2177
   25SAPC  H14B 3259   4.068   3.377   6.087  0.2109 -0.7832 -1.9462
   25SAPC  H14C 3260   4.155   3.233   6.128 -2.0716  1.4281  1.3582
   25SAPC   C15 3261   4.254   3.204   5.868 -0.3339 -0.0969 -0.3199
   25SAPC  H15A 3262   4.215   3.163   5.776 -2.0833  0.9086 -0.0558
   25SAPC  H15B 3263   4.343   3.265   5.857 -1.3552  1.0757 -2.7322
   25SAPC  H15C 3264   4.287   3.122   5.931 -1.1239  1.0720  1.7111
   25SAPC   C11 3265   4.008   3.064   5.940 -0.7417  0.1903  0.0346
   25SAPC  H11A 3266   4.096   3.012   5.897 -0.3637  0.9339 -0.1210
   25SAPC  H11B 3267   3.921   3.011   5.898  0.7233 -2.7424  0.4415
   25SAPC     P 3268   3.890   3.070   6.162  0.2650  0.9508 -0.4327
   25SAPC   O13 3269   3.829   3.201   6.143 -0.4241 -0.3555  0.3816
   25SAPC   O14 3270   3.795   2.957   6.138  0.2797  0.1968  0.2449
   25SAPC   O12 3271   4.021   3.043   6.082 -0.5470 -0.9756  0.0679
   25SAPC   O11 3272   3.941   3.049   6.313 -0.1360  0.2667  0.4248
   25SAPC    C1 3273   4.052   2.971   6.353 -0.0980  0.3997  0.3953
   25SAPC    HA 3274   4.080   2.901   6.272 -0.0450 -0.2222  0.9456
   25SAPC    HB 3275   4.143   3.032   6.365  0.4236 -0.0574 -1.0529
   25SAPC    C2 3276   4.028   2.893   6.489  0.8388 -0.6680  0.2198
   25SAPC    HS 3277   3.929   2.845   6.473 -0.4852  1.5353  1.3410
   25SAPC   O21 3278   4.019   2.992   6.595 -0.4654 -0.9988 -0.1189
   25SAPC   C21 3279   3.922   2.973   6.684  0.0496 -0.3889  0.1022
   25SAPC   O22 3280   3.838   2.889   6.681  0.3184  0.5405 -0.0404
   25SAPC   C22 3281   3.928   3.081   6.791 -0.2155 -0.1021 -0.1302
   25SAPC   H2R 3282   4.020   3.068   6.851 -0.3909  2.0770  0.7091
   25SAPC   H2S 3283   3.937   3.183   6.748  1.5543 -0.1494  0.0739
   25SAPC    C3 3284   4.149   2.801   6.528  1.0072  0.3582 -0.2588
   25SAPC    HX 3285   4.238   2.868   6.522  0.9666  0.3389 -1.1949
   25SAPC    HY 3286   4.166   2.726   6.448  0.2570 -0.4690  0.3346
   25SAPC   O31 3287   4.140   2.745   6.656 -0.6575  0.5057 -0.5020
   25SAPC   C31 3288   4.084   2.627   6.659  0.0879  0.3437 -0.2478
   25SAPC   O32 3289   4.037   2.568   6.564  0.0934  0.9137 -0.4389
   25SAPC   C32 3290   4.055   2.580   6.808 -0.5449 -0.1919  0.6610
   25SAPC   H2X 3291   4.107   2.648   6.879 -0.0849  0.3240 -0.1474
   25SAPC   H2Y 3292   4.094   2.476   6.802 -0.2317 -0.1565  1.8141
   25SAPC   C23 3293   3.814   3.081   6.895 -0.1713 -0.6572 -0.3171
   25SAPC   H3R 3294   3.803   2.987   6.952 -1.8538 -1.1612 -1.4299
   25SAPC   H3S 3295   3.723   3.081   6.831 -1.2023 -3.0994  1.0103
   25SAPC   C24 3296   3.830   3.203   6.980 -0.3730  0.0261  0.2755
   25SAPC   H4R 3297   3.731   3.219   7.029 -0.3861  0.9211 -0.0103
   25SAPC   H4S 3298   3.840   3.300   6.925 -1.8914  0.9325  1.4887
   25SAPC   C25 3299   3.942   3.190   7.081 -0.1454 -0.1163  0.1340
   25SAPC   H5R 3300   4.041   3.177   7.037 -0.6373  1.4551 -1.5908
   25SAPC   C26 3301   3.927   3.198   7.212 -0.2295 -0.3885 -0.1338
   25SAPC   H6R 3302   4.013   3.196   7.281 -0.0949 -0.0702 -0.2900
   25SAPC   C27 3303   3.798   3.218   7.291  0.5549  0.4307 -0.0440
   25SAPC   H7R 3304   3.705   3.187   7.239  0.3474 -0.2453  0.7211
   25SAPC   H7S 3305   3.790   3.326   7.316  1.3284  0.3241  0.7206
   25SAPC   C28 3306   3.811   3.134   7.420 -0.8793 -0.0384  0.5999
   25SAPC   H8R 3307   3.798   3.027   7.400  0.0279  0.0206 -0.3918
   25SAPC   C29 3308   3.815   3.189   7.540 -0.4420  1.2258 -0.0023
   25SAPC   H9R 3309   3.817   3.117   7.623  1.0374 -1.6971 -2.3782
   25SAPC  C210 3310   3.796   3.332   7.588 -0.4486 -0.9170 -0.3545
   25SAPC  H10R 3311   3.870   3.382   7.522  0.8869 -1.6900  0.5067
   25SAPC  H10S 3312   3.831   3.342   7.693  2.2811 -1.8098 -1.1153
   25SAPC  C211 3313   3.652   3.388   7.586 -0.9831 -0.2786 -0.1189
   25SAPC  H11R 3314   3.617   3.407   7.483  1.7170  0.2489 -1.0201
   25SAPC  C212 3315   3.577   3.422   7.686 -1.0571 -0.0694  0.0860
   25SAPC  H12R 3316   3.489   3.486   7.669 -0.8630 -0.4003 -2.4278
   25SAPC  C213 3317   3.611   3.416   7.830 -0.4393 -0.5979  0.4580
   25SAPC  H13R 3318   3.530   3.471   7.882 -0.6058  0.2694 -0.6721
   25SAPC  H13S 3319   3.703   3.472   7.857  0.4713 -1.3830 -0.8919
   25SAPC  C214 3320   3.633   3.275   7.880  0.4305  0.4005 -0.0787
   25SAPC  H14R 3321   3.717   3.225   7.829 -0.3892 -0.2722 -0.7905
   25SAPC  C215 3322   3.563   3.215   7.982  0.1489 -0.8031  0.2488
   25SAPC  H15R 3323   3.582   3.108   8.001  2.3782 -0.6645 -0.8291
   25SAPC  C216 3324   3.444   3.279   8.051 -0.3347 -0.2198  0.1171
   25SAPC  H16R 3325   3.350   3.230   8.018 -1.9770  2.1013  1.0534
   25SAPC  H16S 3326   3.423   3.385   8.024  1.8477 -0.2951 -2.2539
   25SAPC  C217 3327   3.447   3.271   8.212  0.0054 -0.1986  0.5604
   25SAPC  H17R 3328   3.546   3.268   8.262  0.3695  1.3136 -0.0166
   25SAPC  H17S 3329   3.417   3.168   8.242  0.0912  0.0344  1.4772
   25SAPC  C218 3330   3.349   3.367   8.279 -0.5026 -0.6671  0.2043
   25SAPC  H18R 3331   3.270   3.380   8.201  1.2132 -2.6732 -2.0273
   25SAPC  H18S 3332   3.394   3.464   8.308 -0.2914 -1.0015  1.0151
   25SAPC  C219 3333   3.273   3.308   8.402 -0.2879 -0.1478 -0.0663
   25SAPC  H19R 3334   3.214   3.387   8.454 -1.8168 -1.1235 -0.2680
   25SAPC  H19S 3335   3.353   3.285   8.475 -0.4725 -0.5053  0.0228
   25SAPC  C220 3336   3.192   3.185   8.371  0.7931  0.2404 -0.9721
   25SAPC  H20R 3337   3.257   3.095   8.369  0.6456  0.1121 -3.8400
   25SAPC  H20S 3338   3.124   3.206   8.286 -2.2852 -1.2557  0.9193
   25SAPC  H20T 3339   3.125   3.154   8.455  1.1467 -0.2521 -0.8646
   25SAPC   C33 3340   3.906   2.571   6.838 -0.3097  0.1730  0.1874
   25SAPC   H3X 3341   3.860   2.481   6.790  1.7690 -1.1270  0.4702
   25SAPC   H3Y 3342   3.857   2.659   6.792 -0.7561 -0.9416 -1.5667
   25SAPC   C34 3343   3.868   2.556   6.994  0.3494  0.3543  0.4208
   25SAPC   H4X 3344   3.890   2.455   7.034 -0.3785 -0.6599 -1.5415
   25SAPC   H4Y 3345   3.757   2.547   6.993  0.4739 -2.0315  0.0543
   25SAPC   C35 3346   3.901   2.681   7.073 -0.9973 -0.2121  0.5014
   25SAPC   H5X 3347   3.866   2.768   7.013 -0.0037  1.0043  1.6327
   25SAPC   H5Y 3348   4.011   2.691   7.089 -1.1024 -1.6816  2.5637
   25SAPC   C36 3349   3.834   2.685   7.213  0.0360  0.4757 -0.3947
   25SAPC   H6X 3350   3.727   2.660   7.194  0.0552  1.3816 -1.9203
   25SAPC   H6Y 3351   3.839   2.794   7.236 -2.2920  0.7609 -0.9036
   25SAPC   C37 3352   3.899   2.599   7.322 -0.4811  0.1993 -0.0597
   25SAPC   H7X 3353   4.009   2.606   7.333 -0.7989  3.1011  2.9586
   25SAPC   H7Y 3354   3.876   2.498   7.282  0.2714  0.6020 -1.6127
   25SAPC   C38 3355   3.832   2.612   7.467 -0.5665 -0.1200  0.8552
   25SAPC   H8X 3356   3.727   2.582   7.444 -0.1944  0.4395 -2.0240
   25SAPC   H8Y 3357   3.832   2.715   7.509 -2.8809 -0.3445  1.5812
   25SAPC   C39 3358   3.889   2.517   7.569 -0.8447  0.0531  0.3649
   25SAPC   H9X 3359   3.982   2.561   7.611 -0.0065 -2.7990  1.7297
   25SAPC   H9Y 3360   3.924   2.430   7.511  5.2753  1.4111  1.3254
   25SAPC  C310 3361   3.789   2.478   7.689  0.4034  0.1189  0.4138
   25SAPC  H10X 3362   3.710   2.425   7.632  0.1007  1.9344 -0.9469
   25SAPC  H10Y 3363   3.747   2.575   7.724 -0.4441 -0.5569  1.3395
   25SAPC  C311 3364   3.857   2.397   7.804  0.9983 -0.0862 -0.2175
   25SAPC  H11X 3365   3.952   2.447   7.834  1.2716 -1.0715  0.6279
   25SAPC  H11Y 3366   3.875   2.295   7.766  0.5585  0.1992 -1.2257
   25SAPC  C312 3367   3.764   2.391   7.928 -0.0607  0.1183  0.7056
   25SAPC  H12X 3368   3.670   2.336   7.904  0.4406 -1.0306  1.3010
   25SAPC  H12Y 3369   3.744   2.498   7.952  0.8841  0.7078 -1.0106
   25SAPC  C313 3370   3.835   2.318   8.038 -0.4824  0.0103  0.0857
   25SAPC  H13X 3371   3.799   2.353   8.138 -1.6022  0.5688 -0.4796
   25SAPC  H13Y 3372   3.942   2.347   8.029  1.0001 -4.9485 -0.7053
   25SAPC  C314 3373   3.829   2.174   8.010  1.4150  0.3404  0.0489
   25SAPC  H14X 3374   3.881   2.152   7.914  1.8973  0.1479  0.3470
   25SAPC  H14Y 3375   3.725   2.139   7.997  0.5397  2.7901 -0.0837
   25SAPC  C315 3376   3.881   2.089   8.130 -0.1739  0.1585  0.9257
   25SAPC  H15X 3377   3.798   2.078   8.203 -1.4935  1.6832 -0.2788
   25SAPC  H15Y 3378   3.967   2.140   8.178 -0.0000  0.8163 -0.0507
   25SAPC  C316 3379   3.910   1.940   8.084  0.5355  0.4262 -0.2591
   25SAPC  H16X 3380   4.011   1.951   8.037 -0.5970  2.0475 -2.5432
   25SAPC  H16Y 3381   3.844   1.903   8.003 -1.2188 -0.7459  1.6339
   25SAPC  C317 3382   3.901   1.839   8.196  0.3952  0.3110 -0.0153
   25SAPC  H17X 3383   3.944   1.743   8.159 -0.9544  0.4544 -2.1876
   25SAPC  H17Y 3384   3.796   1.824   8.229  0.0907 -0.0572 -1.1093
   25SAPC  C318 3385   3.963   1.887   8.327  0.1277 -0.2364  0.2757
   25SAPC  H18X 3386   3.893   1.945   8.390 -1.2566 -1.7183  0.1834
   25SAPC  H18Y 3387   4.042   1.960   8.302  0.3904 -0.4332  0.5275
   25SAPC  H18Z 3388   4.004   1.805   8.390  2.9123  0.2938 -0.7327
   26SAPC     N 3389   2.375   5.946   6.266 -0.6028  0.1323 -0.8888
   26SAPC   C12 3390   2.248   5.856   6.292 -0.2148 -0.1510  0.1126
   26SAPC  H12A 3391   2.171   5.898   6.228 -0.3200 -1.7050 -0.8343
   26SAPC  H12B 3392   2.223   5.854   6.397  2.1354 -0.2589  0.7269
   26SAPC   C13 3393   2.430   5.908   6.132 -0.2558 -0.9634 -0.2207
   26SAPC  H13A 3394   2.512   5.977   6.118  0.0953 -0.3405  3.7288
   26SAPC  H13B 3395   2.475   5.810   6.135  0.9690 -0.4683 -1.2630
   26SAPC  H13C 3396   2.341   5.917   6.071 -1.4050  0.0226  1.5179
   26SAPC   C14 3397   2.327   6.089   6.248  0.1508  0.1162 -0.6595
   26SAPC  H14A 3398   2.301   6.128   6.345 -0.4141  0.0201 -0.7733
   26SAPC  H14B 3399   2.402   6.155   6.207  1.4058 -1.3101 -0.7553
   26SAPC  H14C 3400   2.242   6.098   6.182  0.3404  1.1629 -0.7910
   26SAPC   C15 3401   2.491   5.929   6.363 -0.0046 -0.2963  0.1085
   26SAPC  H15A 3402   2.570   5.993   6.327  2.0483 -3.0628 -0.7112
   26SAPC  H15B 3403   2.460   5.955   6.464  0.5390 -0.7163  0.3899
   26SAPC  H15C 3404   2.525   5.827   6.372  0.8219  0.0013  0.4702
   26SAPC   C11 3405   2.259   5.708   6.269 -0.5947  0.1165  0.3808
   26SAPC  H11A 3406   2.276   5.688   6.161  0.4975  1.4932  0.2793
   26SAPC  H11B 3407   2.164   5.660   6.301  0.1654 -1.3995  0.4557
   26SAPC     P 3408   2.349   5.594   6.489  0.2245  0.1264  0.4888
   26SAPC   O13 3409   2.293   5.457   6.484  0.1011  0.1927 -0.6095
   26SAPC   O14 3410   2.476   5.609   6.565 -0.0996  0.0305  0.2694
   26SAPC   O12 3411   2.367   5.650   6.343 -0.4263 -0.7140  0.6103
   26SAPC   O11 3412   2.244   5.694   6.542 -0.4213 -0.2828  0.1886
   26SAPC    C1 3413   2.140   5.657   6.639  0.2265  0.7220 -0.1228
   26SAPC    HA 3414   2.052   5.724   6.623 -2.3286 -2.2346  0.4689
   26SAPC    HB 3415   2.107   5.551   6.632  0.5680  0.4303  1.9602
   26SAPC    C2 3416   2.172   5.674   6.792 -0.3061 -0.0875 -0.0633
   26SAPC    HS 3417   2.080   5.650   6.848 -0.8363 -0.3897 -1.0389
   26SAPC   O21 3418   2.205   5.813   6.806  0.2633  0.6080  0.5565
   26SAPC   C21 3419   2.193   5.858   6.932 -0.0053  0.2386  1.3226
   26SAPC   O22 3420   2.161   5.795   7.028  0.1229  0.2356  0.0458
   26SAPC   C22 3421   2.227   6.006   6.928 -0.2413 -0.5242  0.4593
   26SAPC   H2R 3422   2.332   5.999   6.894 -0.1106 -1.3173  0.9897
   26SAPC   H2S 3423   2.166   6.059   6.851  2.6615  1.5155 -0.5887
   26SAPC    C3 3424   2.292   5.585   6.838  1.1087  0.1680  0.4969
   26SAPC    HX 3425   2.382   5.649   6.826  0.9885  1.5378  5.0441
   26SAPC    HY 3426   2.301   5.506   6.760 -0.0404  2.4236 -2.0942
   26SAPC   O31 3427   2.281   5.524   6.970 -0.5649 -0.0559  0.2339
   26SAPC   C31 3428   2.371   5.569   7.059  0.2388 -0.2376 -0.2707
   26SAPC   O32 3429   2.461   5.651   7.041  0.0042 -0.4035 -0.2724
   26SAPC   C32 3430   2.364   5.477   7.181  0.5657  0.2220 -0.4961
   26SAPC   H2X 3431   2.464   5.430   7.188  0.2355 -0.3125  1.2204
   26SAPC   H2Y 3432   2.278   5.406   7.179  0.9177 -0.2161 -2.9912
   26SAPC   C23 3433   2.214   6.068   7.065 -1.2854 -0.0728  0.3506
   26SAPC   H3R 3434   2.266   6.166   7.061  0.2195 -0.8802 -2.2970
   26SAPC   H3S 3435   2.263   6.009   7.147 -2.3467 -1.3184  0.1294
   26SAPC   C24 3436   2.069   6.086   7.105  0.2724 -0.1022  0.0682
   26SAPC   H4R 3437   2.056   6.117   7.210 -0.9089  2.5987 -0.7778
   26SAPC   H4S 3438   2.018   5.988   7.097  1.5296 -0.6337 -3.4118
   26SAPC   C25 3439   2.004   6.186   7.014  0.6533 -0.1435 -0.4358
   26SAPC   H5R 3440   1.954   6.150   6.923  2.4777  0.1005 -1.5863
   26SAPC   C26 3441   2.003   6.323   7.030 -0.3889 -0.1546 -0.8222
   26SAPC   H6R 3442   1.975   6.390   6.948 -1.0178 -1.4867 -1.7268
   26SAPC   C27 3443   2.068   6.392   7.151 -0.4590 -0.4067 -0.1502
   26SAPC   H7R 3444   2.130   6.482   7.130  0.9954 -1.0978  0.9866
   26SAPC   H7S 3445   2.145   6.330   7.201 -0.9042 -1.6502 -0.9711
   26SAPC   C28 3446   1.965   6.432   7.246  0.3983  0.2206  0.0917
   26SAPC   H8R 3447   1.870   6.469   7.206  0.7324  3.1815  1.7327
   26SAPC   C29 3448   1.970   6.419   7.381 -1.0771  0.0360 -0.4096
   26SAPC   H9R 3449   1.899   6.482   7.436  1.0004  1.0605  1.2653
   26SAPC  C210 3450   2.091   6.372   7.467 -0.4532  0.2706 -0.4684
   26SAPC  H10R 3451   2.185   6.345   7.413 -0.1626 -0.5481  0.4276
   26SAPC  H10S 3452   2.063   6.279   7.521 -0.3891 -0.6015 -1.8901
   26SAPC  C211 3453   2.132   6.460   7.585 -0.1075  0.0302  0.0496
   26SAPC  H11R 3454   2.225   6.516   7.565  0.5475 -0.6480  1.1086
   26SAPC  C212 3455   2.076   6.472   7.710  0.3238 -0.1756 -0.3817
   26SAPC  H12R 3456   2.129   6.544   7.774  1.5205 -0.9200 -0.5082
   26SAPC  C213 3457   1.956   6.395   7.766  0.0031  0.3082 -1.0934
   26SAPC  H13R 3458   1.921   6.321   7.691 -2.5441 -0.4959  0.7558
   26SAPC  H13S 3459   1.866   6.459   7.761  0.5219  1.0133 -1.6487
   26SAPC  C214 3460   1.984   6.325   7.903  0.1250  0.4698 -0.1139
   26SAPC  H14R 3461   1.993   6.216   7.888 -2.4837  0.3940 -1.7011
   26SAPC  C215 3462   1.991   6.375   8.026  0.6905 -0.7512 -0.5581
   26SAPC  H15R 3463   2.039   6.307   8.097  1.9364 -1.5111 -2.0521
   26SAPC  C216 3464   1.981   6.521   8.072  0.2650  0.3281  0.0731
   26SAPC  H16R 3465   1.936   6.581   7.990  0.4383  1.3416  0.7062
   26SAPC  H16S 3466   2.088   6.548   8.080  0.5408 -1.2317  2.9241
   26SAPC  C217 3467   1.892   6.547   8.194  0.6197 -0.2941  0.1230
   26SAPC  H17R 3468   1.786   6.528   8.167  0.0878  0.7249  1.3697
   26SAPC  H17S 3469   1.909   6.655   8.211 -0.4118  0.1083 -1.2111
   26SAPC  C218 3470   1.924   6.466   8.325  0.5988  0.0749  0.0697
   26SAPC  H18R 3471   1.876   6.530   8.401  0.5331 -0.9954  0.9539
   26SAPC  H18S 3472   2.029   6.466   8.359 -0.1974 -1.1605  2.7895
   26SAPC  C219 3473   1.863   6.326   8.323 -0.4115  0.3543 -0.2147
   26SAPC  H19R 3474   1.914   6.255   8.255  2.8102  0.8342  1.5126
   26SAPC  H19S 3475   1.760   6.343   8.284  0.3080  2.0084 -1.5216
   26SAPC  C220 3476   1.850   6.255   8.460 -0.0133  0.2320  0.3512
   26SAPC  H20R 3477   1.795   6.325   8.526  1.0957  0.3801  1.1461
   26SAPC  H20S 3478   1.945   6.222   8.507 -0.9442 -0.6694  1.6741
   26SAPC  H20T 3479   1.800   6.156   8.455  3.2140 -1.5505 -0.2098
   26SAPC   C33 3480   2.348   5.562   7.310  0.2224 -0.2208 -0.2515
   26SAPC   H3X 3481   2.253   5.620   7.302  1.0135  0.9860 -1.4049
   26SAPC   H3Y 3482   2.431   5.633   7.330 -0.0028 -0.0632  0.1302
   26SAPC   C34 3483   2.343   5.480   7.441 -0.2716 -0.0020  0.1481
   26SAPC   H4X 3484   2.426   5.406   7.431 -0.0915  0.3131 -0.8276
   26SAPC   H4Y 3485   2.245   5.428   7.440 -0.8733  1.0951  0.5380
   26SAPC   C35 3486   2.342   5.552   7.572  0.4216 -0.1099 -0.0999
   26SAPC   H5X 3487   2.257   5.622   7.582 -0.6043 -1.4321  0.9460
   26SAPC   H5Y 3488   2.423   5.627   7.580 -0.8452  1.1471  1.4294
   26SAPC   C36 3489   2.339   5.473   7.699  0.3135  0.4392  1.0897
   26SAPC   H6X 3490   2.416   5.393   7.697  0.9507  1.0527  0.0732
   26SAPC   H6Y 3491   2.244   5.417   7.714  1.8160 -2.4873  0.3299
   26SAPC   C37 3492   2.368   5.552   7.823  0.4708 -0.5069 -0.1883
   26SAPC   H7X 3493   2.300   5.639   7.834  2.2268  0.8122  0.6693
   26SAPC   H7Y 3494   2.468   5.600   7.829 -1.3154  3.6218 -0.6495
   26SAPC   C38 3495   2.339   5.458   7.949  0.2653  0.7854 -0.3783
   26SAPC   H8X 3496   2.395   5.364   7.927  0.9252  0.5195  2.0528
   26SAPC   H8Y 3497   2.232   5.429   7.957  0.6540 -0.4558  0.7452
   26SAPC   C39 3498   2.389   5.530   8.079  0.3209 -0.1075  0.1373
   26SAPC   H9X 3499   2.346   5.632   8.083  0.0832 -0.2142  0.2667
   26SAPC   H9Y 3500   2.498   5.536   8.055 -0.0645 -1.8233 -2.4946
   26SAPC  C310 3501   2.359   5.457   8.204  0.2514 -0.7091 -0.5361
   26SAPC  H10X 3502   2.397   5.353   8.213  1.7172 -0.0556  1.4571
   26SAPC  H10Y 3503   2.250   5.442   8.192  0.2226 -1.6378  0.6874
   26SAPC  C311 3504   2.400   5.550   8.326  0.0772 -0.5690  0.4636
   26SAPC  H11X 3505   2.356   5.650   8.310 -0.3670 -0.7060  0.8042
   26SAPC  H11Y 3506   2.511   5.553   8.333  0.1080 -0.9148  0.1662
   26SAPC  C312 3507   2.346   5.489   8.453  0.2149 -0.0842  0.3247
   26SAPC  H12X 3508   2.241   5.462   8.431  1.2454 -3.1052 -1.3611
   26SAPC  H12Y 3509   2.345   5.564   8.536 -0.4155  0.4787 -0.1855
   26SAPC  C313 3510   2.422   5.362   8.492  0.3712 -0.1389  0.4462
   26SAPC  H13X 3511   2.518   5.390   8.539  0.1190  1.2558  0.1625
   26SAPC  H13Y 3512   2.443   5.289   8.410 -0.9446  0.9501 -0.9167
   26SAPC  C314 3513   2.340   5.281   8.596  0.2587 -0.6460 -0.0015
   26SAPC  H14X 3514   2.393   5.184   8.603  2.4220  0.5381  1.6482
   26SAPC  H14Y 3515   2.240   5.257   8.556  0.7854 -0.7293 -1.3230
   26SAPC  C315 3516   2.335   5.357   8.726 -0.0239  0.5261  0.3316
   26SAPC  H15X 3517   2.271   5.448   8.724 -1.6304 -0.5418  1.3121
   26SAPC  H15Y 3518   2.442   5.380   8.745  0.5555 -2.8232  1.9300
   26SAPC  C316 3519   2.288   5.264   8.841 -0.7442  0.4875  0.5320
   26SAPC  H16X 3520   2.363   5.182   8.850 -0.5706  0.7368  1.4814
   26SAPC  H16Y 3521   2.190   5.214   8.830  0.0120 -1.4046  1.8252
   26SAPC  C317 3522   2.295   5.345   8.974  0.3771  0.1247 -0.4882
   26SAPC  H17X 3523   2.232   5.436   8.970  1.3538  0.7910 -1.5785
   26SAPC  H17Y 3524   2.402   5.375   8.985  0.1130  0.6331  0.7768
   26SAPC  C318 3525   2.238   5.265   9.095  0.3363  0.5360  0.2543
   26SAPC  H18X 3526   2.297   5.171   9.104  0.9775  0.7150 -1.5738
   26SAPC  H18Y 3527   2.128   5.255   9.086  0.2528  0.1656  1.5555
   26SAPC  H18Z 3528   2.263   5.328   9.183 -1.1377  2.4343 -0.6178
   27SAPC     N 3529   4.189   6.121   6.272 -0.1458  0.5988  0.4275
   27SAPC   C12 3530   4.215   6.117   6.421  0.2089 -0.1675  0.2199
   27SAPC  H12A 3531   4.273   6.203   6.453 -0.7375  0.3999  0.4556
   27SAPC  H12B 3532   4.288   6.043   6.450  1.3707  0.5318 -0.8217
   27SAPC   C13 3533   4.148   6.264   6.246  1.2053 -0.0186 -0.0425
   27SAPC  H13A 3534   4.072   6.286   6.318 -0.7934  0.3084 -2.1343
   27SAPC  H13B 3535   4.243   6.315   6.254  1.9673 -0.8776 -2.4394
   27SAPC  H13C 3536   4.116   6.274   6.143  0.0053 -0.1059  0.3109
   27SAPC   C14 3537   4.312   6.101   6.197  0.1800 -0.0245 -0.2427
   27SAPC  H14A 3538   4.286   6.106   6.093  0.3974 -1.2588 -0.3668
   27SAPC  H14B 3539   4.388   6.172   6.229 -0.0325 -0.7627  2.1427
   27SAPC  H14C 3540   4.355   6.002   6.195 -0.3479 -0.2843 -3.3154
   27SAPC   C15 3541   4.089   6.022   6.224 -0.5162 -0.3022  0.4859
   27SAPC  H15A 3542   4.057   6.049   6.125 -0.6092 -2.4470 -0.1231
   27SAPC  H15B 3543   4.133   5.924   6.219 -0.4658 -0.2418 -0.4532
   27SAPC  H15C 3544   4.007   6.019   6.295 -1.1780  0.7406 -0.2121
   27SAPC   C11 3545   4.091   6.103   6.515  0.8880 -0.0672 -0.9955
   27SAPC  H11A 3546   4.121   6.118   6.621  0.2173 -0.0090 -0.8063
   27SAPC  H11B 3547   4.050   6.000   6.507  1.7155 -0.4899  0.0097
   27SAPC     P 3548   3.974   6.340   6.553  0.0961  0.0554  0.4011
   27SAPC   O13 3549   4.092   6.414   6.511 -0.5394  0.0967 -0.4681
   27SAPC   O14 3550   3.846   6.406   6.526 -0.5057 -0.4289  0.5746
   27SAPC   O12 3551   3.982   6.190   6.488 -0.8938  0.1780 -0.1391
   27SAPC   O11 3552   3.975   6.300   6.711  0.5414  0.0831 -0.8202
   27SAPC    C1 3553   3.874   6.211   6.762  0.3962  0.2999  0.0742
   27SAPC    HA 3554   3.776   6.264   6.764 -0.2216 -0.7191 -1.2311
   27SAPC    HB 3555   3.871   6.120   6.697  0.6420  1.8192 -2.1978
   27SAPC    C2 3556   3.897   6.164   6.908  0.4998  0.0731  0.4902
   27SAPC    HS 3557   3.818   6.093   6.941 -0.3948  0.8573  0.0669
   27SAPC   O21 3558   3.887   6.274   6.996 -0.4837  0.3018 -0.0810
   27SAPC   C21 3559   3.767   6.322   7.024  0.0861 -0.5081  0.0426
   27SAPC   O22 3560   3.661   6.270   6.991  0.0069  0.4951 -0.6343
   27SAPC   C22 3561   3.785   6.436   7.124 -0.2098 -0.5942 -1.0006
   27SAPC   H2R 3562   3.844   6.516   7.075 -0.6341 -0.2705 -0.9858
   27SAPC   H2S 3563   3.682   6.476   7.122 -0.7885 -2.0109 -0.8786
   27SAPC    C3 3564   4.029   6.088   6.918  0.2838  0.1903  0.3247
   27SAPC    HX 3565   4.107   6.140   6.858  0.7109  0.3053  0.9679
   27SAPC    HY 3566   4.019   5.990   6.866 -0.4763  0.7775 -0.6760
   27SAPC   O31 3567   4.076   6.070   7.055  0.0730 -0.3230  0.6306
   27SAPC   C31 3568   4.155   6.158   7.108 -0.0402 -0.9294 -0.4118
   27SAPC   O32 3569   4.184   6.261   7.050 -0.1168 -0.0617  0.3623
   27SAPC   C32 3570   4.211   6.109   7.236  0.3430  0.6037 -0.2301
   27SAPC   H2X 3571   4.319   6.090   7.216  0.2948  0.5500 -0.4398
   27SAPC   H2Y 3572   4.171   6.011   7.269  0.4560  0.7146  0.2423
   27SAPC   C23 3573   3.835   6.402   7.266  0.3621 -0.1945  0.0323
   27SAPC   H3R 3574   3.919   6.330   7.274  2.2532  1.9235  0.1928
   27SAPC   H3S 3575   3.743   6.346   7.293 -0.7502  2.2640  1.7231
   27SAPC   C24 3576   3.847   6.525   7.357 -0.1413 -0.2279 -0.3007
   27SAPC   H4R 3577   3.835   6.498   7.464  1.4147  0.2408  0.0099
   27SAPC   H4S 3578   3.763   6.593   7.329  0.0127  0.2333  0.3460
   27SAPC   C25 3579   3.977   6.586   7.316  0.3705  0.4556 -0.5633
   27SAPC   H5R 3580   3.991   6.613   7.211  1.6987  0.8584 -0.3079
   27SAPC   C26 3581   4.071   6.610   7.406 -0.4974 -0.6091  0.6434
   27SAPC   H6R 3582   4.165   6.653   7.367 -2.0829  3.8818  1.1899
   27SAPC   C27 3583   4.076   6.591   7.555  0.4842  0.5736  0.6295
   27SAPC   H7R 3584   4.180   6.602   7.591  1.0076  2.7563 -1.3159
   27SAPC   H7S 3585   4.032   6.492   7.581 -0.2375  0.5740 -0.5174
   27SAPC   C28 3586   3.988   6.679   7.633  0.2014 -0.0908 -0.7160
   27SAPC   H8R 3587   3.901   6.713   7.574  1.3067  0.0502 -2.3530
   27SAPC   C29 3588   3.996   6.718   7.760 -0.9246 -0.2247 -0.0578
   27SAPC   H9R 3589   3.918   6.787   7.797  0.1316  1.9884 -1.7251
   27SAPC  C210 3590   4.108   6.685   7.857 -0.2258 -0.2510  0.5141
   27SAPC  H10R 3591   4.178   6.612   7.809  0.7526  1.2876 -0.4856
   27SAPC  H10S 3592   4.068   6.635   7.948 -0.3508 -2.3762 -0.6192
   27SAPC  C211 3593   4.169   6.821   7.886 -0.1461  0.5330  0.4366
   27SAPC  H11R 3594   4.180   6.889   7.800 -1.0855 -2.5556 -2.3234
   27SAPC  C212 3595   4.186   6.879   8.003 -0.8123  0.3647 -0.0158
   27SAPC  H12R 3596   4.234   6.978   7.998 -1.1573  0.5559  0.4122
   27SAPC  C213 3597   4.152   6.825   8.139 -0.2916  0.0187 -0.9945
   27SAPC  H13R 3598   4.064   6.757   8.137 -0.6137  0.4492 -1.8676
   27SAPC  H13S 3599   4.118   6.908   8.204  0.7147  0.2432 -0.7289
   27SAPC  C214 3600   4.261   6.766   8.228  0.1293  0.5771  0.4723
   27SAPC  H14R 3601   4.343   6.718   8.173 -0.7239  1.4048 -1.6408
   27SAPC  C215 3602   4.268   6.761   8.362 -0.3574  0.6977  0.0658
   27SAPC  H15R 3603   4.352   6.719   8.418 -0.0938  1.8789  0.5871
   27SAPC  C216 3604   4.166   6.804   8.465 -0.3265  0.2176  0.1836
   27SAPC  H16R 3605   4.087   6.729   8.487  0.0289 -0.7685 -1.6977
   27SAPC  H16S 3606   4.108   6.894   8.438  0.3275  0.9358  1.1133
   27SAPC  C217 3607   4.236   6.852   8.601  0.5296 -0.2526 -0.2892
   27SAPC  H17R 3608   4.281   6.949   8.573 -2.0462  0.7450 -1.2676
   27SAPC  H17S 3609   4.304   6.777   8.647  1.2731 -0.3793 -1.5403
   27SAPC  C218 3610   4.121   6.908   8.693  0.1268 -0.6698 -0.7013
   27SAPC  H18R 3611   4.041   6.967   8.642  0.6874  0.6786 -0.0621
   27SAPC  H18S 3612   4.169   6.982   8.760 -3.9584  1.3952  0.2650
   27SAPC  C219 3613   4.043   6.796   8.764 -0.7898  0.2495 -0.0322
   27SAPC  H19R 3614   4.051   6.698   8.712  0.6970  0.1989  0.2522
   27SAPC  H19S 3615   3.940   6.828   8.792 -0.6617 -0.0734  0.8588
   27SAPC  C220 3616   4.110   6.762   8.902 -0.4803 -0.6146 -0.0994
   27SAPC  H20R 3617   4.218   6.735   8.893 -0.2843 -0.9178  2.4361
   27SAPC  H20S 3618   4.058   6.685   8.962  0.1160  0.2897  1.6279
   27SAPC  H20T 3619   4.107   6.859   8.957 -0.3508 -0.3374 -0.5709
   27SAPC   C33 3620   4.191   6.210   7.353 -0.6991  0.2286  0.3146
   27SAPC   H3X 3621   4.083   6.233   7.369 -0.3480  1.0114  1.7382
   27SAPC   H3Y 3622   4.250   6.299   7.323  0.5231 -0.9365 -0.8852
   27SAPC   C34 3623   4.255   6.159   7.478 -0.3018 -0.1124 -0.0269
   27SAPC   H4X 3624   4.357   6.127   7.446 -0.2910 -0.7444  0.6015
   27SAPC   H4Y 3625   4.190   6.073   7.506 -0.1538  0.3561  1.9519
   27SAPC   C35 3626   4.260   6.259   7.590 -0.3309  0.1409  0.5933
   27SAPC   H5X 3627   4.153   6.289   7.594 -0.7556  1.1195 -6.1880
   27SAPC   H5Y 3628   4.321   6.350   7.573 -1.4747  0.8579  0.2928
   27SAPC   C36 3629   4.318   6.210   7.731  0.1812 -0.1924  0.1006
   27SAPC   H6X 3630   4.422   6.174   7.717  0.7882  1.3966  0.3019
   27SAPC   H6Y 3631   4.252   6.123   7.754 -0.1929 -0.6622 -2.4862
   27SAPC   C37 3632   4.321   6.319   7.838  0.0753 -0.7344  0.2185
   27SAPC   H7X 3633   4.225   6.374   7.832  1.0585  1.1746  1.1350
   27SAPC   H7Y 3634   4.406   6.386   7.814 -0.9558  0.6069  0.1923
   27SAPC   C38 3635   4.338   6.251   7.977  0.1789  0.8452  0.4789
   27SAPC   H8X 3636   4.434   6.197   7.990  0.6399  1.0312 -1.8057
   27SAPC   H8Y 3637   4.259   6.174   7.990 -0.2642  1.2008 -0.0362
   27SAPC   C39 3638   4.329   6.353   8.090 -0.1009  0.1985  0.4906
   27SAPC   H9X 3639   4.228   6.399   8.091  0.0083  0.4260  0.8816
   27SAPC   H9Y 3640   4.402   6.435   8.075 -1.0161  1.2359  1.5063
   27SAPC  C310 3641   4.346   6.296   8.234  0.7966  0.2579  0.0669
   27SAPC  H10X 3642   4.450   6.258   8.232  0.7054 -0.0072  0.2888
   27SAPC  H10Y 3643   4.278   6.210   8.255  2.5607 -1.2416 -0.1473
   27SAPC  C311 3644   4.338   6.399   8.341  0.5850 -0.0324 -0.3377
   27SAPC  H11X 3645   4.247   6.459   8.318  0.1554 -1.0448 -1.3654
   27SAPC  H11Y 3646   4.422   6.471   8.327 -0.5972  1.3715 -0.4500
   27SAPC  C312 3647   4.337   6.328   8.481  0.2786 -0.3736  0.2469
   27SAPC  H12X 3648   4.419   6.253   8.491  0.4964  0.0949  2.5335
   27SAPC  H12Y 3649   4.240   6.274   8.488  0.7177 -1.1655  0.3443
   27SAPC  C313 3650   4.331   6.428   8.603  0.5221  0.0881  0.5489
   27SAPC  H13X 3651   4.301   6.368   8.691  0.3771  0.0589  0.4802
   27SAPC  H13Y 3652   4.246   6.496   8.579  0.5998 -0.5260 -1.7333
   27SAPC  C314 3653   4.455   6.519   8.628  0.3111  0.5523 -0.0940
   27SAPC  H14X 3654   4.460   6.593   8.546  0.5395  1.9231  1.1200
   27SAPC  H14Y 3655   4.535   6.443   8.618 -0.0750  0.3088 -1.5003
   27SAPC  C315 3656   4.457   6.570   8.775  0.3077 -0.1821  0.4881
   27SAPC  H15X 3657   4.467   6.485   8.847 -0.2897  0.4539  1.3481
   27SAPC  H15Y 3658   4.366   6.623   8.809 -0.6413 -1.0238 -0.6893
   27SAPC  C316 3659   4.584   6.652   8.800 -0.0035 -0.4474  0.0835
   27SAPC  H16X 3660   4.571   6.752   8.753 -2.8517 -1.3081 -1.1711
   27SAPC  H16Y 3661   4.665   6.593   8.753 -0.0342  0.4402 -1.1384
   27SAPC  C317 3662   4.610   6.668   8.952 -0.1291  0.6010 -0.0520
   27SAPC  H17X 3663   4.719   6.665   8.974  0.1306  0.8995 -1.2232
   27SAPC  H17Y 3664   4.570   6.575   8.998 -1.1361  0.4310 -1.2322
   27SAPC  C318 3665   4.567   6.796   9.029 -0.1925  0.2613 -0.2237
   27SAPC  H18X 3666   4.603   6.873   8.958 -0.4901 -0.3022 -1.0088
   27SAPC  H18Y 3667   4.616   6.805   9.128 -0.9880 -2.3660  0.5077
   27SAPC  H18Z 3668   4.456   6.796   9.040 -0.1736  1.1262 -0.0243
   28SAPC     N 3669   3.995   0.697   5.843 -0.4158 -0.0852  0.5575
   28SAPC   C12 3670   4.114   0.641   5.908  0.2294 -0.0301 -0.0345
   28SAPC  H12A 3671   4.184   0.721   5.927 -0.8348  0.8557  0.2049
   28SAPC  H12B 3672   4.172   0.576   5.844 -1.3452 -1.7852  0.2516
   28SAPC   C13 3673   3.936   0.809   5.923 -0.2461 -0.2183 -0.5347
   28SAPC  H13A 3674   4.012   0.883   5.943  0.7743 -1.5055  0.6282
   28SAPC  H13B 3675   3.855   0.862   5.876 -1.4471 -1.6072 -0.1232
   28SAPC  H13C 3676   3.906   0.776   6.022  0.5039  0.8470  0.0605
   28SAPC   C14 3677   4.023   0.747   5.704  0.3119  0.1298 -0.1388
   28SAPC  H14A 3678   4.050   0.661   5.644  1.3554  0.1085  0.3292
   28SAPC  H14B 3679   3.935   0.800   5.671  2.2515  2.1992 -2.3802
   28SAPC  H14C 3680   4.114   0.806   5.703  0.4195  0.0196  1.2520
   28SAPC   C15 3681   3.893   0.591   5.827 -0.0406  0.3376  0.4747
   28SAPC  H15A 3682   3.917   0.514   5.756 -0.1368  1.3590 -0.6921
   28SAPC  H15B 3683   3.863   0.540   5.917  2.1759 -2.1941 -0.1021
   28SAPC  H15C 3684   3.804   0.637   5.788 -1.3803 -2.0816  0.5030
   28SAPC   C11 3685   4.085   0.562   6.038 -0.1234  0.0787 -0.2334
   28SAPC  H11A 3686   4.189   0.537   6.069 -0.0625  1.6472  0.9648
   28SAPC  H11B 3687   4.038   0.464   6.016 -2.0336  0.4836  1.7536
   28SAPC     P 3688   4.081   0.727   6.247 -0.4867 -0.1083 -0.3287
   28SAPC   O13 3689   4.223   0.691   6.271  0.8779 -0.5783 -0.3738
   28SAPC   O14 3690   4.055   0.869   6.203 -0.0801 -0.1307 -0.0649
   28SAPC   O12 3691   4.007   0.632   6.138 -0.4493 -0.1733 -0.8641
   28SAPC   O11 3692   3.994   0.715   6.381 -0.0061  0.0489 -0.1446
   28SAPC    C1 3693   3.968   0.585   6.439  0.4878 -0.1940  0.1515
   28SAPC    HA 3694   3.884   0.529   6.391 -1.0695  2.4280 -0.3615
   28SAPC    HB 3695   4.059   0.521   6.436 -0.2297 -1.4627  2.6764
   28SAPC    C2 3696   3.929   0.592   6.587 -0.5175  1.0617  0.2294
   28SAPC    HS 3697   3.932   0.490   6.631  0.2568  0.4387 -1.1959
   28SAPC   O21 3698   3.802   0.650   6.596 -0.5338 -0.5238  0.3228
   28SAPC   C21 3699   3.702   0.563   6.579 -0.0284 -0.0647 -0.4624
   28SAPC   O22 3700   3.705   0.447   6.545 -0.2922  0.9444 -0.2692
   28SAPC   C22 3701   3.581   0.643   6.615  1.0590 -0.2295 -0.3363
   28SAPC   H2R 3702   3.620   0.741   6.649  2.0888 -0.1036 -1.7778
   28SAPC   H2S 3703   3.524   0.645   6.520 -0.1385  0.3307  0.3797
   28SAPC    C3 3704   4.017   0.687   6.671 -0.7442 -0.8787  0.2832
   28SAPC    HX 3705   4.006   0.792   6.635  0.1415 -1.3003 -1.3161
   28SAPC    HY 3706   4.124   0.660   6.659 -0.3301 -0.0370  1.7840
   28SAPC   O31 3707   3.988   0.677   6.809  0.1223  0.8208 -0.1104
   28SAPC   C31 3708   3.952   0.790   6.873 -0.5404 -0.3231  0.8629
   28SAPC   O32 3709   3.926   0.900   6.825  0.2721 -0.0688  0.1055
   28SAPC   C32 3710   3.959   0.753   7.025 -0.3778  0.5528  0.0223
   28SAPC   H2X 3711   4.011   0.656   7.035 -1.2824  0.0786  0.2671
   28SAPC   H2Y 3712   3.860   0.729   7.070  0.9312 -0.8979  2.3443
   28SAPC   C23 3713   3.495   0.593   6.737 -0.0196 -0.0546 -0.0952
   28SAPC   H3R 3714   3.451   0.492   6.720  1.7645 -0.8694 -0.0742
   28SAPC   H3S 3715   3.408   0.661   6.750  1.0904  1.1121  1.5266
   28SAPC   C24 3716   3.571   0.596   6.875  0.2022 -0.5929 -0.5699
   28SAPC   H4R 3717   3.540   0.516   6.945 -1.6455 -0.4911 -1.2143
   28SAPC   H4S 3718   3.679   0.579   6.856  0.4343  0.6094 -0.4066
   28SAPC   C25 3719   3.564   0.732   6.948  0.2079  1.0133  0.9218
   28SAPC   H5R 3720   3.642   0.801   6.913  0.1704  0.1740 -0.9752
   28SAPC   C26 3721   3.479   0.764   7.044  0.3275 -0.7598  0.0647
   28SAPC   H6R 3722   3.486   0.868   7.080 -1.5302 -0.6584  0.2060
   28SAPC   C27 3723   3.378   0.671   7.107 -0.8590 -0.0904 -0.5412
   28SAPC   H7R 3724   3.368   0.579   7.045  0.6936 -0.4872 -0.2381
   28SAPC   H7S 3725   3.279   0.721   7.118 -1.3891 -1.3163  0.6252
   28SAPC   C28 3726   3.425   0.612   7.242 -0.2421 -0.2910  0.4472
   28SAPC   H8R 3727   3.532   0.587   7.245 -0.4709 -1.1868  2.8304
   28SAPC   C29 3728   3.352   0.586   7.352 -0.0331  0.1452 -0.0342
   28SAPC   H9R 3729   3.411   0.542   7.434 -0.4077 -0.9263 -0.3366
   28SAPC  C210 3730   3.211   0.605   7.393 -0.1197 -0.5073 -0.2597
   28SAPC  H10R 3731   3.141   0.624   7.309  0.0184 -1.1526 -0.5258
   28SAPC  H10S 3732   3.211   0.694   7.459  2.1318 -0.3908 -0.3481
   28SAPC  C211 3733   3.163   0.490   7.473  0.7457  0.3315 -0.5169
   28SAPC  H11R 3734   3.133   0.409   7.404  0.0015  1.3070 -1.3616
   28SAPC  C212 3735   3.150   0.480   7.612 -0.6299 -0.3571  0.2876
   28SAPC  H12R 3736   3.120   0.381   7.649 -0.2985  0.1397  1.9630
   28SAPC  C213 3737   3.190   0.582   7.718  0.0668  0.6262 -0.1815
   28SAPC  H13R 3738   3.099   0.638   7.750 -0.6456 -0.8672  0.5063
   28SAPC  H13S 3739   3.259   0.659   7.677 -0.1354  0.8556 -0.0962
   28SAPC  C214 3740   3.248   0.528   7.844  0.1711  0.2969  0.0889
   28SAPC  H14R 3741   3.349   0.563   7.868  0.0677  0.5268  0.1916
   28SAPC  C215 3742   3.184   0.474   7.951  0.3177 -0.0038  0.2497
   28SAPC  H15R 3743   3.235   0.441   8.043 -0.1215  0.5853  0.7168
   28SAPC  C216 3744   3.035   0.450   7.957 -0.1116 -0.1848  0.8735
   28SAPC  H16R 3745   2.988   0.433   7.858 -1.1539 -0.0690  1.3343
   28SAPC  H16S 3746   2.992   0.548   7.987  1.5181  1.4494 -1.7156
   28SAPC  C217 3747   2.985   0.330   8.045 -0.8247 -0.1227 -0.2499
   28SAPC  H17R 3748   3.045   0.240   8.020  2.1786  1.3852  1.0756
   28SAPC  H17S 3749   2.879   0.311   8.016 -1.0745  2.3970 -1.2652
   28SAPC  C218 3750   2.990   0.360   8.192  0.4464  0.7162 -0.5699
   28SAPC  H18R 3751   2.903   0.427   8.211 -1.0861 -1.6876  1.4645
   28SAPC  H18S 3752   3.084   0.418   8.206  0.9839 -0.2239 -0.1680
   28SAPC  C219 3753   2.972   0.231   8.276  0.0620 -0.5068 -0.2985
   28SAPC  H19R 3754   2.886   0.172   8.237 -0.6234 -0.4551  1.0493
   28SAPC  H19S 3755   2.932   0.260   8.376 -2.4598 -0.0411 -1.3773
   28SAPC  C220 3756   3.103   0.151   8.288  0.2167 -0.2905 -0.0137
   28SAPC  H20R 3757   3.102   0.090   8.380 -1.3648  1.6752  1.3525
   28SAPC  H20S 3758   3.195   0.212   8.297  1.3550 -1.9277 -0.0882
   28SAPC  H20T 3759   3.119   0.084   8.200 -0.5936 -0.1893 -0.2503
   28SAPC   C33 3760   4.030   0.863   7.101  0.2365  0.2610 -0.4172
   28SAPC   H3X 3761   3.989   0.965   7.090 -0.9814 -0.1599  0.0175
   28SAPC   H3Y 3762   4.135   0.863   7.066  0.2977 -1.4238 -0.3396
   28SAPC   C34 3763   4.033   0.839   7.251  0.8298 -0.4801 -1.5041
   28SAPC   H4X 3764   4.098   0.920   7.290 -0.0044  1.0864 -3.1870
   28SAPC   H4Y 3765   4.084   0.742   7.267  1.4228  0.3361  2.8780
   28SAPC   C35 3766   3.893   0.835   7.324  0.3549  0.2008  0.2417
   28SAPC   H5X 3767   3.814   0.879   7.261  0.5946  1.8728  1.0538
   28SAPC   H5Y 3768   3.899   0.881   7.425  0.5446  2.7259 -0.8340
   28SAPC   C36 3769   3.853   0.691   7.349 -0.2750 -0.5516  0.6143
   28SAPC   H6X 3770   3.883   0.627   7.264  2.1461 -1.0415  1.7459
   28SAPC   H6Y 3771   3.743   0.681   7.365 -0.3315 -2.5780 -0.6625
   28SAPC   C37 3772   3.924   0.639   7.471  0.3308  0.3044 -0.7654
   28SAPC   H7X 3773   3.894   0.701   7.558 -1.5735 -1.4691 -0.0835
   28SAPC   H7Y 3774   4.031   0.657   7.445  0.9542  1.0426  1.9993
   28SAPC   C38 3775   3.893   0.488   7.492 -0.5347 -0.6800 -0.0177
   28SAPC   H8X 3776   3.904   0.432   7.397  0.7716  0.2008 -0.4073
   28SAPC   H8Y 3777   3.784   0.476   7.511 -0.4764 -0.0034  0.8456
   28SAPC   C39 3778   3.988   0.430   7.599 -0.3559  0.7706  0.1041
   28SAPC   H9X 3779   4.092   0.464   7.577 -1.4984  3.1463 -2.2153
   28SAPC   H9Y 3780   3.974   0.320   7.587 -2.1833  0.7104  2.3254
   28SAPC  C310 3781   3.947   0.469   7.743 -0.2140 -0.4632 -0.2822
   28SAPC  H10X 3782   3.842   0.433   7.747  0.9051 -4.5193 -1.7363
   28SAPC  H10Y 3783   3.946   0.578   7.759 -1.0718 -0.6909  1.5039
   28SAPC  C311 3784   4.028   0.398   7.862  0.1911 -0.1770  0.7103
   28SAPC  H11X 3785   4.133   0.392   7.825 -0.5940  0.5678 -1.8392
   28SAPC  H11Y 3786   3.986   0.296   7.854 -1.0139  0.4329 -1.4288
   28SAPC  C312 3787   4.025   0.465   7.996 -0.1912 -0.3544 -0.1808
   28SAPC  H12X 3788   3.921   0.486   8.030  0.6305  2.8632  0.6147
   28SAPC  H12Y 3789   4.070   0.565   7.982  0.9808 -0.7404  0.5889
   28SAPC  C313 3790   4.095   0.385   8.112  0.2337  0.1670  0.0172
   28SAPC  H13X 3791   4.204   0.384   8.095  0.7129 -0.0116  2.6705
   28SAPC  H13Y 3792   4.065   0.278   8.110  0.1207  0.2092 -1.6555
   28SAPC  C314 3793   4.074   0.442   8.255  0.1897 -0.0873 -1.0299
   28SAPC  H14X 3794   3.968   0.455   8.285  0.5843  2.0612 -0.3996
   28SAPC  H14Y 3795   4.108   0.548   8.255  1.0121 -0.3147  0.8532
   28SAPC  C315 3796   4.136   0.363   8.371 -0.3674 -0.0690 -0.1991
   28SAPC  H15X 3797   4.075   0.271   8.364  0.8060 -0.8337 -0.7603
   28SAPC  H15Y 3798   4.112   0.418   8.464 -0.9637  0.1571 -0.4789
   28SAPC  C316 3799   4.287   0.337   8.358  0.1340 -0.0078  0.1628
   28SAPC  H16X 3800   4.321   0.333   8.252 -0.4348 -0.1019 -0.0152
   28SAPC  H16Y 3801   4.312   0.241   8.408 -2.1561 -1.2217 -0.8861
   28SAPC  C317 3802   4.372   0.433   8.442  0.7716  0.4637  0.0183
   28SAPC  H17X 3803   4.372   0.542   8.422  0.8774  0.7266  1.3668
   28SAPC  H17Y 3804   4.479   0.423   8.414  0.0712 -0.6617 -2.5683
   28SAPC  C318 3805   4.365   0.410   8.597  0.0105  0.3836  0.4675
   28SAPC  H18X 3806   4.370   0.303   8.628  4.6507  0.3876  0.4577
   28SAPC  H18Y 3807   4.286   0.472   8.644 -1.2926  0.0812 -1.2498
   28SAPC  H18Z 3808   4.457   0.458   8.636  0.6464  2.2201 -2.9475
   29SAPC     N 3809   2.659   5.195   6.300 -0.4026  0.5456  0.1163
   29SAPC   C12 3810   2.759   5.180   6.415 -0.2226  0.0590 -0.9083
   29SAPC  H12A 3811   2.810   5.085   6.425  0.7075  0.7621  1.6761
   29SAPC  H12B 3812   2.697   5.203   6.500  0.0423 -0.7110 -0.5039
   29SAPC   C13 3813   2.545   5.099   6.307  1.2535  0.0334  0.5607
   29SAPC  H13A 3814   2.480   5.109   6.222  1.6684  1.0138  0.3388
   29SAPC  H13B 3815   2.574   4.995   6.308  2.5546  0.3201 -1.2624
   29SAPC  H13C 3816   2.489   5.116   6.397  1.3415  0.1444  0.5954
   29SAPC   C14 3817   2.608   5.334   6.299  0.1490 -0.9433 -0.1334
   29SAPC  H14A 3818   2.682   5.413   6.301 -1.0478  0.2029  0.2437
   29SAPC  H14B 3819   2.538   5.355   6.219 -1.9985 -1.9140  1.4089
   29SAPC  H14C 3820   2.540   5.345   6.382 -0.4905  0.3823 -0.7919
   29SAPC   C15 3821   2.718   5.154   6.168  0.1935 -0.6667  0.4776
   29SAPC  H15A 3822   2.644   5.150   6.090  0.9188  0.4668 -0.3027
   29SAPC  H15B 3823   2.802   5.214   6.136 -0.7829 -0.8325 -2.6841
   29SAPC  H15C 3824   2.760   5.055   6.182  1.1816 -0.3268  0.0610
   29SAPC   C11 3825   2.874   5.284   6.411  0.4849  0.0943 -0.8019
   29SAPC  H11A 3826   2.949   5.270   6.492  0.0472 -1.0367 -0.5722
   29SAPC  H11B 3827   2.836   5.387   6.431  0.9484 -0.0951  1.3757
   29SAPC     P 3828   3.067   5.189   6.256 -0.1845 -0.0417  0.1530
   29SAPC   O13 3829   3.020   5.053   6.250  0.3720  0.4323  0.1187
   29SAPC   O14 3830   3.136   5.245   6.143  0.2957 -0.6803  0.6778
   29SAPC   O12 3831   2.947   5.278   6.291  0.5114 -0.3131 -0.0686
   29SAPC   O11 3832   3.147   5.209   6.387 -0.0481  0.4806 -0.0683
   29SAPC    C1 3833   3.221   5.096   6.442  0.2688 -0.0565 -0.1001
   29SAPC    HA 3834   3.249   5.014   6.373 -0.8098  0.0734 -0.7155
   29SAPC    HB 3835   3.320   5.129   6.480 -0.0139  0.2566  0.3811
   29SAPC    C2 3836   3.150   5.033   6.574 -0.2580  0.1141  0.5528
   29SAPC    HS 3837   3.072   4.974   6.521 -0.6384 -0.7659  2.0427
   29SAPC   O21 3838   3.095   5.139   6.657 -0.2218  0.0894 -0.4201
   29SAPC   C21 3839   2.974   5.120   6.710 -0.3073  0.4151 -0.5443
   29SAPC   O22 3840   2.897   5.026   6.691 -0.3858 -0.2791 -0.0383
   29SAPC   C22 3841   2.942   5.235   6.810 -0.1782 -0.6601  0.2616
   29SAPC   H2R 3842   3.009   5.320   6.783  0.0134 -1.2235 -1.1400
   29SAPC   H2S 3843   2.833   5.250   6.794  0.1550 -0.3337 -1.9908
   29SAPC    C3 3844   3.235   4.933   6.655  0.1195  0.4452 -0.4885
   29SAPC    HX 3845   3.317   4.996   6.694 -0.0254  1.1842 -1.3383
   29SAPC    HY 3846   3.286   4.857   6.592 -0.4000 -0.9042  0.6394
   29SAPC   O31 3847   3.170   4.883   6.776  0.1142  0.5909 -0.1267
   29SAPC   C31 3848   3.118   4.757   6.751  0.0929  0.0196  0.7116
   29SAPC   O32 3849   3.121   4.700   6.642  0.1643 -0.5162 -0.1933
   29SAPC   C32 3850   3.057   4.696   6.878 -0.5961  0.2153 -0.0504
   29SAPC   H2X 3851   3.143   4.695   6.948 -0.0666 -2.4035 -0.6467
   29SAPC   H2Y 3852   3.022   4.593   6.858 -2.2751  0.8597 -0.5866
   29SAPC   C23 3853   2.949   5.197   6.963  0.3437  0.0403  1.0897
   29SAPC   H3R 3854   2.889   5.104   6.963  0.0073  0.2428 -0.3630
   29SAPC   H3S 3855   2.904   5.282   7.019 -0.7204  0.9817 -1.1007
   29SAPC   C24 3856   3.097   5.166   7.013  0.1701  0.2563  0.2785
   29SAPC   H4R 3857   3.156   5.259   7.026  0.5634  0.0147  0.2483
   29SAPC   H4S 3858   3.165   5.109   6.946  1.3978 -0.5241  2.0999
   29SAPC   C25 3859   3.121   5.098   7.146  0.1177  0.1772  0.6484
   29SAPC   H5R 3860   3.133   4.990   7.127 -1.4949  0.3954 -2.0762
   29SAPC   C26 3861   3.105   5.147   7.265 -1.3143  0.2805  0.3444
   29SAPC   H6R 3862   3.124   5.089   7.356 -1.0614  2.3722  1.6976
   29SAPC   C27 3863   3.071   5.294   7.309 -0.3602 -0.6814 -0.3748
   29SAPC   H7R 3864   2.977   5.290   7.368 -0.6900 -0.6061 -0.8929
   29SAPC   H7S 3865   3.065   5.368   7.227  1.7879 -0.0276  0.0056
   29SAPC   C28 3866   3.177   5.356   7.393 -0.1498 -0.1029  0.2589
   29SAPC   H8R 3867   3.249   5.415   7.336 -0.4283  1.8315  1.7973
   29SAPC   C29 3868   3.194   5.356   7.524  0.7846 -0.0703 -0.9034
   29SAPC   H9R 3869   3.278   5.406   7.573  0.7594  0.1460 -1.0769
   29SAPC  C210 3870   3.110   5.287   7.627  0.6805  0.1295  0.8766
   29SAPC  H10R 3871   3.018   5.248   7.578  0.8875 -0.5129  0.9888
   29SAPC  H10S 3872   3.069   5.357   7.703 -0.3357 -3.2799  3.7478
   29SAPC  C211 3873   3.196   5.175   7.696  0.5442  0.5164  0.0514
   29SAPC  H11R 3874   3.241   5.101   7.629  0.4918 -0.0023  0.5801
   29SAPC  C212 3875   3.216   5.152   7.830 -0.2640 -0.3403  0.5003
   29SAPC  H12R 3876   3.272   5.060   7.854  1.9354  0.5194 -1.0808
   29SAPC  C213 3877   3.162   5.243   7.929 -0.3298  0.1425 -0.1619
   29SAPC  H13R 3878   3.119   5.189   8.016 -0.9385  3.5903  1.8597
   29SAPC  H13S 3879   3.067   5.292   7.900 -0.6369  0.1956  0.8865
   29SAPC  C214 3880   3.278   5.330   7.972  0.0182 -0.7139  0.1028
   29SAPC  H14R 3881   3.350   5.346   7.892 -1.0886  1.7629 -0.4743
   29SAPC  C215 3882   3.303   5.382   8.094  0.3592 -0.5048  0.0257
   29SAPC  H15R 3883   3.378   5.463   8.102 -0.3331  0.1307  0.2166
   29SAPC  C216 3884   3.219   5.363   8.216  0.0841  0.1246 -0.9697
   29SAPC  H16R 3885   3.292   5.343   8.298 -0.3930 -1.2329 -0.8577
   29SAPC  H16S 3886   3.158   5.271   8.213  1.1062 -0.5421 -1.8036
   29SAPC  C217 3887   3.145   5.495   8.250  0.3534 -0.6767  0.4392
   29SAPC  H17R 3888   3.081   5.524   8.164  2.7270  1.8552 -0.6271
   29SAPC  H17S 3889   3.215   5.581   8.252 -1.5076  0.8759  2.0194
   29SAPC  C218 3890   3.063   5.501   8.381  0.5899  0.2390 -0.4871
   29SAPC  H18R 3891   3.118   5.473   8.473 -0.1987 -2.0113 -0.6476
   29SAPC  H18S 3892   2.980   5.427   8.377  0.4361  0.2974  1.0306
   29SAPC  C219 3893   3.020   5.645   8.397  0.1250 -0.1132 -0.7089
   29SAPC  H19R 3894   3.022   5.688   8.294 -1.5055 -1.4238 -1.3291
   29SAPC  H19S 3895   3.092   5.708   8.454 -0.2176  0.6498 -1.1090
   29SAPC  C220 3896   2.882   5.677   8.459 -0.7703  0.9219 -0.1563
   29SAPC  H20R 3897   2.886   5.656   8.568  2.0941  0.3687 -0.2912
   29SAPC  H20S 3898   2.805   5.614   8.410  0.5751  1.0476 -2.5735
   29SAPC  H20T 3899   2.859   5.784   8.439 -1.2233  1.1528  1.4214
   29SAPC   C33 3900   2.963   4.791   6.950 -0.1181 -0.2216  0.4059
   29SAPC   H3X 3901   2.881   4.825   6.883  0.2918 -0.4271 -0.2061
   29SAPC   H3Y 3902   3.011   4.888   6.974 -0.4979  0.1973 -0.4919
   29SAPC   C34 3903   2.895   4.722   7.073  0.2624 -0.1831  0.2421
   29SAPC   H4X 3904   2.866   4.620   7.039 -1.2879  0.2646  0.1516
   29SAPC   H4Y 3905   2.800   4.777   7.088 -0.8498 -2.0770  0.5404
   29SAPC   C35 3906   2.991   4.711   7.193  0.6673  0.1165 -0.4656
   29SAPC   H5X 3907   3.014   4.813   7.230  1.1868 -0.0067 -0.4427
   29SAPC   H5Y 3908   3.079   4.652   7.160  0.6178 -0.7682  0.8871
   29SAPC   C36 3909   2.928   4.632   7.310 -0.4435  0.8068 -0.1203
   29SAPC   H6X 3910   2.996   4.596   7.391 -1.0752 -0.1445  0.0174
   29SAPC   H6Y 3911   2.904   4.533   7.266 -0.0244  0.7320 -0.1808
   29SAPC   C37 3912   2.794   4.684   7.366 -0.1241 -0.3208  0.0645
   29SAPC   H7X 3913   2.729   4.716   7.282  1.2506 -2.0659 -1.7747
   29SAPC   H7Y 3914   2.796   4.776   7.427  1.3843 -1.1608  1.3842
   29SAPC   C38 3915   2.701   4.587   7.434 -0.0774  0.7560 -0.0623
   29SAPC   H8X 3916   2.738   4.561   7.536  0.5197  0.0395 -0.4519
   29SAPC   H8Y 3917   2.707   4.498   7.368  0.9191  0.1600  0.7867
   29SAPC   C39 3918   2.558   4.640   7.449 -0.3016  0.5344  0.2513
   29SAPC   H9X 3919   2.524   4.675   7.350  0.3167  2.0036  0.5233
   29SAPC   H9Y 3920   2.566   4.736   7.506  2.2922  0.4995  0.0698
   29SAPC  C310 3921   2.462   4.538   7.509  0.0638  0.1887  0.2699
   29SAPC  H10X 3922   2.520   4.490   7.591 -0.0844  0.7867  0.7242
   29SAPC  H10Y 3923   2.445   4.466   7.426  0.2354 -0.2377  0.5955
   29SAPC  C311 3924   2.337   4.599   7.553 -0.2713  0.4991  0.0510
   29SAPC  H11X 3925   2.362   4.693   7.607 -0.9519  1.0750 -0.6273
   29SAPC  H11Y 3926   2.271   4.539   7.619  0.8533 -0.7976  0.0503
   29SAPC  C312 3927   2.245   4.636   7.439  0.6116  0.1476  0.3853
   29SAPC  H12X 3928   2.257   4.563   7.356 -0.9024  0.0595  0.2270
   29SAPC  H12Y 3929   2.282   4.735   7.403  1.4098 -0.2463  0.0962
   29SAPC  C313 3930   2.097   4.654   7.480 -0.7738  0.2967 -0.2145
   29SAPC  H13X 3931   2.089   4.735   7.555 -2.3014 -1.4412  1.6170
   29SAPC  H13Y 3932   2.048   4.564   7.524  1.4254 -1.9682 -2.0065
   29SAPC  C314 3933   2.016   4.701   7.362  0.7835 -0.4720  0.3118
   29SAPC  H14X 3934   2.030   4.811   7.355  1.5249 -0.3093  3.1052
   29SAPC  H14Y 3935   1.912   4.691   7.398 -1.2302 -0.2736 -4.6084
   29SAPC  C315 3936   2.037   4.623   7.230  0.1749 -0.6506 -0.6559
   29SAPC  H15X 3937   2.030   4.514   7.250  2.0129 -0.7180 -0.2100
   29SAPC  H15Y 3938   2.144   4.636   7.203  0.5402 -3.0233 -0.5364
   29SAPC  C316 3939   1.935   4.664   7.125 -0.3224  0.1148  0.1065
   29SAPC  H16X 3940   1.948   4.774   7.109  2.0182 -0.0132  0.6775
   29SAPC  H16Y 3941   1.832   4.640   7.156  0.3670 -0.8461  1.7534
   29SAPC  C317 3942   1.987   4.610   6.988  0.1821  0.1429  0.0441
   29SAPC  H17X 3943   1.989   4.501   6.967  0.3478  0.1391  0.0818
   29SAPC  H17Y 3944   2.087   4.653   6.970  0.4103 -0.4531 -0.1521
   29SAPC  C318 3945   1.911   4.666   6.863 -0.3195  0.6216 -0.2247
   29SAPC  H18X 3946   1.949   4.631   6.765 -2.2873  0.8577 -1.1243
   29SAPC  H18Y 3947   1.919   4.777   6.874 -0.2168  0.5781  0.1579
   29SAPC  H18Z 3948   1.804   4.637   6.865 -0.0766 -0.2702  0.8160
   30SAPC     N 3949   6.246   5.534   5.988 -0.4250  0.5263 -0.0928
   30SAPC   C12 3950   6.248   5.467   6.122  0.1776 -0.2766 -0.3057
   30SAPC  H12A 3951   6.316   5.383   6.127  2.0141  1.1739  4.3244
   30SAPC  H12B 3952   6.151   5.425   6.144  0.2849 -0.1996  0.3273
   30SAPC   C13 3953   6.384   5.585   5.955 -0.3475  0.0471  0.0134
   30SAPC  H13A 3954   6.407   5.665   6.024 -0.6115 -0.3834  0.6046
   30SAPC  H13B 3955   6.460   5.511   5.974 -1.6933 -1.2974  0.3607
   30SAPC  H13C 3956   6.399   5.619   5.853  2.7233 -1.4999 -0.1699
   30SAPC   C14 3957   6.218   5.438   5.884  0.1291  0.5356 -0.8126
   30SAPC  H14A 3958   6.224   5.469   5.781 -1.4030 -0.6444 -1.2822
   30SAPC  H14B 3959   6.282   5.352   5.899  1.8627  2.0065  0.8074
   30SAPC  H14C 3960   6.121   5.392   5.894  0.6758 -0.7091 -1.0309
   30SAPC   C15 3961   6.140   5.638   5.982  0.0215 -0.1178  0.2574
   30SAPC  H15A 3962   6.040   5.599   5.992  0.0886 -0.5351 -0.5255
   30SAPC  H15B 3963   6.167   5.715   6.052 -1.1206  1.0673 -0.5539
   30SAPC  H15C 3964   6.142   5.682   5.883 -0.6305  0.1841  0.3779
   30SAPC   C11 3965   6.297   5.559   6.231 -0.4663  0.5667 -0.3139
   30SAPC  H11A 3966   6.407   5.556   6.214 -0.3947  1.0403  0.0412
   30SAPC  H11B 3967   6.299   5.493   6.320  1.3182 -1.5762 -1.8419
   30SAPC     P 3968   6.312   5.812   6.281  0.1075  0.5350 -0.1309
   30SAPC   O13 3969   6.437   5.817   6.209 -0.5370 -0.2093 -0.5137
   30SAPC   O14 3970   6.217   5.921   6.253  0.1297  0.4067 -0.4650
   30SAPC   O12 3971   6.230   5.676   6.258 -0.0728  0.2881 -0.1747
   30SAPC   O11 3972   6.341   5.821   6.441 -0.0987 -0.1885 -0.2051
   30SAPC    C1 3973   6.268   5.757   6.545  0.3061 -0.4227 -0.5941
   30SAPC    HA 3974   6.239   5.653   6.518 -0.2525 -0.2335 -0.7298
   30SAPC    HB 3975   6.337   5.751   6.632  0.2447 -0.0961 -0.5252
   30SAPC    C2 3976   6.152   5.844   6.604  0.2667 -0.2240 -0.0311
   30SAPC    HS 3977   6.093   5.862   6.511  0.6568  1.8115  0.0686
   30SAPC   O21 3978   6.220   5.960   6.653  0.0825 -0.4493  0.4372
   30SAPC   C21 3979   6.141   6.069   6.657  0.4671  0.4681  0.6204
   30SAPC   O22 3980   6.025   6.072   6.618  0.0774  0.4605  0.3190
   30SAPC   C22 3981   6.224   6.193   6.691 -0.1624  0.5165  0.3786
   30SAPC   H2R 3982   6.323   6.158   6.728 -0.4793  1.8566  2.6746
   30SAPC   H2S 3983   6.225   6.257   6.601 -0.8965 -0.4382 -0.3250
   30SAPC    C3 3984   6.097   5.762   6.724 -0.1235 -0.5636  0.2649
   30SAPC    HX 3985   6.171   5.779   6.806 -0.3201 -1.8418  0.7323
   30SAPC    HY 3986   6.099   5.653   6.701  1.8107 -0.1958 -1.5892
   30SAPC   O31 3987   5.964   5.795   6.762 -0.4330  0.2192 -0.6605
   30SAPC   C31 3988   5.872   5.750   6.677 -0.5165 -0.3486 -0.5251
   30SAPC   O32 3989   5.883   5.707   6.567  0.0316 -0.3345  0.3290
   30SAPC   C32 3990   5.731   5.748   6.736 -0.3851 -0.6207  0.3556
   30SAPC   H2X 3991   5.718   5.659   6.801 -1.4915  0.5787  1.8644
   30SAPC   H2Y 3992   5.663   5.746   6.649 -2.8291  0.9403  2.1037
   30SAPC   C23 3993   6.149   6.253   6.811 -0.1190  0.1417  0.1560
   30SAPC   H3R 3994   6.042   6.267   6.787  0.1230 -0.0943 -1.1548
   30SAPC   H3S 3995   6.191   6.356   6.813 -1.3828  0.6675  0.1581
   30SAPC   C24 3996   6.185   6.200   6.950 -0.3884  0.3601 -0.4067
   30SAPC   H4R 3997   6.176   6.284   7.023  1.5377 -1.2535  1.8569
   30SAPC   H4S 3998   6.295   6.189   6.955 -0.5873 -1.3660  2.0553
   30SAPC   C25 3999   6.103   6.081   6.986 -0.7174 -0.1838  0.0717
   30SAPC   H5R 4000   5.994   6.099   6.986 -0.9039 -1.0813  1.8648
   30SAPC   C26 4001   6.149   5.959   7.025  0.4889 -0.5316 -0.7488
   30SAPC   H6R 4002   6.085   5.871   7.047  1.3164 -0.8188  0.6288
   30SAPC   C27 4003   6.291   5.930   7.048 -0.4798  0.5026 -0.0225
   30SAPC   H7R 4004   6.343   6.016   7.095 -1.4486  1.1798 -0.1594
   30SAPC   H7S 4005   6.338   5.918   6.948  1.2917  1.3144  0.6788
   30SAPC   C28 4006   6.310   5.796   7.123 -0.0337 -0.1742 -0.4062
   30SAPC   H8R 4007   6.326   5.699   7.074  2.3563  0.1741 -0.4412
   30SAPC   C29 4008   6.317   5.789   7.259  0.6085 -0.3919  0.0404
   30SAPC   H9R 4009   6.334   5.692   7.309  1.9789  0.5150  1.4517
   30SAPC  C210 4010   6.305   5.908   7.356  0.6247 -0.0407  0.3996
   30SAPC  H10R 4011   6.200   5.908   7.394  0.3581 -0.7383 -0.3056
   30SAPC  H10S 4012   6.317   6.003   7.300  1.6891 -1.0625 -1.1772
   30SAPC  C211 4013   6.387   5.892   7.479  0.0050 -0.5582  0.2612
   30SAPC  H11R 4014   6.330   5.843   7.558 -0.4476 -0.4424  0.0120
   30SAPC  C212 4015   6.514   5.926   7.497 -0.2404 -0.2889 -0.5426
   30SAPC  H12R 4016   6.558   5.893   7.592  0.2728  1.0972 -0.2820
   30SAPC  C213 4017   6.611   5.985   7.400 -0.4054  0.1740  0.9043
   30SAPC  H13R 4018   6.616   6.091   7.432  0.2979 -0.0928  1.7000
   30SAPC  H13S 4019   6.560   5.983   7.301  0.8721  2.9352  0.0965
   30SAPC  C214 4020   6.747   5.925   7.400  0.7802  0.1216 -0.1615
   30SAPC  H14R 4021   6.771   5.864   7.312  1.6950  1.1518 -0.6473
   30SAPC  C215 4022   6.847   5.929   7.487 -0.0919  0.0077 -0.4045
   30SAPC  H15R 4023   6.938   5.873   7.462 -0.3080 -1.5651  2.0212
   30SAPC  C216 4024   6.860   6.009   7.617  0.2622 -0.2148 -0.4580
   30SAPC  H16R 4025   6.796   6.099   7.610 -2.1392 -1.7011  1.0229
   30SAPC  H16S 4026   6.962   6.053   7.627  0.0833  0.0978  0.0472
   30SAPC  C217 4027   6.815   5.931   7.738  0.2991 -0.1179 -0.3266
   30SAPC  H17R 4028   6.881   5.846   7.767 -0.8990 -1.4244 -1.2966
   30SAPC  H17S 4029   6.713   5.888   7.731  0.5904 -1.1416  1.1120
   30SAPC  C218 4030   6.800   6.023   7.858  0.0965 -0.2584  0.0084
   30SAPC  H18R 4031   6.700   6.071   7.852  0.3755  0.3854  0.3394
   30SAPC  H18S 4032   6.874   6.106   7.851 -1.0382  0.6660 -2.4413
   30SAPC  C219 4033   6.804   5.956   7.994  0.6624 -0.7416  0.2654
   30SAPC  H19R 4034   6.902   5.903   8.001 -0.6537 -3.0749  2.8555
   30SAPC  H19S 4035   6.726   5.878   8.002 -0.4044  0.0808 -1.6653
   30SAPC  C220 4036   6.784   6.058   8.108 -0.2248 -0.1290 -0.1556
   30SAPC  H20R 4037   6.857   6.024   8.185  0.9625  0.3881 -1.0130
   30SAPC  H20S 4038   6.677   6.056   8.137 -0.2649  0.2831 -0.2725
   30SAPC  H20T 4039   6.826   6.159   8.085  0.4969 -0.0656  1.3188
   30SAPC   C33 4040   5.702   5.875   6.808 -0.6202 -0.0403  0.0116
   30SAPC   H3X 4041   5.595   5.902   6.796 -0.9808 -0.5205  1.8312
   30SAPC   H3Y 4042   5.749   5.963   6.760  2.8540 -2.6281 -1.7527
   30SAPC   C34 4043   5.724   5.879   6.957 -0.3374  0.8375  0.2562
   30SAPC   H4X 4044   5.822   5.878   7.009 -0.5697  0.9904  0.7065
   30SAPC   H4Y 4045   5.660   5.795   6.990  1.0924  0.2371  1.5966
   30SAPC   C35 4046   5.668   6.014   7.007  0.3822  0.4774 -0.1537
   30SAPC   H5X 4047   5.557   6.008   7.001  0.4293 -1.1867  0.1549
   30SAPC   H5Y 4048   5.714   6.100   6.955 -0.1123  0.0746 -1.2793
   30SAPC   C36 4049   5.709   6.034   7.158  0.4287  0.1190  0.7595
   30SAPC   H6X 4050   5.681   6.138   7.185  1.2972  1.3583 -2.6357
   30SAPC   H6Y 4051   5.819   6.029   7.170  0.6741  0.2589 -1.1894
   30SAPC   C37 4052   5.645   5.925   7.250  0.2109  0.4413  0.0694
   30SAPC   H7X 4053   5.680   5.822   7.226  3.1836  1.2932  0.2745
   30SAPC   H7Y 4054   5.535   5.922   7.243  0.1495 -0.6803  1.1585
   30SAPC   C38 4055   5.661   5.966   7.389  0.4357  0.1407 -0.3593
   30SAPC   H8X 4056   5.618   6.067   7.405  0.1017 -0.1717  0.8017
   30SAPC   H8Y 4057   5.768   5.976   7.420 -0.3773  1.3970  2.4059
   30SAPC   C39 4058   5.597   5.867   7.481 -0.2727 -0.2343 -0.5795
   30SAPC   H9X 4059   5.652   5.772   7.474 -1.3976 -1.1933  2.1748
   30SAPC   H9Y 4060   5.487   5.855   7.466 -0.4816  1.3054 -0.4851
   30SAPC  C310 4061   5.613   5.896   7.633  0.1421  0.5455  0.8124
   30SAPC  H10X 4062   5.530   5.852   7.692  0.2725 -1.9181 -0.7146
   30SAPC  H10Y 4063   5.603   6.007   7.638  0.0873  0.5003  1.9331
   30SAPC  C311 4064   5.749   5.852   7.694  0.3233 -0.2275 -0.0469
   30SAPC  H11X 4065   5.832   5.902   7.639 -0.5740  0.5329 -0.7371
   30SAPC  H11Y 4066   5.757   5.741   7.694 -0.9590 -0.3434  0.8506
   30SAPC  C312 4067   5.772   5.920   7.836 -0.2155  0.4768  0.2754
   30SAPC  H12X 4068   5.680   5.909   7.898 -0.1280  2.1674  0.7582
   30SAPC  H12Y 4069   5.785   6.028   7.816  1.0135  0.1586 -0.8445
   30SAPC  C313 4070   5.899   5.875   7.916 -0.2895 -0.0418 -0.0491
   30SAPC  H13X 4071   5.979   5.846   7.845  0.2657  2.0200 -0.3046
   30SAPC  H13Y 4072   5.864   5.787   7.975 -1.0108 -0.0685 -0.4952
   30SAPC  C314 4073   5.948   5.987   8.011  0.4149 -0.1095 -0.3673
   30SAPC  H14X 4074   5.970   6.080   7.954 -0.0760  1.1158  1.3658
   30SAPC  H14Y 4075   6.040   5.956   8.064  1.2500  0.7812 -1.2660
   30SAPC  C315 4076   5.839   6.022   8.113  0.4273  0.6722 -0.1226
   30SAPC  H15X 4077   5.831   5.939   8.186 -0.9655  1.2951  0.4815
   30SAPC  H15Y 4078   5.739   6.026   8.063  0.5705  4.2092 -0.4063
   30SAPC  C316 4079   5.869   6.149   8.197 -0.3902 -0.3330 -0.8464
   30SAPC  H16X 4080   5.773   6.180   8.243  0.4725  1.1356  0.0558
   30SAPC  H16Y 4081   5.894   6.236   8.132  0.0300  0.3188  0.1605
   30SAPC  C317 4082   5.986   6.140   8.293 -0.0373 -0.0840 -0.1440
   30SAPC  H17X 4083   6.075   6.149   8.227  0.1006 -0.1979  0.0265
   30SAPC  H17Y 4084   5.985   6.040   8.343 -0.6737  0.0248  0.0719
   30SAPC  C318 4085   5.982   6.254   8.402  0.0067 -0.2074 -0.0977
   30SAPC  H18X 4086   6.071   6.255   8.469 -1.1648  0.3717  1.5117
   30SAPC  H18Y 4087   5.889   6.260   8.463 -0.5220 -0.2794 -0.8789
   30SAPC  H18Z 4088   5.988   6.351   8.347  2.6774 -0.7509 -0.9200
   31SAPC     N 4089   0.877   6.683   6.118  0.3673  0.1107  0.0929
   31SAPC   C12 4090   0.769   6.610   6.206 -0.3778  0.1811 -0.3629
   31SAPC  H12A 4091   0.747   6.516   6.157  2.1441 -2.3546  2.8997
   31SAPC  H12B 4092   0.682   6.673   6.204  0.1820  0.9843 -2.7343
   31SAPC   C13 4093   0.905   6.811   6.187 -0.6063  0.1566  0.5357
   31SAPC  H13A 4094   0.949   6.799   6.285  1.6719 -1.0666 -0.5609
   31SAPC  H13B 4095   0.981   6.857   6.126 -1.0976 -0.6489 -0.7410
   31SAPC  H13C 4096   0.819   6.877   6.187 -2.9705 -2.6950  0.8570
   31SAPC   C14 4097   0.996   6.596   6.100 -0.3271 -0.1406 -0.2881
   31SAPC  H14A 4098   1.045   6.579   6.195 -1.7156 -0.0315  0.4806
   31SAPC  H14B 4099   0.971   6.498   6.060  0.6825 -0.3537 -0.4083
   31SAPC  H14C 4100   1.051   6.642   6.020  2.2567 -1.3292  0.6829
   31SAPC   C15 4101   0.812   6.715   5.989 -0.3241 -0.3606 -0.1711
   31SAPC  H15A 4102   0.863   6.794   5.936 -0.3238  0.5531  1.1431
   31SAPC  H15B 4103   0.819   6.628   5.926 -1.7434 -1.1374  0.6956
   31SAPC  H15C 4104   0.705   6.726   5.993 -0.4183 -0.3585 -1.8472
   31SAPC   C11 4105   0.809   6.576   6.352 -0.4020 -0.1978  0.4936
   31SAPC  H11A 4106   0.717   6.534   6.398 -0.2950 -0.2068  0.7029
   31SAPC  H11B 4107   0.849   6.666   6.404  0.7832 -0.4252  0.0095
   31SAPC     P 4108   0.911   6.335   6.329  0.1013  0.6284  0.2812
   31SAPC   O13 4109   0.794   6.311   6.244  0.1926  0.2640  0.3304
   31SAPC   O14 4110   1.044   6.279   6.285 -0.4992 -0.2405 -0.8149
   31SAPC   O12 4111   0.917   6.490   6.351 -0.0706  0.4623  0.0523
   31SAPC   O11 4112   0.881   6.274   6.469  0.6680  0.1157 -0.2633
   31SAPC    C1 4113   0.761   6.209   6.506  0.0984 -0.1752 -0.6618
   31SAPC    HA 4114   0.703   6.274   6.575  0.2497  1.5448 -2.0762
   31SAPC    HB 4115   0.685   6.196   6.426 -0.9879 -2.1964  0.6040
   31SAPC    C2 4116   0.790   6.068   6.573  0.5056 -0.4625  0.2019
   31SAPC    HS 4117   0.834   6.103   6.668 -2.0363  1.8940  0.6579
   31SAPC   O21 4118   0.887   5.987   6.493  0.0949  0.2730  0.2684
   31SAPC   C21 4119   0.937   5.878   6.557  0.2590 -0.0568 -0.1060
   31SAPC   O22 4120   0.915   5.843   6.670 -0.0933 -0.3510  0.0280
   31SAPC   C22 4121   1.024   5.801   6.455  0.1890 -0.5244 -0.7447
   31SAPC   H2R 4122   0.978   5.786   6.355  2.4981  0.5831 -2.0616
   31SAPC   H2S 4123   1.122   5.851   6.438 -0.6595  1.2392 -0.6871
   31SAPC    C3 4124   0.657   5.989   6.597  0.3827 -0.6088  0.4241
   31SAPC    HX 4125   0.676   5.883   6.625 -1.0973 -1.3131 -1.0512
   31SAPC    HY 4126   0.600   5.991   6.501 -1.3822  3.5760  1.3330
   31SAPC   O31 4127   0.570   6.052   6.685  0.0617 -0.4627  0.3861
   31SAPC   C31 4128   0.594   6.026   6.813 -0.7680  0.1461  0.0768
   31SAPC   O32 4129   0.686   5.958   6.854 -0.2068 -0.0572 -0.5272
   31SAPC   C32 4130   0.475   6.078   6.886  0.0711 -0.5725  0.4845
   31SAPC   H2X 4131   0.380   6.023   6.870  2.3963 -4.3231 -2.0989
   31SAPC   H2Y 4132   0.463   6.185   6.856 -0.2500 -0.8168 -0.2906
   31SAPC   C23 4133   1.057   5.657   6.508 -0.2449 -0.3370 -0.0265
   31SAPC   H3R 4134   1.093   5.597   6.421  1.1326 -0.7590  0.8119
   31SAPC   H3S 4135   0.960   5.615   6.543 -1.3640  1.7138 -0.5047
   31SAPC   C24 4136   1.164   5.655   6.612  0.2254 -0.0674  0.1173
   31SAPC   H4R 4137   1.145   5.747   6.672 -2.8551  1.2130 -2.4842
   31SAPC   H4S 4138   1.262   5.665   6.560  0.7349 -1.2437  0.8232
   31SAPC   C25 4139   1.179   5.528   6.699 -0.2466  0.4497 -0.0030
   31SAPC   H5R 4140   1.196   5.440   6.636 -0.0767 -0.2357  0.9688
   31SAPC   C26 4141   1.175   5.514   6.831 -0.3430  0.3807 -0.2759
   31SAPC   H6R 4142   1.170   5.412   6.870  0.1973  0.5156  0.1610
   31SAPC   C27 4143   1.157   5.630   6.924 -0.1219  0.2339 -0.0407
   31SAPC   H7R 4144   1.129   5.578   7.019  3.8836 -0.5139  0.9028
   31SAPC   H7S 4145   1.069   5.691   6.896 -0.9454 -0.4834  0.8951
   31SAPC   C28 4146   1.279   5.708   6.952 -0.2498  0.5716 -0.3035
   31SAPC   H8R 4147   1.342   5.724   6.863  0.2302  2.0116  0.2612
   31SAPC   C29 4148   1.336   5.738   7.074 -0.2816 -0.0401 -0.1382
   31SAPC   H9R 4149   1.434   5.785   7.088  0.3905 -0.9488 -1.5114
   31SAPC  C210 4150   1.266   5.701   7.201  0.2228 -0.6203 -0.1931
   31SAPC  H10R 4151   1.335   5.721   7.286 -2.1673 -1.3139  1.9996
   31SAPC  H10S 4152   1.264   5.591   7.207 -0.6739 -0.5202  3.2713
   31SAPC  C211 4153   1.125   5.751   7.232 -0.1380  0.2291  0.2006
   31SAPC  H11R 4154   1.056   5.781   7.151 -1.4228  0.6341  1.4036
   31SAPC  C212 4155   1.084   5.778   7.351 -0.4288  0.0472 -1.0836
   31SAPC  H12R 4156   0.977   5.794   7.370 -0.2123 -1.4333  2.0084
   31SAPC  C213 4157   1.157   5.767   7.482 -0.2161 -0.2058  0.7363
   31SAPC  H13R 4158   1.259   5.724   7.474 -0.3534 -0.3099 -0.5769
   31SAPC  H13S 4159   1.108   5.679   7.529  1.5707 -0.4275  2.3552
   31SAPC  C214 4160   1.173   5.898   7.562  0.7219 -0.2068 -0.1678
   31SAPC  H14R 4161   1.253   5.958   7.516  2.3909 -0.3027  2.3517
   31SAPC  C215 4162   1.116   5.938   7.675 -0.1331 -0.0645 -0.5828
   31SAPC  H15R 4163   1.141   6.041   7.706 -0.1240 -0.7590  1.9027
   31SAPC  C216 4164   1.003   5.867   7.745  0.4991 -0.1259 -0.1802
   31SAPC  H16R 4165   0.966   5.781   7.685  0.0157 -0.1280  0.1209
   31SAPC  H16S 4166   0.921   5.941   7.756 -0.2230 -0.6968 -1.4483
   31SAPC  C217 4167   1.057   5.809   7.879  0.6269  0.2829  0.5718
   31SAPC  H17R 4168   0.967   5.766   7.928  0.0790  0.4396 -0.2701
   31SAPC  H17S 4169   1.101   5.889   7.942  1.2712  1.0508 -0.8135
   31SAPC  C218 4170   1.167   5.702   7.856 -0.7824 -0.7268 -0.2544
   31SAPC  H18R 4171   1.270   5.744   7.857  0.3730 -3.2642  2.7167
   31SAPC  H18S 4172   1.146   5.647   7.762  0.1578 -0.4397 -0.6483
   31SAPC  C219 4173   1.168   5.603   7.971  0.6955 -0.0180 -0.7337
   31SAPC  H19R 4174   1.250   5.530   7.959 -0.3496 -1.8165  2.0758
   31SAPC  H19S 4175   1.074   5.545   7.961  1.3924 -1.3933  0.3713
   31SAPC  C220 4176   1.174   5.649   8.115  0.1928  1.1790 -0.3452
   31SAPC  H20R 4177   1.177   5.572   8.195 -0.6938  2.4544  0.9528
   31SAPC  H20S 4178   1.101   5.729   8.137  1.5096  1.9468  1.4732
   31SAPC  H20T 4179   1.271   5.702   8.124  0.9396 -0.1201 -0.4378
   31SAPC   C33 4180   0.494   6.079   7.039  0.0388 -0.1586 -0.2928
   31SAPC   H3X 4181   0.563   6.159   7.074  0.0021 -0.6522  0.9752
   31SAPC   H3Y 4182   0.539   5.984   7.075 -3.6550 -2.5833 -1.5582
   31SAPC   C34 4183   0.356   6.089   7.113  0.7104  0.2104 -0.4224
   31SAPC   H4X 4184   0.278   6.022   7.071 -1.7829  0.9102  2.6820
   31SAPC   H4Y 4185   0.331   6.198   7.115  1.7028  0.4347  0.5830
   31SAPC   C35 4186   0.375   6.069   7.266  0.5773 -0.0788  0.4131
   31SAPC   H5X 4187   0.480   6.043   7.290  1.4213  2.9352  0.4296
   31SAPC   H5Y 4188   0.308   5.986   7.296 -0.1904 -0.3076 -1.8179
   31SAPC   C36 4189   0.342   6.199   7.353 -0.2354  0.3691 -0.1992
   31SAPC   H6X 4190   0.235   6.226   7.359 -0.6753 -1.0163 -1.2920
   31SAPC   H6Y 4191   0.401   6.291   7.331  0.3808  0.0971  0.2752
   31SAPC   C37 4192   0.388   6.163   7.494 -0.6803  0.8427  0.0964
   31SAPC   H7X 4193   0.493   6.127   7.495 -1.0524 -0.2758 -0.4815
   31SAPC   H7Y 4194   0.346   6.066   7.528 -0.3922  0.1033 -1.5715
   31SAPC   C38 4195   0.374   6.270   7.604 -0.2530  0.0327 -0.4066
   31SAPC   H8X 4196   0.451   6.349   7.595 -1.7914  1.5945 -0.2198
   31SAPC   H8Y 4197   0.386   6.220   7.703 -2.8844  2.4523  1.2793
   31SAPC   C39 4198   0.238   6.329   7.608 -0.4319 -0.5532 -0.2784
   31SAPC   H9X 4199   0.158   6.254   7.628  1.1629 -1.4931  3.3871
   31SAPC   H9Y 4200   0.210   6.368   7.507 -1.5316 -0.0210  0.2059
   31SAPC  C310 4201   0.228   6.438   7.721  0.1887  0.1197  0.1149
   31SAPC  H10X 4202   0.133   6.496   7.707  1.9707  2.7913 -1.9640
   31SAPC  H10Y 4203   0.311   6.509   7.702  0.2675 -0.2223 -0.8953
   31SAPC  C311 4204   0.225   6.376   7.856  0.0919  0.0360 -0.1426
   31SAPC  H11X 4205   0.325   6.332   7.878 -0.0672 -0.3008 -0.0759
   31SAPC  H11Y 4206   0.155   6.289   7.859  3.4970 -2.9690 -1.3261
   31SAPC  C312 4207   0.178   6.473   7.966  0.1862 -0.0664  0.2485
   31SAPC  H12X 4208   0.069   6.485   7.949  0.4731 -0.1948 -2.0595
   31SAPC  H12Y 4209   0.228   6.573   7.959 -0.5508  0.5357  2.6486
   31SAPC  C313 4210   0.205   6.419   8.105  0.6879 -0.3164 -0.1423
   31SAPC  H13X 4211   0.315   6.417   8.121  0.5424 -0.1269  0.9179
   31SAPC  H13Y 4212   0.170   6.314   8.117 -0.1695 -0.2567 -1.8175
   31SAPC  C314 4213   0.134   6.503   8.218  0.5505  0.5861 -0.0612
   31SAPC  H14X 4214   0.026   6.527   8.204  0.5830  0.6800 -0.1541
   31SAPC  H14Y 4215   0.168   6.608   8.208 -0.4446  1.0332  0.9465
   31SAPC  C315 4216   0.152   6.454   8.359  0.0514  0.3567 -0.5771
   31SAPC  H15X 4217   0.260   6.454   8.387  0.0481  0.3258 -0.5646
   31SAPC  H15Y 4218   0.103   6.356   8.377 -0.0049  0.4096 -0.4463
   31SAPC  C316 4219   0.061   6.536   8.448 -0.3639  0.7756 -0.4522
   31SAPC  H16X 4220   0.060   6.500   8.553 -0.5521  1.4943 -0.2026
   31SAPC  H16Y 4221  -0.047   6.528   8.423  0.1489 -0.0179 -2.5860
   31SAPC  C317 4222   0.091   6.681   8.476  0.3428  0.1246 -0.4169
   31SAPC  H17X 4223   0.103   6.719   8.372  1.2490  0.4514 -0.1947
   31SAPC  H17Y 4224   0.194   6.685   8.516 -0.3322  1.2368  1.3296
   31SAPC  C318 4225  -0.004   6.765   8.557 -0.1902 -0.4292 -0.6348
   31SAPC  H18X 4226   0.025   6.870   8.539 -1.4640  0.4166  1.8228
   31SAPC  H18Y 4227   0.001   6.739   8.665 -1.4797  1.1165 -0.1670
   31SAPC  H18Z 4228  -0.111   6.740   8.536 -0.1263 -2.3700  0.9930
   32SAPC     N 4229   2.649   0.757   6.092 -0.5185  0.0878  0.6101
   32SAPC   C12 4230   2.646   0.864   6.204 -0.3141 -0.1280 -0.0125
   32SAPC  H12A 4231   2.608   0.809   6.288  0.2389 -0.4609  0.0210
   32SAPC  H12B 4232   2.571   0.941   6.191  0.8340  1.0154 -0.0719
   32SAPC   C13 4233   2.700   0.812   5.958  0.5772  0.1985 -0.3506
   32SAPC  H13A 4234   2.774   0.884   5.990 -0.9015  1.6776 -0.1156
   32SAPC  H13B 4235   2.745   0.729   5.906  1.8675 -0.3708  1.5533
   32SAPC  H13C 4236   2.612   0.850   5.907 -0.5705 -1.3610  0.3987
   32SAPC   C14 4237   2.750   0.645   6.124  0.2719 -0.3457  0.1320
   32SAPC  H14A 4238   2.698   0.596   6.204 -3.1759  2.0226 -0.4363
   32SAPC  H14B 4239   2.776   0.575   6.046  1.4289 -2.6752  2.4826
   32SAPC  H14C 4240   2.843   0.692   6.155  0.7332 -1.3377  0.2818
   32SAPC   C15 4241   2.521   0.695   6.065 -0.6248  0.3714 -0.1609
   32SAPC  H15A 4242   2.448   0.760   6.019 -1.2314 -1.7943 -2.4582
   32SAPC  H15B 4243   2.516   0.608   6.001 -2.2270 -0.1331  0.5759
   32SAPC  H15C 4244   2.489   0.665   6.164  0.5359  1.7374  0.6703
   32SAPC   C11 4245   2.777   0.941   6.243  0.5375  0.2562 -0.0148
   32SAPC  H11A 4246   2.867   0.880   6.218 -1.6124 -1.8577 -3.5069
   32SAPC  H11B 4247   2.773   0.970   6.350 -1.9074 -0.8098  0.2541
   32SAPC     P 4248   2.690   1.180   6.189 -0.1511  0.1734 -0.1800
   32SAPC   O13 4249   2.723   1.285   6.092 -0.0019 -0.5635  0.2049
   32SAPC   O14 4250   2.554   1.131   6.195 -0.2986  0.0704 -0.7972
   32SAPC   O12 4251   2.784   1.062   6.162  0.0621  0.2165 -0.1388
   32SAPC   O11 4252   2.735   1.228   6.328 -0.1947 -0.0334  0.4491
   32SAPC    C1 4253   2.865   1.259   6.374  0.4782  0.8139 -0.4457
   32SAPC    HA 4254   2.941   1.203   6.315 -1.5635 -2.2967 -0.3569
   32SAPC    HB 4255   2.895   1.366   6.368 -0.3521  1.0228 -0.9481
   32SAPC    C2 4256   2.876   1.215   6.523  0.1019 -0.1597 -0.4048
   32SAPC    HS 4257   2.809   1.127   6.538 -2.1083  1.3284 -1.0333
   32SAPC   O21 4258   2.821   1.315   6.613  0.3658 -0.6156 -0.2538
   32SAPC   C21 4259   2.762   1.272   6.717 -0.0637 -0.2650 -0.3984
   32SAPC   O22 4260   2.727   1.159   6.745  0.4639  0.6437 -0.0931
   32SAPC   C22 4261   2.733   1.385   6.815 -0.0718  0.1685  0.3999
   32SAPC   H2R 4262   2.820   1.454   6.824 -0.7350  1.3372 -1.4770
   32SAPC   H2S 4263   2.650   1.450   6.782  0.0087  1.7549  2.9904
   32SAPC    C3 4264   3.027   1.196   6.551 -0.7514  0.2597 -0.8978
   32SAPC    HX 4265   3.067   1.298   6.536 -2.1881  0.8806 -0.7012
   32SAPC    HY 4266   3.059   1.124   6.473 -0.3117  1.7094 -2.0905
   32SAPC   O31 4267   3.056   1.137   6.673 -0.3020  0.4642 -0.5209
   32SAPC   C31 4268   3.093   1.209   6.776  0.0171 -0.4671 -0.1833
   32SAPC   O32 4269   3.079   1.330   6.780  0.4300  0.2707  0.2919
   32SAPC   C32 4270   3.143   1.128   6.897 -0.0108  0.0027  0.5917
   32SAPC   H2X 4271   3.225   1.188   6.940  0.9299 -1.5489  1.0467
   32SAPC   H2Y 4272   3.199   1.043   6.852  1.3784  1.8006 -1.2756
   32SAPC   C23 4273   2.708   1.326   6.952 -0.0091 -0.1395 -0.5158
   32SAPC   H3R 4274   2.764   1.231   6.962 -2.3277 -1.7388 -1.8215
   32SAPC   H3S 4275   2.602   1.294   6.966 -0.2112  0.5440 -0.4168
   32SAPC   C24 4276   2.746   1.419   7.070 -0.0736  0.4415 -0.0784
   32SAPC   H4R 4277   2.854   1.443   7.070  0.0378 -0.0330  0.5318
   32SAPC   H4S 4278   2.735   1.353   7.158  2.4827 -3.2681 -2.2555
   32SAPC   C25 4279   2.666   1.543   7.060 -0.2406 -0.6117  0.6997
   32SAPC   H5R 4280   2.683   1.601   6.967  0.0978 -0.5305  0.8109
   32SAPC   C26 4281   2.573   1.588   7.146  0.3030 -0.7503  0.4204
   32SAPC   H6R 4282   2.516   1.677   7.115  1.8773  1.6744  3.8047
   32SAPC   C27 4283   2.529   1.524   7.274  0.1756 -0.3399  0.0142
   32SAPC   H7R 4284   2.538   1.413   7.274 -0.6450 -0.4251  1.1381
   32SAPC   H7S 4285   2.420   1.535   7.289  0.5180 -0.4404  3.6763
   32SAPC   C28 4286   2.609   1.553   7.396  0.0661 -0.0548 -0.1202
   32SAPC   H8R 4287   2.710   1.591   7.376 -1.2390  2.0255 -3.7106
   32SAPC   C29 4288   2.561   1.537   7.526 -0.7010 -0.6021  0.2471
   32SAPC   H9R 4289   2.632   1.566   7.604 -1.2393 -3.2434  1.8444
   32SAPC  C210 4290   2.429   1.486   7.585  0.0016 -0.0710  0.5794
   32SAPC  H10R 4291   2.448   1.412   7.665  3.3537 -0.2199 -0.1989
   32SAPC  H10S 4292   2.381   1.425   7.506  0.8659 -0.0001 -0.0180
   32SAPC  C211 4293   2.331   1.598   7.615 -0.3494 -0.1599  0.7723
   32SAPC  H11R 4294   2.330   1.679   7.541  4.1560 -1.1535 -0.6653
   32SAPC  C212 4295   2.251   1.627   7.720  0.2958  0.2879 -0.4667
   32SAPC  H12R 4296   2.183   1.714   7.719 -2.7978 -1.9271  1.3417
   32SAPC  C213 4297   2.237   1.544   7.847 -0.9251 -0.2797 -0.3092
   32SAPC  H13R 4298   2.250   1.440   7.811  1.3347  0.5162 -2.0775
   32SAPC  H13S 4299   2.130   1.551   7.876 -0.2935  1.8164  1.9173
   32SAPC  C214 4300   2.328   1.593   7.958  0.5487  0.0200 -0.6673
   32SAPC  H14R 4301   2.374   1.691   7.941  0.6469  0.5100  1.9071
   32SAPC  C215 4302   2.346   1.528   8.077  0.0567 -0.2398  0.0454
   32SAPC  H15R 4303   2.409   1.560   8.161 -0.3504 -0.1013  0.3051
   32SAPC  C216 4304   2.274   1.400   8.100 -0.1073  0.7636  0.9729
   32SAPC  H16R 4305   2.320   1.333   8.025 -1.2864  1.6673 -0.6152
   32SAPC  H16S 4306   2.165   1.414   8.082 -0.0032  1.5842  0.9210
   32SAPC  C217 4307   2.287   1.329   8.238 -0.4925 -0.9761 -0.2056
   32SAPC  H17R 4308   2.247   1.403   8.312  0.0512  0.0456 -0.9100
   32SAPC  H17S 4309   2.396   1.323   8.258 -0.8633 -1.7134  1.8459
   32SAPC  C218 4310   2.219   1.193   8.253  0.6388  0.5675  0.3889
   32SAPC  H18R 4311   2.249   1.124   8.172  1.1302  0.5090  0.6206
   32SAPC  H18S 4312   2.110   1.206   8.235  1.0729  1.6334 -1.8327
   32SAPC  C219 4313   2.245   1.139   8.391  0.1560  0.7603 -0.1793
   32SAPC  H19R 4314   2.344   1.169   8.432 -0.8191  1.1600  2.0085
   32SAPC  H19S 4315   2.243   1.030   8.371 -3.1631  0.4357  1.2818
   32SAPC  C220 4316   2.135   1.173   8.492  0.2212  0.4314 -0.6293
   32SAPC  H20R 4317   2.100   1.276   8.470  2.9163  1.0512 -2.6023
   32SAPC  H20S 4318   2.168   1.163   8.597  0.5338  0.8111 -0.6865
   32SAPC  H20T 4319   2.060   1.092   8.484  1.3210 -0.5086 -1.8950
   32SAPC   C33 4320   3.020   1.097   6.993 -0.1457  0.3327  0.4374
   32SAPC   H3X 4321   2.947   1.049   6.925  0.3079 -0.2858  0.3745
   32SAPC   H3Y 4322   2.968   1.192   7.015 -0.0090  0.8505 -1.2966
   32SAPC   C34 4323   3.059   1.027   7.123 -0.2787  0.4780  0.2035
   32SAPC   H4X 4324   3.148   1.085   7.156 -1.2697  2.0692  0.1686
   32SAPC   H4Y 4325   3.094   0.925   7.098  3.7536  0.8809  3.2252
   32SAPC   C35 4326   2.955   1.021   7.234 -0.4152 -0.2269 -0.1995
   32SAPC   H5X 4327   2.861   0.965   7.213 -1.1499  0.9733 -0.1785
   32SAPC   H5Y 4328   2.907   1.120   7.247 -1.1920 -0.9117  3.2994
   32SAPC   C36 4329   3.011   0.966   7.366  0.1819 -0.4073  0.5097
   32SAPC   H6X 4330   3.100   1.030   7.384  0.9664 -1.0194 -0.9566
   32SAPC   H6Y 4331   3.040   0.859   7.354 -1.0535 -1.0040  2.4102
   32SAPC   C37 4332   2.917   0.966   7.483  0.3723 -0.1644  0.3673
   32SAPC   H7X 4333   2.829   0.899   7.473  1.9513 -2.1776 -0.6644
   32SAPC   H7Y 4334   2.863   1.061   7.505 -0.4646 -0.1576 -1.5111
   32SAPC   C38 4335   2.997   0.933   7.611  0.4132  0.3353  0.2071
   32SAPC   H8X 4336   3.083   1.002   7.623  0.2730  0.4021  0.8350
   32SAPC   H8Y 4337   3.023   0.825   7.607  0.1634  0.2554  0.6554
   32SAPC   C39 4338   2.914   0.965   7.736  0.4012  0.3516 -0.6892
   32SAPC   H9X 4339   2.809   0.956   7.700  0.9216  1.2300 -2.5477
   32SAPC   H9Y 4340   2.934   1.067   7.775 -0.5164  0.1432  0.3686
   32SAPC  C310 4341   2.920   0.874   7.866 -0.1046 -0.4483  0.7763
   32SAPC  H10X 4342   2.884   0.772   7.839  0.5437 -0.1917 -1.2087
   32SAPC  H10Y 4343   2.860   0.912   7.952  1.1167  1.4530  0.8334
   32SAPC  C311 4344   3.065   0.852   7.919  0.1746 -0.3345  0.2893
   32SAPC  H11X 4345   3.128   0.846   7.827 -0.7808 -0.8520 -0.3465
   32SAPC  H11Y 4346   3.079   0.755   7.972  0.0861 -0.2585  0.4495
   32SAPC  C312 4347   3.124   0.974   7.994 -0.4512 -0.2139  0.6281
   32SAPC  H12X 4348   3.049   1.018   8.063 -0.3777  3.0129 -1.1270
   32SAPC  H12Y 4349   3.115   1.043   7.907 -2.8959 -1.8065 -0.4965
   32SAPC  C313 4350   3.255   0.967   8.065 -0.4821  0.3115  0.4283
   32SAPC  H13X 4351   3.337   0.960   7.990  0.7526  0.4675  1.7052
   32SAPC  H13Y 4352   3.253   0.880   8.134  1.3200 -0.9238 -0.9609
   32SAPC  C314 4353   3.285   1.091   8.159  0.2103 -0.3427  0.6637
   32SAPC  H14X 4354   3.206   1.095   8.236 -0.6924  2.0157 -0.2991
   32SAPC  H14Y 4355   3.289   1.190   8.109  1.5916 -0.2670  0.8833
   32SAPC  C315 4356   3.419   1.081   8.229 -0.4142 -0.4787  0.3009
   32SAPC  H15X 4357   3.493   1.066   8.147 -0.2634  0.8612  0.1832
   32SAPC  H15Y 4358   3.413   0.981   8.279 -0.8006 -0.3051  0.6078
   32SAPC  C316 4359   3.455   1.187   8.330 -0.5844 -0.1729 -0.6132
   32SAPC  H16X 4360   3.535   1.131   8.383 -1.4275 -1.5521 -0.7553
   32SAPC  H16Y 4361   3.378   1.213   8.406  1.1420  0.8527  0.8789
   32SAPC  C317 4362   3.517   1.318   8.280  0.6824 -0.0985  0.6345
   32SAPC  H17X 4363   3.440   1.374   8.223 -0.2832 -1.6537  0.3619
   32SAPC  H17Y 4364   3.603   1.280   8.222 -0.2602  0.5160 -1.2590
   32SAPC  C318 4365   3.574   1.396   8.396  0.5939  0.1104  0.1520
   32SAPC  H18X 4366   3.600   1.499   8.364  0.8030 -0.9452 -3.5557
   32SAPC  H18Y 4367   3.660   1.352   8.450  1.1522  2.0752  0.9778
   32SAPC  H18Z 4368   3.503   1.400   8.482  2.1650  2.3957  1.4503
   33POPC     N 4369   3.118   2.603  10.962  0.0061  0.0864 -0.6509
   33POPC   C12 4370   3.037   2.653  10.855  0.0928  0.2578 -0.1157
   33POPC  H12A 4371   2.959   2.715  10.897  0.0279  0.0214  0.1149
   33POPC  H12B 4372   2.990   2.570  10.806 -1.1645  1.5685 -1.2385
   33POPC   C13 4373   3.173   2.714  11.051 -0.1919 -0.9148  0.4512
   33POPC  H13A 4374   3.220   2.784  10.983  1.2095 -1.9262  0.3392
   33POPC  H13B 4375   3.087   2.762  11.095 -1.1963 -2.1217 -0.1348
   33POPC  H13C 4376   3.236   2.674  11.128  1.0358  1.9959  1.0826
   33POPC   C14 4377   3.026   2.524  11.064  0.2817  0.2874  0.2462
   33POPC  H14A 4378   2.954   2.595  11.103 -0.0044  0.2120 -0.1406
   33POPC  H14B 4379   2.979   2.441  11.013  0.8657  0.0518  0.0866
   33POPC  H14C 4380   3.082   2.479  11.144  2.0825  0.7046 -0.7220
   33POPC   C15 4381   3.228   2.514  10.914  0.9227 -0.4053 -0.1242
   33POPC  H15A 4382   3.189   2.433  10.855  0.7448 -0.0038 -0.5712
   33POPC  H15B 4383   3.275   2.461  10.995 -2.0973 -0.1878  1.9429
   33POPC  H15C 4384   3.301   2.564  10.851  0.5507 -1.8004 -1.7514
   33POPC   C11 4385   3.102   2.732  10.742 -0.4833  0.1431  0.2003
   33POPC  H11A 4386   3.179   2.672  10.688  0.5661  1.0685  0.6072
   33POPC  H11B 4387   3.160   2.817  10.785  0.0333 -0.8804  1.5983
   33POPC     P 4388   2.912   2.687  10.566  0.0150 -0.2954  0.0354
   33POPC   O13 4389   2.828   2.772  10.486  0.7148 -0.3676 -0.1003
   33POPC   O14 4390   2.834   2.597  10.656  0.4211 -0.2059 -0.2671
   33POPC   O12 4391   3.000   2.770  10.661 -0.2366 -0.1512 -0.3750
   33POPC   O11 4392   3.018   2.611  10.474 -0.5240 -0.3137 -0.1390
   33POPC    C1 4393   3.079   2.490  10.511  0.4939  0.3721  1.0056
   33POPC    HA 4394   3.189   2.494  10.491  0.1426  1.0536 -1.0002
   33POPC    HB 4395   3.076   2.459  10.618  2.7412  0.2622  1.1002
   33POPC    C2 4396   3.020   2.370  10.431  0.5050  0.3840  0.6580
   33POPC    HS 4397   3.083   2.280  10.449 -0.3089 -0.1665  0.8232
   33POPC   O21 4398   3.021   2.409  10.296  0.3878  0.0847  0.0902
   33POPC   C21 4399   3.140   2.407  10.238  0.1633 -0.5213 -0.3732
   33POPC   O22 4400   3.238   2.354  10.280  0.2827 -0.8215 -0.2066
   33POPC   C22 4401   3.124   2.486  10.110 -0.0825 -0.6406  0.4855
   33POPC   H2R 4402   3.091   2.584  10.149 -1.0513 -0.8576  0.2248
   33POPC   H2S 4403   3.048   2.439  10.043  1.2364 -0.1199 -1.4779
   33POPC    C3 4404   2.867   2.344  10.470 -0.5066 -0.1069 -0.0343
   33POPC    HX 4405   2.815   2.435  10.432 -0.6126  0.3714  1.2362
   33POPC    HY 4406   2.857   2.353  10.580  0.4957  3.9338 -0.0969
   33POPC   O31 4407   2.810   2.223  10.418  0.0367  0.0862  0.1349
   33POPC   C31 4408   2.786   2.224  10.289  0.7981 -0.2175  0.6204
   33POPC   O32 4409   2.784   2.326  10.217 -0.0888  0.2721 -0.0803
   33POPC   C32 4410   2.743   2.085  10.233 -0.3995 -0.5264 -0.3053
   33POPC   H2X 4411   2.640   2.055  10.261 -0.7442 -1.6147 -2.5202
   33POPC   H2Y 4412   2.819   2.017  10.276 -0.7541 -0.9433 -0.3386
   33POPC   C23 4413   3.254   2.508  10.035  0.4938  0.3656 -0.7409
   33POPC   H3R 4414   3.315   2.415  10.027 -0.3015 -0.1915 -0.3574
   33POPC   H3S 4415   3.323   2.581  10.082  2.5777 -1.3976 -0.8548
   33POPC   C24 4416   3.234   2.558   9.888 -0.4353  0.3173  0.0100
   33POPC   H4R 4417   3.189   2.659   9.901 -0.5772 -0.0181  2.6096
   33POPC   H4S 4418   3.168   2.481   9.841 -0.6565 -0.7438  1.9514
   33POPC   C25 4419   3.369   2.566   9.807 -0.6052  0.2212  0.2757
   33POPC   H5R 4420   3.419   2.467   9.806 -0.2314  0.4121 -0.4819
   33POPC   H5S 4421   3.425   2.645   9.861 -1.1239  0.0672  1.0648
   33POPC   C26 4422   3.338   2.597   9.665 -0.1875 -0.3737  0.1079
   33POPC   H6R 4423   3.309   2.704   9.657  0.2406 -0.3854 -2.6309
   33POPC   H6S 4424   3.268   2.524   9.619  1.3244 -2.0958  0.4189
   33POPC   C27 4425   3.472   2.585   9.583  0.0324 -0.0155 -0.1525
   33POPC   H7R 4426   3.500   2.477   9.580  2.1295  0.4802  0.0426
   33POPC   H7S 4427   3.553   2.647   9.627  2.6123 -2.6004 -0.9358
   33POPC   C28 4428   3.465   2.646   9.434  0.1196  0.1940 -0.4057
   33POPC   H8R 4429   3.410   2.741   9.448  0.6045  0.2933  0.8977
   33POPC   H8S 4430   3.399   2.581   9.371  0.7856 -1.4200  0.5081
   33POPC   C29 4431   3.591   2.691   9.366 -0.5257  0.3789 -0.4531
   33POPC   H91 4432   3.643   2.770   9.421 -0.7975  1.0623 -1.1510
   33POPC  C210 4433   3.644   2.657   9.255  0.0730  0.6485 -0.7554
   33POPC  H101 4434   3.731   2.709   9.214 -0.4721  1.2284 -1.2046
   33POPC  C211 4435   3.586   2.557   9.156  0.2681  0.3468  0.3271
   33POPC  H11R 4436   3.486   2.593   9.123  1.1021  1.4694 -1.1347
   33POPC  H11S 4437   3.569   2.462   9.209 -1.2895  1.1932  1.4317
   33POPC  C212 4438   3.655   2.527   9.020 -0.2170  0.2104  0.3724
   33POPC  H12R 4439   3.744   2.464   9.042  0.0535  0.6321  0.5171
   33POPC  H12S 4440   3.688   2.616   8.963 -0.1430  0.4346  0.7559
   33POPC  C213 4441   3.553   2.451   8.927  0.2310 -0.1370 -0.3951
   33POPC  H13R 4442   3.478   2.529   8.903 -0.9361 -0.5342  1.6921
   33POPC  H13S 4443   3.508   2.378   8.998  0.3131 -2.3723 -2.4877
   33POPC  C214 4444   3.620   2.378   8.814  0.1707  0.2888  0.6936
   33POPC  H14R 4445   3.708   2.434   8.776 -1.2180  0.5742 -2.4792
   33POPC  H14S 4446   3.553   2.375   8.725  0.9425  0.9419  0.0732
   33POPC  C215 4447   3.651   2.231   8.854  0.5963 -0.3731 -0.0314
   33POPC  H15R 4448   3.553   2.181   8.873  0.7859 -1.8967 -2.5423
   33POPC  H15S 4449   3.711   2.236   8.947 -0.5516 -2.6895  0.9034
   33POPC  C216 4450   3.712   2.146   8.737 -0.0506 -0.1868  0.0169
   33POPC  H16R 4451   3.814   2.191   8.733  0.2473 -0.4181  2.8348
   33POPC  H16S 4452   3.655   2.167   8.644 -2.3848  1.3897  1.6749
   33POPC  C217 4453   3.720   1.999   8.753  0.1927 -0.3513  0.2235
   33POPC  H17R 4454   3.752   1.959   8.654 -1.1506  1.1191 -0.8523
   33POPC  H17S 4455   3.620   1.952   8.765 -1.0349  2.0582 -0.1122
   33POPC  C218 4456   3.807   1.961   8.869 -0.1969 -0.2556  0.3702
   33POPC  H18R 4457   3.827   1.853   8.851 -2.3438 -0.4812 -1.1245
   33POPC  H18S 4458   3.751   1.971   8.965  0.3000  0.8588  0.5605
   33POPC  H18T 4459   3.900   2.020   8.877 -1.6202  2.6434 -2.3998
   33POPC   C33 4460   2.749   2.081  10.083  0.2433 -0.0557  0.9013
   33POPC   H3X 4461   2.858   2.089  10.061  0.2565 -2.8044 -0.4814
   33POPC   H3Y 4462   2.695   2.166  10.036  0.9079 -0.8648 -1.4865
   33POPC   C34 4463   2.691   1.951  10.028  0.4541  0.1792  0.0607
   33POPC   H4X 4464   2.581   1.957  10.046  0.6979  0.4051  1.5785
   33POPC   H4Y 4465   2.716   1.864  10.092 -2.6558 -0.7289  0.2304
   33POPC   C35 4466   2.730   1.924   9.879  0.4839 -0.5555  0.0058
   33POPC   H5X 4467   2.698   1.821   9.854  1.6976 -2.0636  3.9325
   33POPC   H5Y 4468   2.841   1.927   9.870  0.3767  0.3218 -1.4663
   33POPC   C36 4469   2.659   2.018   9.767 -0.7231  0.2677 -0.3216
   33POPC   H6X 4470   2.704   2.120   9.772 -0.0467 -0.0776  1.0437
   33POPC   H6Y 4471   2.553   2.042   9.791 -0.3523  0.9190  0.7271
   33POPC   C37 4472   2.667   1.961   9.628  0.9517  0.0191  0.7437
   33POPC   H7X 4473   2.604   1.871   9.615  1.2005 -0.3679  2.0441
   33POPC   H7Y 4474   2.771   1.939   9.596  1.0150  2.5011 -1.0603
   33POPC   C38 4475   2.622   2.053   9.510  0.5481  0.0049 -0.0954
   33POPC   H8X 4476   2.654   2.010   9.413 -2.5890 -1.7756 -0.4613
   33POPC   H8Y 4477   2.687   2.142   9.527 -0.4223  0.8819 -0.8115
   33POPC   C39 4478   2.474   2.085   9.504  0.1203 -0.3698  0.0358
   33POPC   H9X 4479   2.429   2.128   9.595 -0.8729 -0.8880 -0.1986
   33POPC   H9Y 4480   2.415   1.998   9.467 -2.3035  1.3973 -0.4569
   33POPC  C310 4481   2.445   2.198   9.398 -0.3968  0.6034  0.1844
   33POPC  H10X 4482   2.486   2.295   9.433 -1.1254  0.4022  1.6910
   33POPC  H10Y 4483   2.334   2.206   9.392 -0.6023 -1.0398  1.1872
   33POPC  C311 4484   2.508   2.187   9.250 -0.0411  0.0560 -0.7878
   33POPC  H11X 4485   2.617   2.166   9.258 -0.6894 -4.0036 -0.5286
   33POPC  H11Y 4486   2.484   2.287   9.206 -2.0481  0.2147  0.5322
   33POPC  C312 4487   2.441   2.088   9.159 -0.3621 -0.0554 -0.3611
   33POPC  H12X 4488   2.334   2.113   9.144  0.5964  3.6305 -1.9700
   33POPC  H12Y 4489   2.439   1.984   9.198  1.1441  0.3937  1.0347
   33POPC  C313 4490   2.495   2.079   9.017  0.2523 -0.0072  0.1674
   33POPC  H13X 4491   2.597   2.037   9.031  1.0648  1.3811 -1.3485
   33POPC  H13Y 4492   2.501   2.181   8.973  1.2366 -0.4146 -0.6792
   33POPC  C314 4493   2.415   1.979   8.924 -0.1384 -0.1550 -0.0776
   33POPC  H14X 4494   2.317   2.025   8.900  0.1811 -0.1478 -1.4416
   33POPC  H14Y 4495   2.402   1.887   8.985 -0.4142  0.0365  0.1546
   33POPC  C315 4496   2.491   1.956   8.796  0.6391 -0.2319 -0.2821
   33POPC  H15X 4497   2.443   1.870   8.744 -3.3639  1.3049  0.5247
   33POPC  H15Y 4498   2.589   1.911   8.823  1.8575  2.5746  0.2617
   33POPC  C316 4499   2.505   2.076   8.697  0.7988  0.6239 -0.3504
   33POPC  H16X 4500   2.556   2.164   8.741 -0.2728  1.2740 -0.3573
   33POPC  H16Y 4501   2.404   2.113   8.669  0.7964 -0.5091 -2.0108
   33POPC  H16Z 4502   2.538   2.042   8.596  0.3568  3.1373 -1.4384
   34POPC     N 4503   4.040   4.268  10.705  0.0900 -0.0230 -0.6537
   34POPC   C12 4504   3.981   4.252  10.565 -0.4654  0.3590 -0.5291
   34POPC  H12A 4505   3.880   4.219  10.581  0.6737 -3.1760  0.2092
   34POPC  H12B 4506   4.035   4.164  10.533  3.4729  1.2126  2.9319
   34POPC   C13 4507   3.959   4.375  10.777 -1.1075  0.5616  0.4547
   34POPC  H13A 4508   3.862   4.338  10.808 -0.5844 -0.5790  0.8183
   34POPC  H13B 4509   4.013   4.409  10.864  1.1724  2.0705 -1.4385
   34POPC  H13C 4510   3.952   4.458  10.709  1.7142 -0.4448 -1.2699
   34POPC   C14 4511   4.026   4.147  10.781 -0.2454  0.0959  0.1798
   34POPC  H14A 4512   3.925   4.121  10.808 -0.3847  0.1320 -0.3084
   34POPC  H14B 4513   4.059   4.055  10.735  0.8735 -0.4532  1.9505
   34POPC  H14C 4514   4.077   4.155  10.876 -1.0401 -0.7661  0.6963
   34POPC   C15 4515   4.181   4.312  10.707 -0.1795 -0.0097  0.4642
   34POPC  H15A 4516   4.232   4.291  10.800 -2.1591 -1.5322  1.2689
   34POPC  H15B 4517   4.190   4.419  10.701 -0.7723  0.0861  1.1397
   34POPC  H15C 4518   4.239   4.267  10.627 -0.4317 -0.5976  0.6092
   34POPC   C11 4519   4.007   4.364  10.459  0.1618  0.0782 -0.2011
   34POPC  H11A 4520   3.966   4.330  10.361  0.1758 -3.5064  0.9132
   34POPC  H11B 4521   4.114   4.392  10.447 -0.0659  0.4787 -1.4090
   34POPC     P 4522   3.797   4.525  10.473 -0.5639  0.1804  0.1761
   34POPC   O13 4523   3.763   4.652  10.543  0.2276  0.1895  0.0985
   34POPC   O14 4524   3.708   4.411  10.495  0.1301 -0.0919  0.1040
   34POPC   O12 4525   3.944   4.483  10.513 -0.1950  0.2476 -0.2649
   34POPC   O11 4526   3.820   4.549  10.315 -0.5367  0.1002 -0.4331
   34POPC    C1 4527   3.941   4.609  10.263  0.1235  0.3345 -1.0683
   34POPC    HA 4528   3.974   4.571  10.164  0.3316 -1.8577 -0.2293
   34POPC    HB 4529   4.026   4.602  10.334 -0.8321 -0.4911  0.0420
   34POPC    C2 4530   3.908   4.761  10.251 -0.4663  0.1421  0.1596
   34POPC    HS 4531   3.869   4.813  10.340  1.4300  0.5671  0.7996
   34POPC   O21 4532   3.811   4.762  10.144 -0.0250  0.0790 -0.0735
   34POPC   C21 4533   3.761   4.878  10.129 -0.1083 -0.3961 -0.2784
   34POPC   O22 4534   3.760   4.969  10.216  0.4408 -0.2479 -0.7093
   34POPC   C22 4535   3.687   4.876   9.992 -0.1038  0.1426 -0.0581
   34POPC   H2R 4536   3.598   4.812  10.004 -1.2058  1.1762 -2.1856
   34POPC   H2S 4537   3.751   4.828   9.915 -0.8447  2.9133 -2.6031
   34POPC    C3 4538   4.034   4.837  10.195  0.4704  0.6356  0.0449
   34POPC    HX 4539   4.115   4.833  10.272 -0.5359 -3.2232  1.1505
   34POPC    HY 4540   4.006   4.944  10.186  1.4893  0.7845 -1.7947
   34POPC   O31 4541   4.076   4.782  10.074 -0.5802  0.7024 -0.1661
   34POPC   C31 4542   4.069   4.866   9.964  0.5256 -0.0156 -0.2698
   34POPC   O32 4543   4.003   4.966   9.960 -0.2753  0.3776 -0.2280
   34POPC   C32 4544   4.140   4.799   9.852 -0.0125  0.0518 -0.2802
   34POPC   H2X 4545   4.076   4.712   9.830  1.5159 -1.6198  1.4963
   34POPC   H2Y 4546   4.239   4.764   9.888  0.6940  2.2895  0.1491
   34POPC   C23 4547   3.653   5.022   9.943  0.6675  0.4139  0.2613
   34POPC   H3R 4548   3.749   5.073   9.919 -0.3407  1.5070 -1.6335
   34POPC   H3S 4549   3.601   5.074  10.027 -0.8289  1.3765 -1.2073
   34POPC   C24 4550   3.562   5.014   9.818  0.0051  0.9558  0.0392
   34POPC   H4R 4551   3.490   5.097   9.804 -1.7705 -0.8618 -2.3705
   34POPC   H4S 4552   3.488   4.933   9.829  1.2844 -0.5309 -1.7100
   34POPC   C25 4553   3.647   5.013   9.698 -0.4124  0.2823 -0.2963
   34POPC   H5R 4554   3.715   4.925   9.693 -0.8680 -0.1937  1.2082
   34POPC   H5S 4555   3.713   5.102   9.700  1.5316 -1.0663 -1.5697
   34POPC   C26 4556   3.566   5.005   9.573 -0.0092  0.1418  0.7463
   34POPC   H6R 4557   3.502   5.096   9.567 -2.4065 -1.4327  1.2998
   34POPC   H6S 4558   3.499   4.917   9.572  0.3925 -0.1702  0.9120
   34POPC   C27 4559   3.661   4.995   9.456  0.4079  0.5005  0.1709
   34POPC   H7R 4560   3.717   4.899   9.452 -1.4564 -0.6006 -0.5207
   34POPC   H7S 4561   3.727   5.084   9.452  0.0858  0.8105  1.3064
   34POPC   C28 4562   3.589   4.996   9.313 -0.0499  0.6270 -0.1118
   34POPC   H8R 4563   3.556   4.895   9.280  0.0835 -0.1016  1.8800
   34POPC   H8S 4564   3.666   5.020   9.236 -0.3431  0.0584 -0.5971
   34POPC   C29 4565   3.473   5.086   9.309  0.4435  0.0182 -0.7140
   34POPC   H91 4566   3.387   5.045   9.363  0.8606 -1.9487 -1.4667
   34POPC  C210 4567   3.461   5.209   9.252  0.0766  0.2144 -0.1734
   34POPC  H101 4568   3.359   5.251   9.247  0.2573  0.8255  0.8534
   34POPC  C211 4569   3.567   5.284   9.173  0.1069 -0.7330 -0.3738
   34POPC  H11R 4570   3.667   5.274   9.221  0.7217  1.9739 -0.9322
   34POPC  H11S 4571   3.551   5.394   9.180  2.6231 -0.3586  0.6811
   34POPC  C212 4572   3.587   5.255   9.031 -0.1089  0.1317 -0.6465
   34POPC  H12R 4573   3.621   5.149   9.032  0.7726  0.3672 -2.5042
   34POPC  H12S 4574   3.675   5.304   8.986  2.6519 -1.8181  2.2145
   34POPC  C213 4575   3.471   5.271   8.934 -0.7031  0.4341  0.2178
   34POPC  H13R 4576   3.445   5.379   8.927  1.1072  0.8837 -0.2711
   34POPC  H13S 4577   3.393   5.214   8.988 -0.3420  1.2620  1.6786
   34POPC  C214 4578   3.516   5.220   8.794 -0.2699 -0.6173  0.2996
   34POPC  H14R 4579   3.424   5.181   8.745  0.2138 -0.2455 -0.9519
   34POPC  H14S 4580   3.585   5.135   8.811  0.1087 -0.5656 -0.8475
   34POPC  C215 4581   3.603   5.320   8.712  0.2208  0.2693 -0.3279
   34POPC  H15R 4582   3.709   5.327   8.744  0.2995 -0.1869 -0.4806
   34POPC  H15S 4583   3.557   5.421   8.711  0.2495  0.2986  0.6865
   34POPC  C216 4584   3.639   5.280   8.562  0.3686 -0.2720 -0.3139
   34POPC  H16R 4585   3.720   5.204   8.558 -0.6313 -1.3007 -2.1560
   34POPC  H16S 4586   3.684   5.361   8.500 -0.0967  0.3968  0.2106
   34POPC  C217 4587   3.513   5.224   8.487 -0.0836 -0.2550  0.6900
   34POPC  H17R 4588   3.433   5.300   8.500  0.9231  1.0623 -0.5766
   34POPC  H17S 4589   3.479   5.127   8.530 -0.2620 -0.0746  0.9599
   34POPC  C218 4590   3.548   5.216   8.338  0.4925 -0.3916  0.4014
   34POPC  H18R 4591   3.602   5.308   8.308  1.2145 -0.1462  2.2605
   34POPC  H18S 4592   3.459   5.178   8.284 -0.4508 -1.7368  2.7205
   34POPC  H18T 4593   3.625   5.137   8.320  0.1930 -0.0198 -3.1332
   34POPC   C33 4594   4.159   4.895   9.727 -0.1094 -0.5588 -0.8941
   34POPC   H3X 4595   4.226   4.981   9.748  0.3484 -0.8907 -0.9707
   34POPC   H3Y 4596   4.063   4.927   9.683  0.4404  2.9522  0.1856
   34POPC   C34 4597   4.247   4.819   9.633  0.0860  0.2551 -0.2291
   34POPC   H4X 4598   4.183   4.734   9.602 -0.7910  0.9241 -0.2816
   34POPC   H4Y 4599   4.333   4.780   9.692  0.1121 -1.0963 -1.1089
   34POPC   C35 4600   4.300   4.895   9.517 -0.7514 -0.4295  0.2339
   34POPC   H5X 4601   4.354   4.823   9.451  0.1711 -0.6605  1.2145
   34POPC   H5Y 4602   4.372   4.973   9.550 -1.7870  1.5202 -1.8760
   34POPC   C36 4603   4.206   4.984   9.433  0.1904 -0.1939  0.2937
   34POPC   H6X 4604   4.261   5.047   9.359 -0.3048  0.1886  0.2468
   34POPC   H6Y 4605   4.153   5.057   9.499 -3.6605 -0.7628 -1.9001
   34POPC   C37 4606   4.100   4.905   9.361  0.6084  0.6480  0.9693
   34POPC   H7X 4607   4.038   4.856   9.439  1.1696 -1.1602  0.3312
   34POPC   H7Y 4608   4.142   4.819   9.304 -2.4635 -2.0688  2.5134
   34POPC   C38 4609   4.001   4.992   9.272  0.3738 -0.3600 -0.4476
   34POPC   H8X 4610   3.946   5.058   9.342  2.3033  1.1916 -0.2984
   34POPC   H8Y 4611   3.940   4.928   9.204  2.3964 -2.8695 -0.0594
   34POPC   C39 4612   4.072   5.100   9.187 -0.1874  0.2028 -0.0480
   34POPC   H9X 4613   4.155   5.049   9.133  2.1062 -0.6604  3.9412
   34POPC   H9Y 4614   4.120   5.174   9.254  1.7390 -0.2897 -0.8418
   34POPC  C310 4615   3.988   5.180   9.093  0.5014  0.6657  0.2563
   34POPC  H10X 4616   3.920   5.250   9.147 -0.4533  0.6911 -0.9452
   34POPC  H10Y 4617   3.922   5.104   9.046  3.5104 -1.1868 -1.3054
   34POPC  C311 4618   4.066   5.237   8.977 -0.3960  0.0540  0.3764
   34POPC  H11X 4619   4.148   5.168   8.947 -2.4156 -1.1408 -3.0742
   34POPC  H11Y 4620   4.116   5.329   9.015 -1.1721  0.5944  0.1128
   34POPC  C312 4621   3.983   5.271   8.842  0.2755 -0.7695  0.5088
   34POPC  H12X 4622   3.901   5.344   8.860  1.6148  0.9844 -0.1779
   34POPC  H12Y 4623   3.937   5.173   8.818 -0.5240 -0.5504  1.1081
   34POPC  C313 4624   4.075   5.309   8.723 -0.3822  0.4472 -0.1307
   34POPC  H13X 4625   4.163   5.241   8.719 -0.4824  0.3106 -0.0340
   34POPC  H13Y 4626   4.113   5.413   8.735  0.3745  0.1934 -0.2997
   34POPC  C314 4627   4.003   5.310   8.579  0.3129  0.2233  0.0529
   34POPC  H14X 4628   3.918   5.382   8.574  1.4465  1.6597  0.5198
   34POPC  H14Y 4629   3.962   5.211   8.552  1.1457  0.0170 -0.4986
   34POPC  C315 4630   4.103   5.357   8.472  0.2415 -0.1776 -0.4978
   34POPC  H15X 4631   4.183   5.280   8.471 -0.5859 -1.1129  1.3530
   34POPC  H15Y 4632   4.148   5.456   8.497 -0.2098 -0.3387  1.0731
   34POPC  C316 4633   4.026   5.381   8.346  0.5965 -0.5430 -0.0341
   34POPC  H16X 4634   4.004   5.276   8.315 -1.4750 -0.1253 -0.1651
   34POPC  H16Y 4635   4.087   5.431   8.269 -1.1311  0.9433 -0.4992
   34POPC  H16Z 4636   3.934   5.441   8.362  0.1225 -0.5830 -2.3573
   35POPC     N 4637   3.504   1.522  10.684  0.0909  0.9294 -0.4391
   35POPC   C12 4638   3.565   1.521  10.824  0.1298  0.0705  0.6613
   35POPC  H12A 4639   3.606   1.424  10.847 -0.0617 -0.4514 -1.0348
   35POPC  H12B 4640   3.484   1.538  10.894 -1.5841  0.0696 -1.2056
   35POPC   C13 4641   3.612   1.476  10.590 -0.1052 -0.6535  0.7858
   35POPC  H13A 4642   3.579   1.494  10.489 -1.4252 -2.3729  0.8707
   35POPC  H13B 4643   3.698   1.538  10.611 -0.7547  0.9675 -1.0718
   35POPC  H13C 4644   3.643   1.375  10.611 -0.4749 -0.5663  1.8145
   35POPC   C14 4645   3.387   1.427  10.676  0.5246 -0.8126  0.7014
   35POPC  H14A 4646   3.418   1.330  10.713 -2.9811 -1.9663  0.9408
   35POPC  H14B 4647   3.305   1.471  10.730 -0.3356  0.0193 -1.1855
   35POPC  H14C 4648   3.353   1.420  10.574 -1.6688  2.2891  1.0615
   35POPC   C15 4649   3.460   1.655  10.633 -0.2814 -0.0796 -0.5151
   35POPC  H15A 4650   3.408   1.636  10.540  1.1973 -0.3887 -1.3143
   35POPC  H15B 4651   3.542   1.722  10.611 -0.1690  0.4665  1.4486
   35POPC  H15C 4652   3.395   1.709  10.700 -0.2936  0.3537 -0.8607
   35POPC   C11 4653   3.684   1.616  10.865 -0.6868  0.1804  0.4019
   35POPC  H11A 4654   3.696   1.595  10.973  0.5073  1.1723  0.4805
   35POPC  H11B 4655   3.670   1.725  10.847  0.7391  0.0174 -2.2192
   35POPC     P 4656   3.879   1.450  10.829 -0.0232  0.0621 -0.5115
   35POPC   O13 4657   3.780   1.339  10.827 -0.3298 -0.2358  0.6663
   35POPC   O14 4658   3.978   1.458  10.932  0.4623  0.5997 -0.0039
   35POPC   O12 4659   3.803   1.588  10.799  0.1148 -0.0978 -0.1698
   35POPC   O11 4660   3.960   1.450  10.695 -0.5229  0.1878  0.1501
   35POPC    C1 4661   4.008   1.564  10.621 -0.1893  0.2907 -0.9017
   35POPC    HA 4662   4.113   1.542  10.593 -0.5277 -0.8994 -1.2766
   35POPC    HB 4663   4.020   1.655  10.684  1.6308  0.0642 -0.8610
   35POPC    C2 4664   3.945   1.583  10.482 -0.2450  0.1400 -0.1164
   35POPC    HS 4665   3.863   1.657  10.496 -0.7277 -0.4675  0.3047
   35POPC   O21 4666   3.881   1.462  10.430  0.2372  0.0018 -0.4207
   35POPC   C21 4667   3.946   1.350  10.395  0.2182  0.3901  0.2517
   35POPC   O22 4668   4.069   1.336  10.400  0.5727  0.4424 -0.1804
   35POPC   C22 4669   3.861   1.238  10.340  0.2774 -0.7142  1.1685
   35POPC   H2R 4670   3.783   1.218  10.417  0.0798 -0.6184  0.9941
   35POPC   H2S 4671   3.923   1.150  10.314  1.1881  0.4651 -0.8295
   35POPC    C3 4672   4.036   1.651  10.377 -0.4508 -0.1640 -0.6414
   35POPC    HX 4673   4.129   1.590  10.372 -0.6145 -0.6880  1.5034
   35POPC    HY 4674   4.072   1.749  10.414 -1.9205  0.4462 -0.7663
   35POPC   O31 4675   3.978   1.666  10.247 -0.6675  0.5186 -0.1837
   35POPC   C31 4676   3.974   1.787  10.195 -0.6049 -0.1797  0.0060
   35POPC   O32 4677   4.016   1.885  10.247  0.1009 -0.0369  0.6737
   35POPC   C32 4678   3.921   1.770  10.050  0.0588 -0.1086  0.6902
   35POPC   H2X 4679   3.818   1.810  10.036  0.2200 -0.5824 -2.4682
   35POPC   H2Y 4680   3.923   1.660  10.032  0.8416 -0.2981  1.8152
   35POPC   C23 4681   3.789   1.277  10.208  0.5082 -0.2996 -0.2099
   35POPC   H3R 4682   3.748   1.379  10.222  0.2671 -0.5564  1.0878
   35POPC   H3S 4683   3.705   1.206  10.190  0.6667 -0.0718 -2.0319
   35POPC   C24 4684   3.892   1.274  10.086 -0.2535  0.1870 -0.7131
   35POPC   H4R 4685   3.944   1.176  10.077 -0.0359  0.3507 -1.2978
   35POPC   H4S 4686   3.970   1.344  10.121 -1.7754  1.2079  0.8214
   35POPC   C25 4687   3.828   1.314   9.957 -0.1805 -0.1891  0.4691
   35POPC   H5R 4688   3.911   1.349   9.893 -0.0996 -0.2291  0.5521
   35POPC   H5S 4689   3.777   1.410   9.980  1.7986  0.6866  1.4532
   35POPC   C26 4690   3.765   1.206   9.872 -0.0721  0.5091  0.0846
   35POPC   H6R 4691   3.679   1.173   9.934  1.1300  1.3286  2.2955
   35POPC   H6S 4692   3.834   1.120   9.857 -0.2384  0.4721 -0.4769
   35POPC   C27 4693   3.734   1.260   9.735  0.0052  0.1078  0.0778
   35POPC   H7R 4694   3.686   1.359   9.755  1.5962  1.1574 -1.0595
   35POPC   H7S 4695   3.653   1.199   9.689 -1.3209  1.1273  0.9897
   35POPC   C28 4696   3.845   1.283   9.632  0.2916 -0.1137  0.4497
   35POPC   H8R 4697   3.843   1.193   9.566  0.6190  0.5148 -0.4406
   35POPC   H8S 4698   3.942   1.263   9.681  0.3687 -0.2132  0.2595
   35POPC   C29 4699   3.839   1.420   9.563  0.2960  0.1964 -0.1895
   35POPC   H91 4700   3.871   1.502   9.630 -0.4030 -0.1088  0.5424
   35POPC  C210 4701   3.812   1.456   9.434  0.4779  0.3436  0.2979
   35POPC  H101 4702   3.819   1.558   9.395 -1.0299  0.0780 -0.7416
   35POPC  C211 4703   3.773   1.358   9.330 -0.1836  0.4489 -0.9945
   35POPC  H11R 4704   3.712   1.274   9.371 -0.1848 -0.2510 -2.3869
   35POPC  H11S 4705   3.865   1.319   9.282 -0.7669  0.8944 -2.5320
   35POPC  C212 4706   3.675   1.417   9.225 -1.0934 -0.2222  0.0125
   35POPC  H12R 4707   3.596   1.470   9.281 -0.1236 -0.0945  1.2922
   35POPC  H12S 4708   3.626   1.338   9.163 -0.0511  0.2487 -1.4530
   35POPC  C213 4709   3.751   1.505   9.122  0.6960 -0.5311 -0.6459
   35POPC  H13R 4710   3.848   1.465   9.085  0.3529  1.1571 -3.7064
   35POPC  H13S 4711   3.766   1.604   9.171 -1.4621  1.2403 -3.2649
   35POPC  C214 4712   3.664   1.546   9.000  0.2362  0.3560  0.4573
   35POPC  H14R 4713   3.628   1.457   8.944  0.3309  0.5456  0.0887
   35POPC  H14S 4714   3.723   1.606   8.927  1.8639 -0.7992  0.7645
   35POPC  C215 4715   3.535   1.623   9.029 -1.1208 -0.0334 -0.6034
   35POPC  H15R 4716   3.562   1.718   9.080  2.8769 -0.3003 -1.8711
   35POPC  H15S 4717   3.475   1.564   9.102 -1.5138  0.4081 -0.5673
   35POPC  C216 4718   3.448   1.659   8.908 -0.0053  0.3442 -0.3092
   35POPC  H16R 4719   3.395   1.567   8.875 -0.1046  0.2725  0.0416
   35POPC  H16S 4720   3.503   1.712   8.828 -1.1819  1.0683 -0.6598
   35POPC  C217 4721   3.331   1.754   8.950 -0.4689 -0.1670 -0.5395
   35POPC  H17R 4722   3.374   1.846   8.993 -0.6509 -0.2252 -0.2314
   35POPC  H17S 4723   3.267   1.710   9.029 -0.1102  0.0584 -0.1230
   35POPC  C218 4724   3.248   1.810   8.837 -0.4366 -0.1004 -0.1733
   35POPC  H18R 4725   3.313   1.858   8.760 -1.2607  0.7890 -0.3372
   35POPC  H18S 4726   3.184   1.888   8.883  2.8441  0.6393  3.6957
   35POPC  H18T 4727   3.183   1.727   8.800 -2.1657  1.0171  0.2313
   35POPC   C33 4728   4.014   1.822   9.936  0.3295  0.2472  0.3630
   35POPC   H3X 4729   4.110   1.767   9.942  0.2674  0.2298  1.3741
   35POPC   H3Y 4730   4.036   1.930   9.952 -1.7499  0.9553 -1.1379
   35POPC   C34 4731   3.951   1.804   9.798  0.5771  0.3244 -0.8742
   35POPC   H4X 4732   3.847   1.844   9.802  0.4859 -0.0465  1.0647
   35POPC   H4Y 4733   3.945   1.694   9.781  2.1086 -0.3667  2.4047
   35POPC   C35 4734   4.036   1.860   9.687 -0.5821  0.1930  0.4885
   35POPC   H5X 4735   4.142   1.831   9.677 -0.7292 -0.1567 -0.1522
   35POPC   H5Y 4736   4.043   1.970   9.704  1.4323  0.5230 -1.9194
   35POPC   C36 4737   3.977   1.830   9.551  0.3654  0.1166  0.0378
   35POPC   H6X 4738   3.879   1.884   9.554  0.2683 -0.0649  2.1040
   35POPC   H6Y 4739   3.953   1.722   9.541 -1.6655  0.5287  0.0251
   35POPC   C37 4740   4.066   1.880   9.440 -0.1606  0.4080  0.0968
   35POPC   H7X 4741   4.161   1.823   9.444  0.2873  1.0687 -0.9198
   35POPC   H7Y 4742   4.101   1.985   9.442  2.6127 -0.4334  0.4029
   35POPC   C38 4743   4.010   1.878   9.301  1.4356 -0.7327  0.1315
   35POPC   H8X 4744   4.033   1.972   9.247  0.0859 -1.0408 -1.0498
   35POPC   H8Y 4745   3.899   1.884   9.307  1.4872  0.0959  0.3755
   35POPC   C39 4746   4.057   1.758   9.218 -0.0404  0.5505  0.4549
   35POPC   H9X 4747   4.018   1.664   9.263 -1.0999  0.3762 -0.7870
   35POPC   H9Y 4748   4.167   1.745   9.228 -0.2861 -0.9311  1.5180
   35POPC  C310 4749   4.024   1.754   9.069  0.4166  0.5854 -0.2305
   35POPC  H10X 4750   4.074   1.845   9.030  1.5534  0.3310  0.5765
   35POPC  H10Y 4751   3.915   1.752   9.051  0.1245  1.1461  1.2695
   35POPC  C311 4752   4.084   1.621   9.012 -0.3345 -0.2781 -0.0201
   35POPC  H11X 4753   4.043   1.535   9.069 -1.4725 -2.3231 -3.6553
   35POPC  H11Y 4754   4.195   1.623   9.026 -0.4477  0.7516  0.8604
   35POPC  C312 4755   4.045   1.597   8.862 -0.0460 -0.6553 -0.2320
   35POPC  H12X 4756   3.938   1.625   8.850  0.5164  0.8570 -2.3699
   35POPC  H12Y 4757   4.055   1.488   8.843  0.7551 -0.4429 -1.1340
   35POPC  C313 4758   4.143   1.675   8.768 -0.1000 -0.3444 -0.4474
   35POPC  H13X 4759   4.248   1.647   8.789  0.5387  2.2903  0.2069
   35POPC  H13Y 4760   4.137   1.783   8.790  1.9559 -0.3969  0.5635
   35POPC  C314 4761   4.129   1.650   8.614 -0.3638 -0.4277 -0.2023
   35POPC  H14X 4762   4.211   1.705   8.564 -0.1803 -0.4983  0.0207
   35POPC  H14Y 4763   4.037   1.706   8.587  0.7104  1.6108  0.1544
   35POPC  C315 4764   4.135   1.504   8.579  0.8052 -0.4458  0.1906
   35POPC  H15X 4765   4.107   1.491   8.472 -2.0164 -0.0870  0.8045
   35POPC  H15Y 4766   4.058   1.447   8.634  0.8062 -0.8571 -0.2305
   35POPC  C316 4767   4.265   1.425   8.603  0.0928  0.1938 -0.2420
   35POPC  H16X 4768   4.314   1.450   8.700 -1.2146 -1.3225  0.8727
   35POPC  H16Y 4769   4.334   1.447   8.519 -0.9372  2.4468 -0.5470
   35POPC  H16Z 4770   4.244   1.316   8.604  2.2159 -0.3000 -1.7876
   36POPC     N 4771   5.990   0.579  11.659 -0.1183  0.2161  0.5561
   36POPC   C12 4772   5.958   0.532  11.522 -0.5726  0.4219  0.0323
   36POPC  H12A 4773   5.893   0.602  11.473 -1.2887 -1.4581 -1.8808
   36POPC  H12B 4774   5.913   0.434  11.527  2.7249 -1.1934  1.9517
   36POPC   C13 4775   6.056   0.475  11.740 -0.2126  0.0375  0.4472
   36POPC  H13A 4776   6.153   0.447  11.701 -0.9939 -2.2910  0.0264
   36POPC  H13B 4777   6.064   0.506  11.844 -2.5227 -1.5345  1.1658
   36POPC  H13C 4778   6.003   0.381  11.747 -1.9652  0.9002 -0.6296
   36POPC   C14 4779   6.080   0.697  11.663  0.0778 -0.7604 -0.0232
   36POPC  H14A 4780   6.184   0.669  11.656  0.3099 -0.2968  1.1955
   36POPC  H14B 4781   6.053   0.758  11.578 -0.0189  0.6558  0.9703
   36POPC  H14C 4782   6.073   0.760  11.751  1.2966  0.1808 -0.5774
   36POPC   C15 4783   5.871   0.618  11.736  0.2719  0.0392  0.6693
   36POPC  H15A 4784   5.801   0.536  11.749  1.4307 -1.2157 -0.6000
   36POPC  H15B 4785   5.824   0.703  11.690  1.5128 -0.6084 -2.0177
   36POPC  H15C 4786   5.898   0.633  11.840  2.9419 -2.6399  0.5323
   36POPC   C11 4787   6.079   0.517  11.424  0.0870  0.0143 -0.2166
   36POPC  H11A 4788   6.057   0.441  11.346 -3.6025 -0.4169  1.0402
   36POPC  H11B 4789   6.168   0.481  11.479  0.2869  2.2987  1.0879
   36POPC     P 4790   6.065   0.683  11.227 -0.0438 -0.2262  0.1842
   36POPC   O13 4791   6.176   0.696  11.130  0.1714  0.1426  0.0421
   36POPC   O14 4792   5.983   0.804  11.248 -0.0447 -0.4884 -0.0041
   36POPC   O12 4793   6.117   0.637  11.373  0.2397 -0.0956  0.5063
   36POPC   O11 4794   5.978   0.563  11.180 -0.1937 -0.0724  0.5882
   36POPC    C1 4795   6.002   0.476  11.075  0.2472 -0.1353 -0.4558
   36POPC    HA 4796   5.935   0.388  11.083 -0.2217  0.1265 -1.3677
   36POPC    HB 4797   6.110   0.452  11.062  0.5394  0.4180  0.8101
   36POPC    C2 4798   5.944   0.529  10.934  0.3492 -0.1709 -0.1431
   36POPC    HS 4799   6.007   0.615  10.903 -1.5374  1.4717  0.3503
   36POPC   O21 4800   5.804   0.558  10.947  0.1405 -0.0293  0.5286
   36POPC   C21 4801   5.755   0.663  10.867  0.0722  0.1205  0.2275
   36POPC   O22 4802   5.825   0.738  10.799 -0.1745 -0.4235  0.2201
   36POPC   C22 4803   5.604   0.680  10.907  0.2744 -0.4249 -0.1419
   36POPC   H2R 4804   5.617   0.697  11.016  0.7983 -0.1016 -0.2513
   36POPC   H2S 4805   5.552   0.582  10.894 -0.5143 -0.0892  0.3970
   36POPC    C3 4806   5.983   0.426  10.827 -0.0216 -0.2805 -0.3919
   36POPC    HX 4807   5.950   0.324  10.858 -0.0456  0.0579  0.7454
   36POPC    HY 4808   6.094   0.437  10.823  0.2306 -0.7885  2.4904
   36POPC   O31 4809   5.919   0.473  10.700 -0.0404  0.1156  0.1736
   36POPC   C31 4810   5.823   0.402  10.646 -0.0389  0.0156  0.0329
   36POPC   O32 4811   5.759   0.314  10.703 -0.0072 -0.2943 -0.3067
   36POPC   C32 4812   5.795   0.458  10.507 -0.2696  0.1603 -0.2814
   36POPC   H2X 4813   5.878   0.524  10.475  1.3051 -1.8292 -0.4827
   36POPC   H2Y 4814   5.696   0.508  10.511  0.7390  2.1747  2.3588
   36POPC   C23 4815   5.549   0.801  10.827 -0.3995 -0.2169  0.6427
   36POPC   H3R 4816   5.529   0.783  10.719 -1.1944  0.6266  0.6376
   36POPC   H3S 4817   5.605   0.895  10.847  1.0576 -1.4895  3.1032
   36POPC   C24 4818   5.409   0.847  10.881  0.2309  0.1213  0.0841
   36POPC   H4R 4819   5.409   0.871  10.989  0.9018  0.6936 -0.0308
   36POPC   H4S 4820   5.337   0.764  10.873  0.2445  0.2340 -1.6255
   36POPC   C25 4821   5.340   0.956  10.787 -0.2096 -0.4648 -0.1337
   36POPC   H5R 4822   5.398   1.051  10.787  0.8731 -1.0838  1.3840
   36POPC   H5S 4823   5.243   0.988  10.831  0.0761  3.3731 -1.8573
   36POPC   C26 4824   5.329   0.910  10.638  0.2365 -0.4346  0.4049
   36POPC   H6R 4825   5.295   0.804  10.644 -0.0134 -0.3805  0.0226
   36POPC   H6S 4826   5.426   0.905  10.584  0.2947  2.4859  0.1223
   36POPC   C27 4827   5.229   0.981  10.543  0.1968 -0.7167  0.5561
   36POPC   H7R 4828   5.132   0.960  10.593  0.6618  1.0702  2.3670
   36POPC   H7S 4829   5.215   0.934  10.443 -1.7833 -1.3716  1.0918
   36POPC   C28 4830   5.254   1.136  10.521  0.1198  0.1674  0.2087
   36POPC   H8R 4831   5.348   1.150  10.464  0.6643 -0.4891  0.9343
   36POPC   H8S 4832   5.263   1.193  10.616  1.4007  2.1072 -1.0273
   36POPC   C29 4833   5.136   1.190  10.446  0.3761 -0.0792 -0.3999
   36POPC   H91 4834   5.063   1.226  10.520  0.9457 -0.3898  0.3381
   36POPC  C210 4835   5.102   1.180  10.316 -0.3449 -0.7444 -0.3492
   36POPC  H101 4836   5.004   1.225  10.294 -0.6174 -0.5692  1.1213
   36POPC  C211 4837   5.182   1.129  10.194 -0.4282 -0.6992  0.0117
   36POPC  H11R 4838   5.286   1.107  10.229 -0.1372  1.7026  0.8584
   36POPC  H11S 4839   5.181   1.202  10.111 -3.0349 -1.4262 -0.6850
   36POPC  C212 4840   5.104   1.000  10.140  0.2072  0.2692  0.8753
   36POPC  H12R 4841   5.005   1.029  10.100 -0.5180 -2.9212  0.0216
   36POPC  H12S 4842   5.096   0.925  10.222 -0.8468  0.6006  1.0811
   36POPC  C213 4843   5.183   0.930  10.024  0.3356 -0.5743 -0.3344
   36POPC  H13R 4844   5.142   0.828  10.017 -1.6567  0.0342  1.3348
   36POPC  H13S 4845   5.289   0.926  10.058  0.1265 -0.5508  0.3348
   36POPC  C214 4846   5.182   1.005   9.889 -0.2890  1.1464  0.5375
   36POPC  H14R 4847   5.232   0.948   9.807 -0.0556  2.2563 -0.1253
   36POPC  H14S 4848   5.223   1.107   9.908  1.1350  0.5679  0.7077
   36POPC  C215 4849   5.042   1.022   9.833  0.1393 -0.1969  0.1241
   36POPC  H15R 4850   4.983   1.078   9.908  0.3559  0.4138 -0.1520
   36POPC  H15S 4851   5.005   0.917   9.824  0.0651 -0.1214 -0.5156
   36POPC  C216 4852   5.029   1.102   9.704 -0.3556 -0.0870 -0.3893
   36POPC  H16R 4853   5.098   1.064   9.625  0.0617 -2.1332  0.8946
   36POPC  H16S 4854   5.058   1.206   9.730  3.3712 -1.0284 -0.2736
   36POPC  C217 4855   4.883   1.103   9.656 -0.1471  0.2841  0.1978
   36POPC  H17R 4856   4.822   1.165   9.725  0.8961  2.9994 -1.1728
   36POPC  H17S 4857   4.846   0.998   9.657  3.7322 -1.3384 -2.3340
   36POPC  C218 4858   4.869   1.148   9.509  0.2216 -0.0718 -0.6126
   36POPC  H18R 4859   4.763   1.152   9.474 -1.6898 -0.2044  4.3575
   36POPC  H18S 4860   4.943   1.100   9.442  0.4251  0.7972 -1.0189
   36POPC  H18T 4861   4.908   1.252   9.502  0.8880 -0.3304 -0.7255
   36POPC   C33 4862   5.786   0.343  10.409  0.1957 -1.0561 -0.1134
   36POPC   H3X 4863   5.702   0.281  10.447  0.5640 -0.6780  1.3884
   36POPC   H3Y 4864   5.879   0.283  10.413 -0.5233 -2.1239  1.3306
   36POPC   C34 4865   5.752   0.404  10.273  0.2355  0.4097  0.0786
   36POPC   H4X 4866   5.706   0.505  10.283 -0.5589 -0.0049  0.6367
   36POPC   H4Y 4867   5.666   0.351  10.229 -1.8494  2.7369  1.1068
   36POPC   C35 4868   5.876   0.403  10.177  0.5196  0.1532 -0.5571
   36POPC   H5X 4869   5.908   0.298  10.162 -0.8235 -0.4320  0.3876
   36POPC   H5Y 4870   5.966   0.448  10.225  1.8727 -1.1845 -1.7614
   36POPC   C36 4871   5.834   0.451  10.036 -0.0924 -0.4022  0.3228
   36POPC   H6X 4872   5.778   0.546  10.052 -2.7487 -1.6354 -0.8940
   36POPC   H6Y 4873   5.758   0.386   9.987  1.3443  0.0421 -2.7336
   36POPC   C37 4874   5.953   0.465   9.939 -0.3494  0.5838  0.0338
   36POPC   H7X 4875   5.966   0.366   9.891 -0.7104  0.6833 -0.2735
   36POPC   H7Y 4876   6.033   0.494  10.010  0.6210  0.7795 -1.1237
   36POPC   C38 4877   5.943   0.577   9.838 -0.0805  0.0885 -0.1008
   36POPC   H8X 4878   6.041   0.566   9.787  0.3833 -1.3306  1.0474
   36POPC   H8Y 4879   5.937   0.680   9.881  0.8181 -0.6141  1.7953
   36POPC   C39 4880   5.826   0.568   9.740  0.0079 -0.1010  0.2728
   36POPC   H9X 4881   5.727   0.584   9.789 -0.7605  1.9758 -1.7319
   36POPC   H9Y 4882   5.823   0.465   9.700 -1.3048 -0.6783  1.7255
   36POPC  C310 4883   5.829   0.666   9.626 -0.5186 -0.1785  0.6335
   36POPC  H10X 4884   5.933   0.684   9.590 -1.0624  1.9931 -0.0570
   36POPC  H10Y 4885   5.787   0.765   9.657 -1.5316 -0.6187  0.6979
   36POPC  C311 4886   5.757   0.609   9.503 -0.2075  0.4468  0.0430
   36POPC  H11X 4887   5.653   0.586   9.533 -0.4471  0.1707 -0.9400
   36POPC  H11Y 4888   5.809   0.514   9.477 -0.6610  0.1634  0.1709
   36POPC  C312 4889   5.748   0.710   9.386  0.2342  0.2357 -0.7815
   36POPC  H12X 4890   5.851   0.733   9.350  1.4063 -1.0195  1.5418
   36POPC  H12Y 4891   5.702   0.806   9.416 -0.2142 -0.1810 -0.1210
   36POPC  C313 4892   5.643   0.670   9.276  0.4447  0.3199 -0.1646
   36POPC  H13X 4893   5.614   0.766   9.228  2.6054  2.2076  2.0214
   36POPC  H13Y 4894   5.545   0.644   9.321  0.0898 -0.9113 -1.5679
   36POPC  C314 4895   5.699   0.567   9.181  0.8877  0.3283 -0.3527
   36POPC  H14X 4896   5.698   0.467   9.227  1.7061  0.3209 -0.3383
   36POPC  H14Y 4897   5.804   0.598   9.163  1.7438 -2.2116 -0.0627
   36POPC  C315 4898   5.621   0.564   9.050  0.2808 -0.1485  0.4368
   36POPC  H15X 4899   5.618   0.664   9.002 -1.1167 -1.1209 -1.5967
   36POPC  H15Y 4900   5.513   0.544   9.063  0.0575 -0.1797 -1.3342
   36POPC  C316 4901   5.673   0.455   8.953  0.5576 -0.7567 -0.2635
   36POPC  H16X 4902   5.783   0.468   8.941  0.9415 -1.7107  1.8464
   36POPC  H16Y 4903   5.616   0.457   8.857  0.5988 -1.3400 -0.3038
   36POPC  H16Z 4904   5.657   0.353   8.994 -2.7175  0.4662  1.8374
   37POPC     N 4905   3.815   1.072   6.431  0.5636  0.1165  0.1535
   37POPC   C12 4906   3.762   1.036   6.574  0.3534 -0.2363 -0.0310
   37POPC  H12A 4907   3.797   1.116   6.637  2.8162 -1.1884 -0.0707
   37POPC  H12B 4908   3.814   0.952   6.619  0.4247 -0.5034 -0.6080
   37POPC   C13 4909   3.970   1.096   6.431  0.1715 -0.2380 -0.2892
   37POPC  H13A 4910   4.038   1.025   6.475  0.7551  0.7184  0.3855
   37POPC  H13B 4911   4.001   1.123   6.331  1.9406  3.2133  1.0093
   37POPC  H13C 4912   3.985   1.189   6.484 -1.1302  0.4557 -1.0927
   37POPC   C14 4913   3.782   0.963   6.332  0.7604  0.4628 -0.4421
   37POPC  H14A 4914   3.810   0.983   6.230 -1.0633 -1.2424 -1.3279
   37POPC  H14B 4915   3.820   0.870   6.371 -1.0390 -0.6017 -1.1333
   37POPC  H14C 4916   3.677   0.940   6.339  1.0150 -0.2696  4.3708
   37POPC   C15 4917   3.744   1.197   6.378 -0.6974 -0.2298 -0.1594
   37POPC  H15A 4918   3.742   1.270   6.457  1.0781 -1.4933  1.1318
   37POPC  H15B 4919   3.640   1.176   6.358 -0.4257 -0.5167 -1.3706
   37POPC  H15C 4920   3.789   1.234   6.287 -1.5312  0.7408 -0.1944
   37POPC   C11 4921   3.607   1.018   6.582  0.6979  0.6175  0.0535
   37POPC  H11A 4922   3.579   0.993   6.686 -0.3079  0.4177 -0.2509
   37POPC  H11B 4923   3.562   0.938   6.519 -1.2467  0.8543  1.0599
   37POPC     P 4924   3.381   1.164   6.539 -0.5497 -0.0725 -0.3683
   37POPC   O13 4925   3.312   1.035   6.549  0.1428 -0.4056  0.4146
   37POPC   O14 4926   3.349   1.241   6.416 -0.1560 -0.5029  0.3711
   37POPC   O12 4927   3.546   1.137   6.546  0.3535 -0.9518 -0.2004
   37POPC   O11 4928   3.352   1.252   6.668  0.9038  0.0032  0.6274
   37POPC    C1 4929   3.435   1.358   6.703 -0.6494  0.2486 -0.1637
   37POPC    HA 4930   3.375   1.440   6.748 -0.1646 -0.4791  1.9047
   37POPC    HB 4931   3.496   1.396   6.618  0.6302  0.9769  1.0486
   37POPC    C2 4932   3.542   1.322   6.812  0.1423 -0.4561 -0.5858
   37POPC    HS 4933   3.607   1.243   6.768  2.0691  2.2637 -2.9983
   37POPC   O21 4934   3.464   1.280   6.930  0.0592 -0.2533 -0.2994
   37POPC   C21 4935   3.498   1.168   6.993  0.4203  0.1998 -0.0247
   37POPC   O22 4936   3.584   1.089   6.956  0.2445 -0.0758  0.6158
   37POPC   C22 4937   3.421   1.150   7.123 -0.9890  0.3623 -0.0173
   37POPC   H2R 4938   3.347   1.068   7.107 -0.1447 -0.3273 -0.4899
   37POPC   H2S 4939   3.385   1.248   7.160  1.4586  0.9838  0.8903
   37POPC    C3 4940   3.647   1.425   6.846 -0.2505 -0.1774  0.1660
   37POPC    HX 4941   3.600   1.504   6.910  0.0295  1.3882 -1.4807
   37POPC    HY 4942   3.679   1.481   6.755 -1.3748  0.9007  0.4063
   37POPC   O31 4943   3.761   1.376   6.919  0.2537 -0.6445  0.0593
   37POPC   C31 4944   3.852   1.297   6.860  0.2046 -0.3284  0.7335
   37POPC   O32 4945   3.861   1.285   6.740  0.4036  0.6058  0.3713
   37POPC   C32 4946   3.939   1.232   6.968  0.2028 -0.4228 -1.1311
   37POPC   H2X 4947   4.034   1.184   6.935  1.7323  1.3439  0.5055
   37POPC   H2Y 4948   3.877   1.144   6.998 -1.2160  0.1045 -2.3410
   37POPC   C23 4949   3.505   1.095   7.243 -0.1456 -0.8348 -0.4790
   37POPC   H3R 4950   3.554   1.190   7.274 -2.1659  0.4965 -1.1369
   37POPC   H3S 4951   3.573   1.017   7.202  0.9274  0.2589 -0.8401
   37POPC   C24 4952   3.413   1.042   7.345 -0.5968  0.3589  0.1337
   37POPC   H4R 4953   3.353   0.962   7.297  2.2491 -1.2795 -0.9397
   37POPC   H4S 4954   3.344   1.128   7.362 -1.5959 -0.6899  1.5586
   37POPC   C25 4955   3.478   1.014   7.486 -0.0004 -0.2236  0.7639
   37POPC   H5R 4956   3.496   1.108   7.541  2.0866 -0.0179 -0.1598
   37POPC   H5S 4957   3.573   0.956   7.481  0.4011  0.3798  1.2605
   37POPC   C26 4958   3.394   0.923   7.571 -0.1765 -0.5957  0.3113
   37POPC   H6R 4959   3.385   0.828   7.514 -1.1349  0.7715 -1.9863
   37POPC   H6S 4960   3.290   0.959   7.585 -0.8277 -2.9709  2.1136
   37POPC   C27 4961   3.443   0.911   7.711 -0.9846 -0.1869 -0.1573
   37POPC   H7R 4962   3.366   0.854   7.768  1.3413 -2.0681  1.3327
   37POPC   H7S 4963   3.452   1.013   7.754 -0.1874 -0.7465  1.0913
   37POPC   C28 4964   3.583   0.845   7.740  0.7380  0.5292  0.2436
   37POPC   H8R 4965   3.603   0.866   7.847 -1.6258  2.3559  0.4022
   37POPC   H8S 4966   3.660   0.902   7.683  0.3576  0.4189 -0.3960
   37POPC   C29 4967   3.595   0.698   7.708 -0.0266 -0.2940  0.6851
   37POPC   H91 4968   3.596   0.661   7.605 -0.9071 -0.7807  0.8446
   37POPC  C210 4969   3.633   0.607   7.800 -0.0082  0.0084 -0.2632
   37POPC  H101 4970   3.618   0.500   7.778 -1.9498 -0.1189  1.3533
   37POPC  C211 4971   3.664   0.633   7.949 -0.7931  0.5722 -0.0888
   37POPC  H11R 4972   3.707   0.734   7.964 -1.0121  0.7361 -0.5430
   37POPC  H11S 4973   3.733   0.555   7.989 -2.1179 -0.6035  0.0100
   37POPC  C212 4974   3.532   0.631   8.031 -0.7173 -0.2096  0.6051
   37POPC  H12R 4975   3.499   0.525   8.041  1.6176 -0.8296  2.6495
   37POPC  H12S 4976   3.455   0.690   7.978  1.7846  2.5396 -0.1923
   37POPC  C213 4977   3.545   0.698   8.172 -0.6891  0.3546  0.5624
   37POPC  H13R 4978   3.535   0.808   8.155  0.0548  0.2180 -0.8993
   37POPC  H13S 4979   3.647   0.676   8.211 -1.0700 -1.9328  0.4067
   37POPC  C214 4980   3.441   0.633   8.269  0.1120 -0.0442 -0.0890
   37POPC  H14R 4981   3.485   0.533   8.291  0.9695  0.4042  0.3167
   37POPC  H14S 4982   3.343   0.623   8.219 -0.4449  2.7574  0.2712
   37POPC  C215 4983   3.411   0.711   8.401  0.0106 -0.4937  0.4645
   37POPC  H15R 4984   3.340   0.652   8.462 -0.8247  1.2072  1.1919
   37POPC  H15S 4985   3.361   0.806   8.372  2.3904  0.1392 -1.9579
   37POPC  C216 4986   3.527   0.742   8.494  0.2645  0.4314 -0.2241
   37POPC  H16R 4987   3.620   0.762   8.437  1.4901 -2.0957  0.7804
   37POPC  H16S 4988   3.549   0.651   8.552  0.7632 -0.3485 -1.5934
   37POPC  C217 4989   3.502   0.854   8.594  0.5955 -0.1224  0.2569
   37POPC  H17R 4990   3.458   0.933   8.528  0.2761 -0.4066  0.1230
   37POPC  H17S 4991   3.597   0.893   8.636  0.2864 -0.8962  1.7277
   37POPC  C218 4992   3.398   0.810   8.704  0.5651  0.1407 -0.0076
   37POPC  H18R 4993   3.408   0.872   8.796 -1.2878 -1.8141  1.6293
   37POPC  H18S 4994   3.421   0.704   8.727  0.6092 -0.0725 -0.9921
   37POPC  H18T 4995   3.293   0.808   8.666  0.8597 -0.7947 -0.7981
   37POPC   C33 4996   3.978   1.332   7.079 -0.2681 -0.2053 -0.4210
   37POPC   H3X 4997   3.910   1.311   7.164  2.0425 -3.2440  0.8321
   37POPC   H3Y 4998   3.990   1.441   7.059 -0.5073  1.1086  4.9696
   37POPC   C34 4999   4.112   1.288   7.139  0.4647 -0.9248 -0.5358
   37POPC   H4X 5000   4.201   1.327   7.084  0.7915 -0.2029  0.4690
   37POPC   H4Y 5001   4.126   1.178   7.147  0.8892 -0.8903 -0.7423
   37POPC   C35 5002   4.127   1.351   7.288 -0.2387  0.4084  0.4451
   37POPC   H5X 5003   4.071   1.447   7.293 -0.3340  0.4058 -0.4177
   37POPC   H5Y 5004   4.236   1.370   7.296 -0.1923  0.3782 -0.0874
   37POPC   C36 5005   4.093   1.258   7.400  0.2776 -0.0211 -0.0207
   37POPC   H6X 5006   4.161   1.171   7.413  0.6124  0.1753 -0.4796
   37POPC   H6Y 5007   3.992   1.213   7.381 -1.1307  2.1173  1.8906
   37POPC   C37 5008   4.100   1.328   7.547 -0.6188 -0.0518 -0.6676
   37POPC   H7X 5009   4.011   1.395   7.550 -1.6048 -1.3361 -0.3192
   37POPC   H7Y 5010   4.191   1.392   7.547 -0.7072  0.0812 -0.1738
   37POPC   C38 5011   4.112   1.232   7.667 -0.9152 -0.6254  0.1767
   37POPC   H8X 5012   4.114   1.293   7.759 -2.3881  0.6985 -0.6078
   37POPC   H8Y 5013   4.208   1.176   7.658 -1.3145 -1.6876  1.9897
   37POPC   C39 5014   3.996   1.135   7.680  0.2814  0.1622  0.0023
   37POPC   H9X 5015   3.990   1.069   7.591  4.0369 -1.9985  1.1194
   37POPC   H9Y 5016   3.904   1.197   7.686 -0.7130 -1.0482 -1.9195
   37POPC  C310 5017   4.011   1.045   7.808 -0.4073 -0.1407  0.0265
   37POPC  H10X 5018   3.977   1.099   7.898  3.3240  0.8755  0.9910
   37POPC  H10Y 5019   4.121   1.031   7.816 -0.1744  0.8224 -1.2224
   37POPC  C311 5020   3.947   0.910   7.805  0.5569 -0.3343 -0.6676
   37POPC  H11X 5021   3.998   0.856   7.723  0.2987 -0.1482 -0.9557
   37POPC  H11Y 5022   3.836   0.911   7.798  0.3675  2.5246  0.9779
   37POPC  C312 5023   3.984   0.834   7.936  0.0193 -0.2597  0.3298
   37POPC  H12X 5024   4.094   0.821   7.930 -0.1645 -1.4972 -0.8321
   37POPC  H12Y 5025   3.932   0.736   7.931 -1.3565  0.1897  3.5585
   37POPC  C313 5026   3.927   0.896   8.065  0.3694  0.6277 -0.5478
   37POPC  H13X 5027   3.816   0.901   8.058 -0.0214 -0.0001  3.0094
   37POPC  H13Y 5028   3.977   0.992   8.087  0.4947  0.2332  1.0774
   37POPC  C314 5029   3.951   0.802   8.184 -0.5609 -0.3553  0.4796
   37POPC  H14X 5030   4.059   0.787   8.204 -0.9821 -3.2674  0.9656
   37POPC  H14Y 5031   3.913   0.700   8.160  1.4398 -0.6981 -1.5094
   37POPC  C315 5032   3.876   0.849   8.309  0.5310 -0.5028  0.0170
   37POPC  H15X 5033   3.767   0.852   8.289  0.5155  1.2270  0.2615
   37POPC  H15Y 5034   3.901   0.954   8.336 -2.5050  0.6080 -1.0769
   37POPC  C316 5035   3.895   0.754   8.426 -0.1924  0.1652  1.0019
   37POPC  H16X 5036   3.849   0.657   8.397 -1.5045  1.4483 -1.4887
   37POPC  H16Y 5037   3.848   0.783   8.522 -0.6118  2.1029  0.2443
   37POPC  H16Z 5038   4.004   0.739   8.439 -0.2619 -1.1307  0.3113
   38POPC     N 5039   2.451   1.557   6.129 -0.2145 -0.1852 -0.3589
   38POPC   C12 5040   2.477   1.628   6.264  0.3362 -0.1001 -0.6118
   38POPC  H12A 5041   2.512   1.727   6.238  0.3858 -0.5416 -2.3745
   38POPC  H12B 5042   2.553   1.579   6.324 -0.7714 -0.1640  0.7972
   38POPC   C13 5043   2.574   1.534   6.059 -0.1683  0.2687  0.4557
   38POPC  H13A 5044   2.638   1.462   6.108  2.1624  1.4684 -0.6696
   38POPC  H13B 5045   2.563   1.507   5.956 -2.4209  1.4777  0.3078
   38POPC  H13C 5046   2.639   1.621   6.062 -0.0938  0.2808 -1.1085
   38POPC   C14 5047   2.385   1.420   6.149 -0.2007 -0.0532 -0.7906
   38POPC  H14A 5048   2.352   1.375   6.057  0.4274  0.9049 -1.5047
   38POPC  H14B 5049   2.447   1.353   6.208  0.6984  0.7078 -0.8514
   38POPC  H14C 5050   2.293   1.437   6.203 -1.4540 -2.1872 -2.1236
   38POPC   C15 5051   2.366   1.634   6.031  0.1260 -0.3441  0.0659
   38POPC  H15A 5052   2.364   1.575   5.941  2.0898 -0.7963  0.2716
   38POPC  H15B 5053   2.413   1.723   5.992  1.0887  0.0158  1.9155
   38POPC  H15C 5054   2.274   1.664   6.080  1.5283  2.3588  1.2257
   38POPC   C11 5055   2.356   1.638   6.361 -0.0303 -0.5123  0.2966
   38POPC  H11A 5056   2.403   1.675   6.455 -0.2717  2.9807 -0.8230
   38POPC  H11B 5057   2.301   1.543   6.376 -0.6553 -0.1788  0.1302
   38POPC     P 5058   2.290   1.883   6.314  0.0891  0.2239 -0.5950
   38POPC   O13 5059   2.189   1.961   6.239  0.0587 -0.0258 -0.5303
   38POPC   O14 5060   2.430   1.913   6.289 -0.5172  0.2688 -0.0607
   38POPC   O12 5061   2.257   1.730   6.311  0.4854 -0.1649 -0.9133
   38POPC   O11 5062   2.260   1.908   6.465 -0.0549 -0.3352  0.2157
   38POPC    C1 5063   2.128   1.896   6.519  0.8258 -0.3772  0.0310
   38POPC    HA 5064   2.095   1.790   6.506 -0.4333  0.2920 -3.1612
   38POPC    HB 5065   2.054   1.965   6.473  1.6803  0.9014  0.5172
   38POPC    C2 5066   2.125   1.943   6.667 -0.0925 -0.1944 -0.1772
   38POPC    HS 5067   2.017   1.952   6.694 -0.2289  0.6117 -0.9250
   38POPC   O21 5068   2.184   2.074   6.690  0.2575  0.4596  0.0185
   38POPC   C21 5069   2.101   2.177   6.661 -0.1867 -0.1878  0.0966
   38POPC   O22 5070   1.984   2.168   6.618 -0.4951  0.1600  0.2127
   38POPC   C22 5071   2.178   2.311   6.686 -0.1550 -0.4153  0.4477
   38POPC   H2R 5072   2.168   2.367   6.591  1.1514 -3.1025 -1.4366
   38POPC   H2S 5073   2.286   2.304   6.713 -0.8341  2.0806  4.5950
   38POPC    C3 5074   2.198   1.836   6.753  0.0305 -0.2696 -0.3092
   38POPC    HX 5075   2.302   1.831   6.716  0.2680 -0.2089  0.3381
   38POPC    HY 5076   2.154   1.736   6.733 -0.4649  0.0933 -1.0861
   38POPC   O31 5077   2.187   1.871   6.889 -0.3113 -0.0017 -0.4062
   38POPC   C31 5078   2.290   1.925   6.939 -0.7901 -0.7496 -0.2400
   38POPC   O32 5079   2.399   1.941   6.887  0.1458  0.5036 -0.7956
   38POPC   C32 5080   2.261   1.981   7.086  0.3803  0.2975  0.4020
   38POPC   H2X 5081   2.160   2.027   7.090  1.2413  2.2663  0.8404
   38POPC   H2Y 5082   2.331   2.059   7.123  0.7837 -0.4732  1.3414
   38POPC   C23 5083   2.110   2.386   6.801  0.2748  0.0443 -0.9720
   38POPC   H3R 5084   2.001   2.400   6.783  0.2628  0.2856 -0.7186
   38POPC   H3S 5085   2.158   2.484   6.823 -0.2919  0.0161  0.5082
   38POPC   C24 5086   2.118   2.294   6.927  0.1404 -0.6100 -0.3604
   38POPC   H4R 5087   2.216   2.243   6.927 -0.2204 -1.5066 -3.0189
   38POPC   H4S 5088   2.042   2.213   6.918 -0.0951 -0.3521 -0.7687
   38POPC   C25 5089   2.094   2.366   7.057 -0.0847  0.2937 -0.0267
   38POPC   H5R 5090   2.006   2.433   7.046 -0.0118  0.2212 -1.1587
   38POPC   H5S 5091   2.184   2.428   7.077  2.4423 -2.3784 -2.1629
   38POPC   C26 5092   2.067   2.273   7.178 -0.1316 -0.8409  1.0049
   38POPC   H6R 5093   2.164   2.230   7.212  0.0166 -0.8260  0.6104
   38POPC   H6S 5094   1.996   2.194   7.143 -1.7899  0.0109  2.2984
   38POPC   C27 5095   1.998   2.350   7.285 -0.1498 -0.6098  0.0010
   38POPC   H7R 5096   1.892   2.367   7.257  0.0730 -1.6250 -1.5966
   38POPC   H7S 5097   2.044   2.448   7.310  0.5808 -1.2822  1.4151
   38POPC   C28 5098   1.991   2.274   7.419  0.0211 -0.1419  0.4547
   38POPC   H8R 5099   2.098   2.258   7.441  0.0394 -1.7733 -0.6474
   38POPC   H8S 5100   1.950   2.172   7.401  0.7652 -0.2486 -0.7852
   38POPC   C29 5101   1.907   2.357   7.515 -0.5432 -0.1198 -0.1332
   38POPC   H91 5102   1.800   2.355   7.489 -0.6903 -1.4764  0.5063
   38POPC  C210 5103   1.951   2.426   7.619 -0.1566  0.4776 -0.2729
   38POPC  H101 5104   1.879   2.500   7.656 -0.8908 -1.5701  2.8462
   38POPC  C211 5105   2.094   2.425   7.667 -0.4801 -0.0851 -0.2085
   38POPC  H11R 5106   2.159   2.498   7.614 -0.7064 -0.9431 -1.7245
   38POPC  H11S 5107   2.137   2.326   7.641 -0.8595 -0.2600 -0.1826
   38POPC  C212 5108   2.105   2.425   7.820  0.6413 -0.3945  0.3552
   38POPC  H12R 5109   2.213   2.427   7.846  0.3240  3.5611  2.0418
   38POPC  H12S 5110   2.058   2.330   7.853  1.3703 -0.4579  1.2643
   38POPC  C213 5111   2.030   2.539   7.883 -0.3939  1.0384  0.2558
   38POPC  H13R 5112   2.036   2.532   7.994 -1.2685  0.7547  0.2995
   38POPC  H13S 5113   1.921   2.526   7.862 -0.1371 -0.4248 -0.3206
   38POPC  C214 5114   2.064   2.680   7.834  0.2517  0.2167 -0.0981
   38POPC  H14R 5115   2.010   2.691   7.738 -3.7095 -1.4801  1.7208
   38POPC  H14S 5116   2.172   2.685   7.808  0.4550 -1.4363  0.3556
   38POPC  C215 5117   2.006   2.785   7.927  0.0289 -0.2841  0.1240
   38POPC  H15R 5118   2.058   2.772   8.024  1.0165  1.6530 -0.0961
   38POPC  H15S 5119   1.896   2.769   7.934  0.0864 -0.7303  0.0082
   38POPC  C216 5120   2.043   2.926   7.869 -0.6563  0.5643  0.3957
   38POPC  H16R 5121   2.046   2.934   7.758  1.1055 -1.1669  0.2566
   38POPC  H16S 5122   2.145   2.954   7.902 -0.5827  1.1914 -0.3418
   38POPC  C217 5123   1.941   3.028   7.915  0.2083 -0.8903 -0.3355
   38POPC  H17R 5124   1.933   3.039   8.025  0.4056  0.6584 -0.4644
   38POPC  H17S 5125   1.839   2.989   7.896  0.4240 -2.1579  0.9791
   38POPC  C218 5126   1.967   3.170   7.860  0.2326  0.3400 -0.7883
   38POPC  H18R 5127   1.904   3.243   7.915 -2.2146 -1.3199 -1.2421
   38POPC  H18S 5128   1.942   3.167   7.752  1.3879 -1.0581 -1.0449
   38POPC  H18T 5129   2.074   3.198   7.871  0.0197  0.3814  1.8028
   38POPC   C33 5130   2.274   1.861   7.186  0.4812  0.7272 -0.0532
   38POPC   H3X 5131   2.378   1.820   7.187  0.1720 -0.0975 -0.9588
   38POPC   H3Y 5132   2.201   1.783   7.157  0.8829  0.2872  0.1023
   38POPC   C34 5133   2.216   1.894   7.323 -0.1883 -0.0401  0.4021
   38POPC   H4X 5134   2.210   1.799   7.381  0.7095 -0.0164  0.5409
   38POPC   H4Y 5135   2.109   1.925   7.327 -0.5691 -1.2548  0.2001
   38POPC   C35 5136   2.298   2.004   7.405  0.7928  0.3516 -0.1345
   38POPC   H5X 5137   2.273   2.107   7.372  1.0078  0.7158  0.7921
   38POPC   H5Y 5138   2.401   1.963   7.395 -0.0605 -1.3728 -2.5519
   38POPC   C36 5139   2.272   2.006   7.553 -0.3407  0.6115 -0.1942
   38POPC   H6X 5140   2.314   1.910   7.589  0.4919  1.1401  0.2607
   38POPC   H6Y 5141   2.162   2.011   7.566 -0.2305  1.1382  0.5913
   38POPC   C37 5142   2.330   2.130   7.619 -0.2949 -0.1085  0.0678
   38POPC   H7X 5143   2.303   2.218   7.556 -1.7076 -1.5601 -1.4517
   38POPC   H7Y 5144   2.438   2.123   7.597 -0.5921  1.5512 -2.4003
   38POPC   C38 5145   2.288   2.155   7.767  0.5807 -0.5911 -0.4059
   38POPC   H8X 5146   2.178   2.140   7.770  0.1953  1.7599 -0.7530
   38POPC   H8Y 5147   2.324   2.257   7.793  1.4880 -1.2328  1.0164
   38POPC   C39 5148   2.364   2.056   7.864 -0.2523 -0.3996  0.0228
   38POPC   H9X 5149   2.405   1.978   7.796 -0.0177 -0.0208 -0.2727
   38POPC   H9Y 5150   2.283   2.012   7.927 -0.0707 -2.5638 -1.1692
   38POPC  C310 5151   2.490   2.117   7.938  0.1625  1.2459  0.0020
   38POPC  H10X 5152   2.556   2.198   7.898  0.9607  0.4818 -0.2476
   38POPC  H10Y 5153   2.561   2.034   7.955 -0.3171  1.0518  1.0966
   38POPC  C311 5154   2.441   2.175   8.074 -0.5552  0.8191  0.0774
   38POPC  H11X 5155   2.389   2.091   8.126  1.0970  0.3591  1.0589
   38POPC  H11Y 5156   2.378   2.264   8.057 -0.9626  0.5708  0.2603
   38POPC  C312 5157   2.558   2.223   8.167  0.0990  0.4486  0.0181
   38POPC  H12X 5158   2.611   2.297   8.104  0.2247 -0.4952 -1.0187
   38POPC  H12Y 5159   2.620   2.131   8.174  0.5857  0.7358 -0.4974
   38POPC  C313 5160   2.514   2.289   8.297 -0.4235 -0.3420  0.1204
   38POPC  H13X 5161   2.438   2.222   8.342 -1.4803  1.7477  1.6042
   38POPC  H13Y 5162   2.476   2.382   8.250 -0.8444 -0.6931 -0.2412
   38POPC  C314 5163   2.640   2.303   8.388  0.6134 -0.3061  0.9506
   38POPC  H14X 5164   2.732   2.324   8.330  1.3910  1.1388  2.6281
   38POPC  H14Y 5165   2.662   2.200   8.424 -1.8793 -0.9264  0.9542
   38POPC  C315 5166   2.624   2.408   8.504  0.0855  0.2860 -0.8118
   38POPC  H15X 5167   2.548   2.365   8.572 -0.9762 -0.1413 -2.2160
   38POPC  H15Y 5168   2.591   2.505   8.461  1.2576  0.6145 -0.9947
   38POPC  C316 5169   2.758   2.419   8.582  0.3818 -0.2421  0.4138
   38POPC  H16X 5170   2.782   2.323   8.632  1.8507  0.2581  0.7165
   38POPC  H16Y 5171   2.753   2.493   8.665  2.1710  2.2229 -1.5441
   38POPC  H16Z 5172   2.844   2.461   8.527  1.1768  2.3824  3.3530
   39POPC     N 5173   0.522   0.458   6.176  0.1959 -0.3540 -0.3635
   39POPC   C12 5174   0.497   0.387   6.043 -0.3271  0.0734  0.3753
   39POPC  H12A 5175   0.579   0.422   5.982 -0.5283 -0.3435 -0.1388
   39POPC  H12B 5176   0.397   0.414   6.014  0.0364  1.2215  0.1452
   39POPC   C13 5177   0.415   0.417   6.274  0.2057  0.2211  1.2975
   39POPC  H13A 5178   0.399   0.312   6.256  0.3625  0.1041  1.8304
   39POPC  H13B 5179   0.433   0.454   6.373 -2.4571  3.2343  0.8332
   39POPC  H13C 5180   0.321   0.462   6.243 -0.4406 -2.4775 -1.0542
   39POPC   C14 5181   0.656   0.433   6.233 -0.1225 -0.2629 -0.4539
   39POPC  H14A 5182   0.670   0.497   6.319 -0.1330  2.1575 -2.1632
   39POPC  H14B 5183   0.667   0.330   6.265  1.9592 -0.0933 -0.5133
   39POPC  H14C 5184   0.741   0.455   6.171  0.3899 -1.1792 -0.0996
   39POPC   C15 5185   0.511   0.608   6.155 -0.0704  0.4012  0.3377
   39POPC  H15A 5186   0.410   0.629   6.123  0.5179  0.4132 -1.6948
   39POPC  H15B 5187   0.579   0.643   6.079 -3.4462  0.7774 -2.7840
   39POPC  H15C 5188   0.520   0.673   6.240  2.8427 -0.3234  0.6925
   39POPC   C11 5189   0.515   0.243   6.038  0.0588  0.0585 -0.2980
   39POPC  H11A 5190   0.620   0.214   6.062  0.0516 -1.4646 -1.8850
   39POPC  H11B 5191   0.510   0.205   5.934 -0.3705 -0.9348  0.0682
   39POPC     P 5192   0.442   0.030   6.170  0.2620  0.2917 -0.2219
   39POPC   O13 5193   0.582   0.018   6.220 -0.0089 -0.2241 -0.0043
   39POPC   O14 5194   0.402  -0.054   6.056 -0.2728  0.5197 -0.6018
   39POPC   O12 5195   0.424   0.175   6.122  0.5415 -0.4215 -0.2234
   39POPC   O11 5196   0.339   0.008   6.292 -0.4343 -0.4875  0.3435
   39POPC    C1 5197   0.307   0.113   6.387 -0.6086  0.4213  0.2943
   39POPC    HA 5198   0.217   0.167   6.351 -2.1296 -2.2071 -0.1245
   39POPC    HB 5199   0.394   0.181   6.395  0.1325 -0.3260 -1.0439
   39POPC    C2 5200   0.272   0.060   6.533 -0.2673 -0.0336  1.0313
   39POPC    HS 5201   0.341   0.103   6.609 -0.1967  1.6454  0.0687
   39POPC   O21 5202   0.271  -0.083   6.545  0.4319 -0.0879 -0.3330
   39POPC   C21 5203   0.392  -0.135   6.565  0.5581 -0.4012  0.2652
   39POPC   O22 5204   0.493  -0.074   6.588  0.2178 -0.2480 -0.7423
   39POPC   C22 5205   0.384  -0.280   6.534 -0.6067 -0.2669 -0.4535
   39POPC   H2R 5206   0.487  -0.313   6.510 -0.4217  0.2552 -0.4077
   39POPC   H2S 5207   0.314  -0.295   6.449  1.3902 -1.0908 -2.0068
   39POPC    C3 5208   0.136   0.115   6.584  0.3699  0.8391 -0.8847
   39POPC    HX 5209   0.055   0.105   6.509 -2.0988  0.1308  1.6833
   39POPC    HY 5210   0.147   0.225   6.595  1.2638  0.5594  1.6608
   39POPC   O31 5211   0.103   0.043   6.710 -0.6041  0.1937 -0.3143
   39POPC   C31 5212   0.016  -0.060   6.691  0.4933  0.1893  0.6294
   39POPC   O32 5213  -0.028  -0.094   6.581  0.2614  0.0840 -0.4442
   39POPC   C32 5214  -0.017  -0.133   6.818 -0.0496 -0.6663 -0.4724
   39POPC   H2X 5215  -0.031  -0.240   6.792  1.6292 -1.0378  0.0182
   39POPC   H2Y 5216   0.067  -0.136   6.891  0.5525 -2.3925 -1.1944
   39POPC   C23 5217   0.320  -0.366   6.657 -0.0666 -0.0269  0.5359
   39POPC   H3R 5218   0.304  -0.470   6.622  0.1827  0.0365  0.2306
   39POPC   H3S 5219   0.222  -0.319   6.678 -0.3694 -0.6482  0.5213
   39POPC   C24 5220   0.399  -0.372   6.790 -0.2159  0.2190  0.1604
   39POPC   H4R 5221   0.430  -0.268   6.812  0.6717  0.5164 -2.2078
   39POPC   H4S 5222   0.491  -0.435   6.785  1.1313  2.0237  0.9767
   39POPC   C25 5223   0.305  -0.421   6.901  0.1422  0.2118 -0.2063
   39POPC   H5R 5224   0.305  -0.531   6.912  1.1156  0.0654 -1.3842
   39POPC   H5S 5225   0.204  -0.388   6.870 -0.3966  0.6319  1.8423
   39POPC   C26 5226   0.314  -0.342   7.033 -0.2342 -0.1955 -0.4593
   39POPC   H6R 5227   0.320  -0.232   7.019 -2.1083  0.4921  3.0006
   39POPC   H6S 5228   0.405  -0.380   7.084 -0.3640 -0.2291 -0.2492
   39POPC   C27 5229   0.189  -0.351   7.130  0.0064  0.0763  0.4780
   39POPC   H7R 5230   0.176  -0.461   7.143  1.2942  0.0207  1.6585
   39POPC   H7S 5231   0.099  -0.304   7.087  1.9674  2.1864 -1.5832
   39POPC   C28 5232   0.215  -0.284   7.271  0.1361 -0.3408 -0.0076
   39POPC   H8R 5233   0.304  -0.341   7.304 -0.7174 -1.6491  0.1013
   39POPC   H8S 5234   0.137  -0.322   7.340 -1.0847  2.9204  0.6092
   39POPC   C29 5235   0.224  -0.132   7.266 -0.2628  0.1546  0.0547
   39POPC   H91 5236   0.313  -0.093   7.215 -0.2024 -1.1416 -0.8882
   39POPC  C210 5237   0.152  -0.036   7.334  0.5493  0.1369  1.0215
   39POPC  H101 5238   0.179   0.068   7.312  1.5212 -0.0168  1.4251
   39POPC  C211 5239   0.030  -0.045   7.415  0.2701  0.1077  0.1018
   39POPC  H11R 5240  -0.038  -0.108   7.353  0.6228 -0.9225  0.7376
   39POPC  H11S 5241  -0.025   0.051   7.423  0.4895  0.1012  2.0914
   39POPC  C212 5242   0.038  -0.112   7.555 -0.6464  0.3374 -0.2639
   39POPC  H12R 5243   0.085  -0.212   7.546  0.4110  0.7782  0.1407
   39POPC  H12S 5244  -0.066  -0.123   7.590 -0.0805  1.6328  2.0347
   39POPC  C213 5245   0.117  -0.040   7.659  0.8593 -0.8564 -0.6861
   39POPC  H13R 5246   0.220  -0.021   7.620 -0.1918  0.4441 -3.0005
   39POPC  H13S 5247   0.124  -0.097   7.754  1.8345  0.5444  0.1227
   39POPC  C214 5248   0.050   0.097   7.683  0.4215 -0.6410 -0.0212
   39POPC  H14R 5249  -0.052   0.088   7.726  0.4985  0.2621  0.3881
   39POPC  H14S 5250   0.045   0.153   7.587  1.2551  0.2137  0.4073
   39POPC  C215 5251   0.127   0.182   7.784 -0.1816 -0.4719 -0.1552
   39POPC  H15R 5252   0.094   0.288   7.786  0.2566 -0.3162 -0.7726
   39POPC  H15S 5253   0.237   0.171   7.766 -0.7351 -3.1642 -2.8620
   39POPC  C216 5254   0.088   0.128   7.924 -0.0558 -0.7667 -0.2121
   39POPC  H16R 5255   0.129   0.027   7.944  3.1896  0.6439  0.8710
   39POPC  H16S 5256  -0.023   0.127   7.933  0.0079  1.4321  1.3205
   39POPC  C217 5257   0.159   0.203   8.037 -0.9395 -0.0092  0.1105
   39POPC  H17R 5258   0.140   0.312   8.037 -1.7163 -0.1100  1.5689
   39POPC  H17S 5259   0.269   0.195   8.040 -0.7447  2.2177  0.4349
   39POPC  C218 5260   0.121   0.138   8.172 -0.6019 -0.0483 -0.5675
   39POPC  H18R 5261   0.165   0.183   8.263 -1.4678 -0.4191  0.0420
   39POPC  H18S 5262   0.138   0.028   8.170 -4.9411 -1.0058  2.6246
   39POPC  H18T 5263   0.011   0.143   8.182 -0.6241 -2.6001  1.5652
   39POPC   C33 5264  -0.134  -0.082   6.894  0.2573 -0.1702  1.1196
   39POPC   H3X 5265  -0.155  -0.140   6.987  0.0528  1.9116  2.4217
   39POPC   H3Y 5266  -0.221  -0.093   6.826  0.6427  0.1077  0.5748
   39POPC   C34 5267  -0.137   0.069   6.920 -0.3475  0.1944 -0.6729
   39POPC   H4X 5268  -0.146   0.127   6.826 -0.8479 -0.6748 -1.1852
   39POPC   H4Y 5269  -0.042   0.099   6.969 -0.2574  1.5959 -1.6640
   39POPC   C35 5270  -0.253   0.110   7.006 -0.3324  0.0607  0.3293
   39POPC   H5X 5271  -0.341   0.084   6.943 -0.4036 -0.4657  0.6377
   39POPC   H5Y 5272  -0.235   0.219   7.019 -0.2327  0.1721 -0.6759
   39POPC   C36 5273  -0.260   0.039   7.141 -0.9052 -0.5224 -0.7286
   39POPC   H6X 5274  -0.171   0.071   7.200 -0.1073 -4.1661  0.3051
   39POPC   H6Y 5275  -0.260  -0.072   7.132  0.9431 -0.8449  2.0763
   39POPC   C37 5276  -0.383   0.082   7.230  0.6708 -0.5690 -0.3207
   39POPC   H7X 5277  -0.474   0.064   7.167 -0.2934 -1.9148  1.3679
   39POPC   H7Y 5278  -0.372   0.191   7.246  1.0193 -0.5741 -0.5135
   39POPC   C38 5279  -0.399   0.009   7.361  0.0207  0.1522  1.0699
   39POPC   H8X 5280  -0.298   0.016   7.407 -0.2045  3.9095  1.3481
   39POPC   H8Y 5281  -0.421  -0.099   7.347 -0.3848  0.2689  0.7801
   39POPC   C39 5282  -0.497   0.075   7.463 -0.1188 -0.0844  0.3218
   39POPC   H9X 5283  -0.599   0.073   7.417 -0.0101 -1.8776  0.0990
   39POPC   H9Y 5284  -0.479   0.184   7.477  0.2718  0.0205 -0.8681
   39POPC  C310 5285  -0.511  -0.002   7.598  0.3060  0.2089 -0.6887
   39POPC  H10X 5286  -0.548  -0.107   7.591  0.0406  0.0704  1.8365
   39POPC  H10Y 5287  -0.585   0.056   7.656  2.2253  0.6788  1.4178
   39POPC  C311 5288  -0.386  -0.011   7.686  0.4014  0.1344 -0.3689
   39POPC  H11X 5289  -0.336   0.088   7.673 -0.1563  0.1600 -2.6332
   39POPC  H11Y 5290  -0.321  -0.090   7.643  1.0495  1.2162 -1.4485
   39POPC  C312 5291  -0.428  -0.035   7.833 -0.0135 -0.1583  0.2725
   39POPC  H12X 5292  -0.495  -0.124   7.836  0.1186 -0.2514  0.5090
   39POPC  H12Y 5293  -0.475   0.061   7.862  1.4093  0.4010  0.7737
   39POPC  C313 5294  -0.314  -0.073   7.932 -0.5662  0.2718  0.1446
   39POPC  H13X 5295  -0.250   0.016   7.951 -0.5220  0.1904  0.3738
   39POPC  H13Y 5296  -0.256  -0.162   7.899 -2.2433 -1.5051  1.7122
   39POPC  C314 5297  -0.378  -0.105   8.073 -0.2912 -0.1538  0.3330
   39POPC  H14X 5298  -0.433  -0.196   8.040 -0.2390 -0.2200  0.4298
   39POPC  H14Y 5299  -0.445  -0.020   8.098  0.8117  1.5725 -2.1742
   39POPC  C315 5300  -0.296  -0.146   8.188 -0.0704 -0.1894  0.0993
   39POPC  H15X 5301  -0.248  -0.244   8.169  0.1345 -0.1714  0.5219
   39POPC  H15Y 5302  -0.362  -0.150   8.277 -1.4511  2.6753 -0.6839
   39POPC  C316 5303  -0.197  -0.034   8.229  0.2003  0.0577  0.5215
   39POPC  H16X 5304  -0.136  -0.069   8.316  0.0684  1.8220  1.3768
   39POPC  H16Y 5305  -0.241   0.067   8.245 -0.4262  0.0166 -0.8329
   39POPC  H16Z 5306  -0.128  -0.031   8.142  1.1353  1.3379  1.2665
   40POPC     N 5307   5.811   6.588   5.947 -0.2388  0.7582  0.4146
   40POPC   C12 5308   5.882   6.631   6.076  0.2241 -0.3691  0.2790
   40POPC  H12A 5309   5.888   6.739   6.066  1.3262 -0.3938  0.5780
   40POPC  H12B 5310   5.985   6.604   6.060 -0.0009 -0.7693 -0.5598
   40POPC   C13 5311   5.826   6.442   5.932  0.0992 -1.0371 -0.0601
   40POPC  H13A 5312   5.787   6.403   6.025 -1.2935  1.5715  0.5496
   40POPC  H13B 5313   5.762   6.404   5.854 -0.6116 -0.2086  0.1032
   40POPC  H13C 5314   5.925   6.401   5.920  0.2513 -0.0366 -3.0689
   40POPC   C14 5315   5.667   6.622   5.939 -0.3554  0.0359 -0.2911
   40POPC  H14A 5316   5.606   6.559   6.002  0.3740 -0.1316  0.2614
   40POPC  H14B 5317   5.648   6.722   5.977 -1.4288 -0.0669 -0.5216
   40POPC  H14C 5318   5.633   6.607   5.837  2.3000 -0.2306 -1.2281
   40POPC   C15 5319   5.884   6.641   5.821  0.5368  0.4748 -0.1792
   40POPC  H15A 5320   5.861   6.572   5.741  2.5018 -1.2704  0.6549
   40POPC  H15B 5321   5.991   6.629   5.833  0.4215  1.0493  1.7555
   40POPC  H15C 5322   5.861   6.744   5.800 -1.0864  0.2640  0.4396
   40POPC   C11 5323   5.833   6.569   6.215 -1.1021 -0.1077  0.3165
   40POPC  H11A 5324   5.731   6.614   6.218  0.1700  3.0079  0.0954
   40POPC  H11B 5325   5.889   6.625   6.293  2.2923 -2.7334 -0.0179
   40POPC     P 5326   5.958   6.347   6.251  0.0985 -0.0507 -0.1924
   40POPC   O13 5327   6.037   6.354   6.131  0.1212  0.2623  0.3443
   40POPC   O14 5328   5.910   6.211   6.280  0.2472 -0.2295 -0.0262
   40POPC   O12 5329   5.831   6.427   6.231 -0.2091  0.0793 -0.4634
   40POPC   O11 5330   6.029   6.407   6.383  0.3682 -0.7084  0.2455
   40POPC    C1 5331   5.949   6.409   6.500 -0.5401 -1.3191  0.2659
   40POPC    HA 5332   5.969   6.326   6.570  0.9742 -1.3001 -0.0954
   40POPC    HB 5333   5.843   6.436   6.482  0.4727  2.5555 -0.9868
   40POPC    C2 5334   5.975   6.553   6.563  0.4765 -0.1971  0.0723
   40POPC    HS 5335   5.986   6.618   6.473  1.1467  0.3492  0.5371
   40POPC   O21 5336   6.097   6.557   6.633 -0.3818  1.1207 -0.6375
   40POPC   C21 5337   6.144   6.676   6.655  0.1495 -0.4248 -0.4057
   40POPC   O22 5338   6.108   6.784   6.610 -0.0869  0.1786  0.7043
   40POPC   C22 5339   6.255   6.660   6.761  0.0984  0.0993 -0.1517
   40POPC   H2R 5340   6.336   6.724   6.721  0.0652 -0.3375 -0.9425
   40POPC   H2S 5341   6.290   6.555   6.768 -2.2095 -0.6333  1.7368
   40POPC    C3 5342   5.858   6.610   6.647 -0.0273  0.1626 -0.1049
   40POPC    HX 5343   5.767   6.614   6.583 -1.2650  1.8534  1.6603
   40POPC    HY 5344   5.874   6.712   6.687 -0.2802  0.2348 -0.1845
   40POPC   O31 5345   5.831   6.521   6.760  0.1432  0.2745 -0.1163
   40POPC   C31 5346   5.712   6.561   6.828  0.0176  0.5092  0.5936
   40POPC   O32 5347   5.646   6.658   6.789 -0.7616 -0.4566 -0.1882
   40POPC   C32 5348   5.679   6.467   6.942  0.7724  0.8924 -0.4072
   40POPC   H2X 5349   5.765   6.477   7.012  0.7091  1.1816 -0.3680
   40POPC   H2Y 5350   5.680   6.361   6.909 -2.2440 -0.0059  1.8931
   40POPC   C23 5351   6.219   6.718   6.906 -0.0077 -0.2220  0.4536
   40POPC   H3R 5352   6.161   6.810   6.889  0.5135 -0.0295 -0.3581
   40POPC   H3S 5353   6.310   6.749   6.962 -1.7813  3.9884  1.3554
   40POPC   C24 5354   6.147   6.610   6.982 -0.7009  0.4101 -0.0897
   40POPC   H4R 5355   6.223   6.530   6.980 -0.7374  0.3932 -1.2059
   40POPC   H4S 5356   6.062   6.575   6.920  0.1171 -0.9552 -0.4785
   40POPC   C25 5357   6.134   6.650   7.129 -0.5382 -0.3775  0.5757
   40POPC   H5R 5358   6.072   6.741   7.118  1.9958  1.7615  2.4640
   40POPC   H5S 5359   6.230   6.681   7.175  0.4220  1.0675 -2.1720
   40POPC   C26 5360   6.072   6.543   7.214 -0.3116  0.0856 -0.1136
   40POPC   H6R 5361   6.024   6.461   7.156 -0.3846 -1.1232  1.5781
   40POPC   H6S 5362   5.989   6.592   7.268 -0.3595 -0.3154  0.1831
   40POPC   C27 5363   6.172   6.466   7.308 -0.1881  0.9268 -0.8449
   40POPC   H7R 5364   6.210   6.533   7.388 -0.7133 -0.9249  1.0506
   40POPC   H7S 5365   6.258   6.422   7.254  1.3092  0.8649  1.4642
   40POPC   C28 5366   6.099   6.359   7.385  0.2696  0.9169 -0.3006
   40POPC   H8R 5367   6.038   6.298   7.315 -1.0852  0.8398  0.9081
   40POPC   H8S 5368   6.027   6.412   7.451  2.0191  0.1127  2.4482
   40POPC   C29 5369   6.175   6.257   7.469  0.2494  0.1315 -0.7853
   40POPC   H91 5370   6.235   6.192   7.404  1.2694  0.7758 -0.5238
   40POPC  C210 5371   6.182   6.258   7.606 -0.2645 -0.1388 -0.2867
   40POPC  H101 5372   6.255   6.194   7.659 -2.2407 -0.4852  2.2382
   40POPC  C211 5373   6.110   6.349   7.694  0.2170 -0.0779 -0.1606
   40POPC  H11R 5374   6.112   6.304   7.795  3.2424  0.5929  0.1796
   40POPC  H11S 5375   6.004   6.360   7.663 -0.3053 -1.1892  1.1657
   40POPC  C212 5376   6.166   6.493   7.706 -0.1607 -0.7589  0.7036
   40POPC  H12R 5377   6.156   6.549   7.611  1.6448  1.7627  1.8797
   40POPC  H12S 5378   6.272   6.490   7.738  0.0193  0.5520  0.3027
   40POPC  C213 5379   6.086   6.565   7.815 -0.1593 -0.1329 -1.0454
   40POPC  H13R 5380   5.980   6.559   7.784 -0.0256 -1.4653 -1.3153
   40POPC  H13S 5381   6.121   6.670   7.805  2.4871 -0.5774  1.9932
   40POPC  C214 5382   6.121   6.533   7.964 -1.0247 -0.1268 -0.3450
   40POPC  H14R 5383   6.232   6.530   7.973 -0.8753 -0.7715 -2.0919
   40POPC  H14S 5384   6.090   6.427   7.978 -2.1741  0.2832  0.4136
   40POPC  C215 5385   6.053   6.623   8.062  0.0587 -0.0247  0.6060
   40POPC  H15R 5386   5.943   6.618   8.055 -0.1682  2.5345  1.2172
   40POPC  H15S 5387   6.073   6.729   8.034 -1.6645 -0.1186 -1.1506
   40POPC  C216 5388   6.109   6.603   8.206 -0.6095  0.6538  0.9731
   40POPC  H16R 5389   6.219   6.606   8.194 -0.7903 -0.7450 -2.3872
   40POPC  H16S 5390   6.095   6.496   8.236  1.3202 -0.2411 -1.0415
   40POPC  C217 5391   6.062   6.706   8.309 -0.4547  0.2525 -0.0964
   40POPC  H17R 5392   6.075   6.675   8.414  0.5367  1.8338  0.2859
   40POPC  H17S 5393   5.953   6.712   8.291 -0.3551 -1.2876 -1.4434
   40POPC  C218 5394   6.120   6.849   8.288  0.4242  0.3285  0.2895
   40POPC  H18R 5395   6.114   6.890   8.186  0.2877 -0.4489 -0.0226
   40POPC  H18S 5396   6.228   6.845   8.316  0.4279 -2.1128  0.1795
   40POPC  H18T 5397   6.076   6.915   8.366 -3.0669 -1.9313  0.4578
   40POPC   C33 5398   5.548   6.499   7.024 -0.2412  0.3723 -0.0926
   40POPC   H3X 5399   5.470   6.472   6.949  0.0267  1.5667 -0.8280
   40POPC   H3Y 5400   5.547   6.609   7.038  1.6933  0.2303  1.6208
   40POPC   C34 5401   5.530   6.410   7.142 -0.1178  0.5835 -0.4250
   40POPC   H4X 5402   5.558   6.313   7.095 -0.3983  0.3186 -0.0574
   40POPC   H4Y 5403   5.419   6.399   7.148 -0.4213  1.1882 -3.3016
   40POPC   C35 5404   5.605   6.455   7.272  0.1893 -0.3667 -0.1822
   40POPC   H5X 5405   5.571   6.557   7.299  1.2302 -0.1296  0.2715
   40POPC   H5Y 5406   5.714   6.466   7.252  0.8379 -0.4511  2.8446
   40POPC   C36 5407   5.588   6.362   7.395  0.4858 -0.5365  0.1250
   40POPC   H6X 5408   5.600   6.261   7.351 -0.2606  0.1241 -1.6675
   40POPC   H6Y 5409   5.484   6.369   7.434  0.7983  0.8207  0.7728
   40POPC   C37 5410   5.685   6.392   7.512 -0.3463 -0.6641  0.0211
   40POPC   H7X 5411   5.670   6.493   7.557  0.6852 -0.1941 -0.6569
   40POPC   H7Y 5412   5.791   6.397   7.477 -0.5370 -1.3768 -0.6838
   40POPC   C38 5413   5.685   6.283   7.618  0.9312 -0.6497  0.4025
   40POPC   H8X 5414   5.788   6.262   7.652  0.1417 -1.6629  2.3614
   40POPC   H8Y 5415   5.650   6.185   7.581  2.0638 -0.3304 -1.6493
   40POPC   C39 5416   5.599   6.322   7.744  0.1317 -0.0450 -0.0767
   40POPC   H9X 5417   5.583   6.229   7.803 -2.5742  0.1343 -0.4149
   40POPC   H9Y 5418   5.493   6.345   7.721  0.4451  0.1998 -1.3153
   40POPC  C310 5419   5.668   6.416   7.840 -0.0547  0.3251 -0.5885
   40POPC  H10X 5420   5.660   6.522   7.811 -0.2563  0.7110  0.7999
   40POPC  H10Y 5421   5.778   6.409   7.858 -0.5671  0.9662  3.9936
   40POPC  C311 5422   5.600   6.405   7.972  0.0705  0.3644  0.0488
   40POPC  H11X 5423   5.600   6.301   8.009  0.1199 -0.6711 -2.6578
   40POPC  H11Y 5424   5.496   6.436   7.950  0.6433  2.0908 -0.4282
   40POPC  C312 5425   5.670   6.501   8.074 -0.4727  0.0896  0.8462
   40POPC  H12X 5426   5.668   6.594   8.013 -0.6449  0.8737  2.0237
   40POPC  H12Y 5427   5.775   6.467   8.085 -0.9588 -1.5823  0.5313
   40POPC  C313 5428   5.605   6.507   8.212  0.0779  0.2966  0.0867
   40POPC  H13X 5429   5.560   6.406   8.226  0.9693  0.1692  2.5065
   40POPC  H13Y 5430   5.523   6.581   8.213  0.1530  0.4124  2.1602
   40POPC  C314 5431   5.706   6.547   8.324  0.2441 -0.0561  0.1358
   40POPC  H14X 5432   5.760   6.639   8.295 -1.0660  0.5561 -0.4038
   40POPC  H14Y 5433   5.777   6.461   8.323  0.8721  0.2929 -4.2400
   40POPC  C315 5434   5.643   6.583   8.460 -0.0769 -0.0281 -0.1512
   40POPC  H15X 5435   5.576   6.672   8.456 -0.8335 -0.6125 -0.9626
   40POPC  H15Y 5436   5.720   6.620   8.530 -0.0391 -1.3106  0.5191
   40POPC  C316 5437   5.583   6.468   8.534  0.3584  0.3590  0.5244
   40POPC  H16X 5438   5.583   6.481   8.644  1.1422 -0.9309  0.6921
   40POPC  H16Y 5439   5.645   6.378   8.516 -0.7985 -0.7983  2.0966
   40POPC  H16Z 5440   5.484   6.444   8.492  0.7657 -2.9487  1.1783
   41CHL1    C3 5441   5.331   4.405  10.164  0.1421 -0.1993  0.5515
   41CHL1    H3 5442   5.431   4.399  10.115  0.3767  2.5983  0.5524
   41CHL1    O3 5443   5.347   4.394  10.305 -0.2751 -0.2228 -0.9200
   41CHL1   H3' 5444   5.266   4.435  10.336 -0.2907 -0.5916 -0.4662
   41CHL1    C4 5445   5.283   4.544  10.120  0.0105  0.0693  0.2397
   41CHL1   H4A 5446   5.177   4.553  10.152 -0.2668 -0.5667 -0.4873
   41CHL1   H4B 5447   5.357   4.615  10.163  0.3117  0.1073 -0.3324
   41CHL1    C5 5448   5.278   4.552   9.967 -0.3998  0.3693 -0.2419
   41CHL1    C6 5449   5.337   4.649   9.899  0.2153 -0.2427 -0.2547
   41CHL1    H6 5450   5.393   4.718   9.963 -1.6624  0.2185  0.9726
   41CHL1    C7 5451   5.327   4.671   9.751 -0.4673  0.2647 -0.1280
   41CHL1   H7A 5452   5.294   4.775   9.727 -0.5946  0.1719 -0.3536
   41CHL1   H7B 5453   5.427   4.653   9.706 -0.4294 -1.1894  0.4917
   41CHL1    C8 5454   5.234   4.580   9.674 -0.3681  0.1077 -0.0439
   41CHL1    H8 5455   5.129   4.616   9.679 -0.9913 -1.7345  1.3595
   41CHL1   C14 5456   5.270   4.570   9.526 -0.6205  0.7669 -0.5036
   41CHL1   H14 5457   5.365   4.513   9.525 -0.0190  1.4673  3.1811
   41CHL1   C15 5458   5.309   4.685   9.437  0.1107 -0.4118  0.1683
   41CHL1  H15A 5459   5.242   4.771   9.458 -1.5395 -1.7614  0.5951
   41CHL1  H15B 5460   5.417   4.713   9.439  0.2736 -0.9949  2.7036
   41CHL1   C16 5461   5.289   4.627   9.295  0.1706 -0.6360  0.4210
   41CHL1  H16A 5462   5.223   4.694   9.236  1.8842  2.4479  1.7774
   41CHL1  H16B 5463   5.388   4.604   9.251 -0.0545  0.0343 -0.4463
   41CHL1   C17 5464   5.227   4.480   9.311  0.2652 -0.4486  0.2160
   41CHL1   H17 5465   5.323   4.424   9.315  1.4570  1.1466 -2.4823
   41CHL1   C13 5466   5.169   4.478   9.450 -0.0393 -0.2327 -0.2290
   41CHL1   C18 5467   5.029   4.549   9.445 -0.0461  0.1349 -0.3957
   41CHL1  H18A 5468   4.968   4.502   9.365 -2.3370  1.5941  0.3950
   41CHL1  H18B 5469   4.971   4.561   9.539 -0.3521 -0.1890 -0.5407
   41CHL1  H18C 5470   5.049   4.644   9.391 -0.0320 -1.1405 -2.7533
   41CHL1   C12 5471   5.165   4.338   9.518 -0.1183 -0.8267 -1.0374
   41CHL1  H12A 5472   5.078   4.288   9.472  0.0027 -0.9767 -1.1064
   41CHL1  H12B 5473   5.252   4.272   9.495 -0.3830 -1.2967 -0.7093
   41CHL1   C11 5474   5.135   4.344   9.664  0.1145 -0.1976  0.1373
   41CHL1  H11A 5475   5.026   4.357   9.680  0.2444 -1.0303  2.0384
   41CHL1  H11B 5476   5.152   4.242   9.706 -1.0688 -0.6148 -0.3244
   41CHL1    C9 5477   5.230   4.440   9.740 -0.1060  0.9443 -0.6728
   41CHL1    H9 5478   5.331   4.394   9.731 -0.3866 -0.1641  1.2125
   41CHL1   C10 5479   5.198   4.448   9.891  0.7510  0.9364  0.0450
   41CHL1   C19 5480   5.044   4.473   9.920  1.0230 -0.3557 -0.2390
   41CHL1  H19A 5481   5.016   4.485  10.027 -2.7228  0.9700 -1.2109
   41CHL1  H19B 5482   5.010   4.562   9.863 -1.3943 -1.0932 -0.0529
   41CHL1  H19C 5483   4.981   4.390   9.883 -1.6965  1.7891 -0.6805
   41CHL1    C1 5484   5.240   4.310   9.952  0.3280 -0.1803 -0.4056
   41CHL1   H1A 5485   5.177   4.221   9.932  1.9061 -2.0587  2.3873
   41CHL1   H1B 5486   5.344   4.286   9.925  0.6239  1.5530 -0.9725
   41CHL1    C2 5487   5.244   4.297  10.109 -0.3193 -0.5986 -0.0117
   41CHL1   H2A 5488   5.279   4.200  10.149 -0.2607 -0.3077  0.6606
   41CHL1   H2B 5489   5.143   4.313  10.153 -0.6762 -0.7958 -0.7532
   41CHL1   C20 5490   5.149   4.421   9.191  0.7788  0.2074  0.0365
   41CHL1   H20 5491   5.084   4.341   9.231  0.1286  0.2012 -0.9932
   41CHL1   C21 5492   5.245   4.363   9.093 -0.0950  0.2213  0.3867
   41CHL1  H21A 5493   5.193   4.343   8.997 -0.4852 -3.1059  1.1687
   41CHL1  H21B 5494   5.269   4.262   9.134 -2.5260 -0.0244  1.3582
   41CHL1  H21C 5495   5.348   4.405   9.088 -0.4011  1.1274  1.3122
   41CHL1   C22 5496   5.066   4.534   9.114 -0.0718 -0.2731  0.1865
   41CHL1  H22A 5497   5.001   4.592   9.183 -1.2388 -1.1335 -0.1427
   41CHL1  H22B 5498   5.139   4.603   9.068 -0.5986  1.6090  2.0244
   41CHL1   C23 5499   4.979   4.459   9.003 -0.4399 -0.0052  0.7262
   41CHL1  H23A 5500   5.035   4.450   8.907 -0.1796 -2.4536  1.0359
   41CHL1  H23B 5501   4.962   4.352   9.031 -1.1195 -0.2129 -0.3897
   41CHL1   C24 5502   4.844   4.534   8.983  0.0769 -0.0541 -0.1838
   41CHL1  H24A 5503   4.791   4.544   9.080 -0.4729  0.6124 -0.5448
   41CHL1  H24B 5504   4.867   4.635   8.944  1.1389  0.0563  0.6788
   41CHL1   C25 5505   4.753   4.463   8.871  0.5729  0.6667  0.9701
   41CHL1   H25 5506   4.767   4.353   8.880 -2.9350 -0.0796 -0.8479
   41CHL1   C26 5507   4.601   4.493   8.898  0.6617  0.8595  0.4563
   41CHL1  H26A 5508   4.569   4.437   8.988 -0.1955 -0.7368 -0.7847
   41CHL1  H26B 5509   4.590   4.604   8.896  0.4213  0.8344  0.4359
   41CHL1  H26C 5510   4.546   4.444   8.815  0.1216 -0.4882  1.5835
   41CHL1   C27 5511   4.797   4.515   8.735  0.1672  0.4783 -0.7085
   41CHL1  H27A 5512   4.908   4.521   8.732  0.2840 -1.5021 -1.7958
   41CHL1  H27B 5513   4.770   4.440   8.658  1.2788 -1.1224  0.3778
   41CHL1  H27C 5514   4.755   4.616   8.715 -2.8693 -0.6532 -0.5336
   42CHL1    C3 5515   3.864   3.464  10.105 -0.1092 -0.0128  0.3345
   42CHL1    H3 5516   3.819   3.562  10.131 -1.6126 -0.8599  1.1053
   42CHL1    O3 5517   3.921   3.408  10.224  0.7343  0.2087 -0.0791
   42CHL1   H3' 5518   3.963   3.328  10.191  1.7679  1.3284 -1.6378
   42CHL1    C4 5519   3.763   3.371  10.041  0.2505  0.0882 -0.0795
   42CHL1   H4A 5520   3.810   3.272  10.023 -0.1977  0.1430 -1.6895
   42CHL1   H4B 5521   3.681   3.344  10.112  0.8147 -0.2777  0.4485
   42CHL1    C5 5522   3.713   3.429   9.906  0.3059  0.0188 -0.4839
   42CHL1    C6 5523   3.581   3.455   9.898 -0.3646 -0.1232  0.2097
   42CHL1    H6 5524   3.511   3.431   9.979 -0.4971 -0.8079 -0.1008
   42CHL1    C7 5525   3.521   3.518   9.776 -0.4975 -0.2945  0.6047
   42CHL1   H7A 5526   3.430   3.458   9.753 -0.3513  0.0383 -0.9353
   42CHL1   H7B 5527   3.492   3.625   9.786  2.5858  0.4537  3.2031
   42CHL1    C8 5528   3.605   3.498   9.653 -0.0490  0.3059  0.0412
   42CHL1    H8 5529   3.594   3.391   9.626 -0.3735 -0.5557  3.2340
   42CHL1   C14 5530   3.549   3.577   9.533  0.2870  0.1902 -0.9160
   42CHL1   H14 5531   3.560   3.685   9.558  1.5981  0.1902 -1.4390
   42CHL1   C15 5532   3.396   3.565   9.514 -0.2916 -0.1951  0.0336
   42CHL1  H15A 5533   3.362   3.459   9.521 -0.8942 -0.2192 -2.2872
   42CHL1  H15B 5534   3.337   3.626   9.585 -1.2771 -1.0729 -0.0084
   42CHL1   C16 5535   3.387   3.624   9.372 -0.2345  0.7257  0.1694
   42CHL1  H16A 5536   3.333   3.559   9.299 -0.9549  1.6116 -0.0999
   42CHL1  H16B 5537   3.323   3.715   9.365 -2.3173 -0.4560  2.3967
   42CHL1   C17 5538   3.530   3.648   9.311  0.6757  0.1670 -0.3889
   42CHL1   H17 5539   3.541   3.756   9.335  0.4159 -0.3084  2.0973
   42CHL1   C13 5540   3.624   3.566   9.398 -0.4412 -0.0570 -0.0403
   42CHL1   C18 5541   3.615   3.415   9.360 -0.1981  0.4367  0.0000
   42CHL1  H18A 5542   3.646   3.344   9.440 -3.1714  0.1088  0.9717
   42CHL1  H18B 5543   3.513   3.387   9.325 -1.0171  1.2915  1.6142
   42CHL1  H18C 5544   3.683   3.383   9.278  0.9863 -0.2222  1.2034
   42CHL1   C12 5545   3.773   3.613   9.424 -0.0303 -0.4471 -0.4080
   42CHL1  H12A 5546   3.849   3.597   9.343 -0.6597  4.2766 -2.2502
   42CHL1  H12B 5547   3.771   3.721   9.448  0.6807 -1.0698  2.9521
   42CHL1   C11 5548   3.828   3.540   9.553 -0.2978  0.3788  0.3263
   42CHL1  H11A 5549   3.840   3.436   9.514 -1.4418  0.8079 -1.2689
   42CHL1  H11B 5550   3.930   3.580   9.573  0.5973 -1.4793 -0.2098
   42CHL1    C9 5551   3.746   3.538   9.682 -0.6228 -0.3230  0.3757
   42CHL1    H9 5552   3.734   3.646   9.705  0.1269  0.3086 -1.9227
   42CHL1   C10 5553   3.809   3.459   9.797 -0.2278  0.1751 -0.5707
   42CHL1   C19 5554   3.851   3.322   9.743  0.7589  0.3470 -0.0551
   42CHL1  H19A 5555   3.875   3.243   9.818 -0.2266 -0.1517 -0.2358
   42CHL1  H19B 5556   3.773   3.271   9.682  0.7898 -1.8679  1.5977
   42CHL1  H19C 5557   3.944   3.334   9.684  0.8198 -1.2896 -0.3448
   42CHL1    C1 5558   3.932   3.527   9.871  0.4573 -0.9379  0.4739
   42CHL1   H1A 5559   4.010   3.524   9.793  1.0139  0.9002  0.9250
   42CHL1   H1B 5560   3.895   3.631   9.888 -1.6200 -1.5595  0.1197
   42CHL1    C2 5561   3.980   3.469  10.005  0.0627 -0.0351  0.0831
   42CHL1   H2A 5562   4.058   3.529  10.057 -0.9895  2.5982 -1.2154
   42CHL1   H2B 5563   4.016   3.366   9.984 -2.5339 -1.1507  0.7536
   42CHL1   C20 5564   3.549   3.641   9.153  0.3089  0.3326  0.0409
   42CHL1   H20 5565   3.544   3.534   9.125 -0.2648  0.1353  0.8546
   42CHL1   C21 5566   3.688   3.701   9.115  0.6564  0.1195 -0.1382
   42CHL1  H21A 5567   3.776   3.635   9.132  0.0223 -1.1206 -1.3599
   42CHL1  H21B 5568   3.706   3.796   9.169 -0.0531  0.1465  0.0585
   42CHL1  H21C 5569   3.700   3.731   9.008  2.6285  0.8514  0.2671
   42CHL1   C22 5570   3.427   3.709   9.073 -0.8592 -0.4289 -0.9609
   42CHL1  H22A 5571   3.342   3.657   9.122  0.5275 -1.5841  0.3071
   42CHL1  H22B 5572   3.422   3.819   9.082 -0.7572 -0.5463  0.7784
   42CHL1   C23 5573   3.427   3.667   8.928 -0.4552  0.3061  0.1977
   42CHL1  H23A 5574   3.530   3.666   8.888 -0.1367 -1.5224  0.9983
   42CHL1  H23B 5575   3.397   3.561   8.916 -1.1994  0.6544 -1.1937
   42CHL1   C24 5576   3.344   3.761   8.839  0.6180  0.0955 -0.6378
   42CHL1  H24A 5577   3.239   3.761   8.876  0.3504  2.6025 -1.2230
   42CHL1  H24B 5578   3.383   3.864   8.850  1.6337 -0.3982  0.8493
   42CHL1   C25 5579   3.351   3.734   8.691  0.2508 -0.2031 -0.3283
   42CHL1   H25 5580   3.456   3.740   8.656  0.4826  0.1805  0.4233
   42CHL1   C26 5581   3.306   3.590   8.654 -0.2863 -0.4078  0.5237
   42CHL1  H26A 5582   3.386   3.525   8.695  0.3863 -0.2993 -0.5749
   42CHL1  H26B 5583   3.207   3.560   8.695  1.1975 -1.2082  3.8518
   42CHL1  H26C 5584   3.307   3.587   8.543  3.0613 -0.1420  0.4648
   42CHL1   C27 5585   3.265   3.834   8.614  0.7670 -0.5475 -0.2447
   42CHL1  H27A 5586   3.156   3.819   8.626  0.6538 -0.2263 -0.8257
   42CHL1  H27B 5587   3.304   3.936   8.634 -0.6818 -0.1389  0.5904
   42CHL1  H27C 5588   3.287   3.833   8.505  1.8505  0.5969 -0.0599
   43CHL1    C3 5589   5.728   5.057   9.903  0.0742 -0.0517 -0.0659
   43CHL1    H3 5590   5.739   5.166   9.891 -0.0121 -0.0047  0.2497
   43CHL1    O3 5591   5.722   5.029  10.041  0.4656 -0.1300  0.3471
   43CHL1   H3' 5592   5.808   5.041  10.081 -1.6370  1.0585  5.3199
   43CHL1    C4 5593   5.595   5.006   9.836  0.1125 -0.3814  0.3791
   43CHL1   H4A 5594   5.577   4.903   9.874 -1.4778  1.0232  3.9558
   43CHL1   H4B 5595   5.521   5.075   9.882  1.4209  1.4665 -0.1929
   43CHL1    C5 5596   5.598   5.006   9.682  0.7592 -0.2531  0.1987
   43CHL1    C6 5597   5.497   5.067   9.615 -0.1721 -0.1986 -0.1925
   43CHL1    H6 5598   5.421   5.127   9.667  1.8655  2.2712  0.1311
   43CHL1    C7 5599   5.489   5.085   9.467  0.2138  0.3429  0.0519
   43CHL1   H7A 5600   5.398   5.048   9.415  0.2244  0.3389  0.0370
   43CHL1   H7B 5601   5.503   5.192   9.441 -0.9477 -0.2691 -3.8902
   43CHL1    C8 5602   5.614   5.001   9.401 -0.1403 -0.0456 -0.3554
   43CHL1    H8 5603   5.584   4.895   9.389 -0.3650 -0.1994  1.4179
   43CHL1   C14 5604   5.642   5.047   9.250 -0.0889  0.3005 -0.4828
   43CHL1   H14 5605   5.679   5.151   9.262 -1.9311  1.0576 -0.8853
   43CHL1   C15 5606   5.522   5.066   9.154  0.5538 -0.5155 -0.7169
   43CHL1  H15A 5607   5.440   4.994   9.175  0.7450 -0.2381  1.1349
   43CHL1  H15B 5608   5.482   5.164   9.188  2.2834 -0.1509  0.3868
   43CHL1   C16 5609   5.573   5.059   9.013 -0.3047  0.2082 -0.7198
   43CHL1  H16A 5610   5.528   4.975   8.957  0.2590 -1.5748  1.3271
   43CHL1  H16B 5611   5.563   5.152   8.954  0.3878  1.1846  0.6323
   43CHL1   C17 5612   5.727   5.023   9.031 -0.1284 -0.7943 -1.1517
   43CHL1   H17 5613   5.790   5.115   9.026  0.2587 -1.1037 -2.4794
   43CHL1   C13 5614   5.742   4.959   9.172 -0.1756 -0.3788 -0.9571
   43CHL1   C18 5615   5.697   4.813   9.159  0.3476  1.2023  0.0510
   43CHL1  H18A 5616   5.596   4.801   9.114  0.8903  0.2174 -0.9453
   43CHL1  H18B 5617   5.773   4.754   9.104 -1.6210 -0.5062 -0.9876
   43CHL1  H18C 5618   5.691   4.766   9.260  1.4531  1.1146  0.0835
   43CHL1   C12 5619   5.871   4.978   9.253  0.2806 -0.4015 -0.0780
   43CHL1  H12A 5620   5.941   4.896   9.222  0.9681  0.1293  0.0368
   43CHL1  H12B 5621   5.924   5.071   9.225 -1.4624  0.7597  0.3819
   43CHL1   C11 5622   5.868   4.942   9.408 -0.3723 -0.1346 -0.1116
   43CHL1  H11A 5623   5.854   4.834   9.426  1.8334 -0.2156  1.5769
   43CHL1  H11B 5624   5.966   4.979   9.444 -0.7530 -0.7626  1.6688
   43CHL1    C9 5625   5.740   5.005   9.480  0.1359 -0.3985  0.3678
   43CHL1    H9 5626   5.762   5.112   9.499  0.8711 -0.5519  0.4472
   43CHL1   C10 5627   5.723   4.952   9.626 -0.3403  0.3115 -0.0158
   43CHL1   C19 5628   5.710   4.796   9.623 -0.1677  0.5036  0.1069
   43CHL1  H19A 5629   5.632   4.757   9.554 -0.0293 -0.1204  0.3038
   43CHL1  H19B 5630   5.804   4.739   9.606 -0.9186 -0.8817  0.5078
   43CHL1  H19C 5631   5.680   4.776   9.728 -1.3671  1.3949 -0.0460
   43CHL1    C1 5632   5.854   4.998   9.692  0.2970  0.2614  0.0797
   43CHL1   H1A 5633   5.936   4.934   9.651 -0.3584  0.9096 -2.4349
   43CHL1   H1B 5634   5.871   5.106   9.671 -5.5716  1.8776  1.9578
   43CHL1    C2 5635   5.854   4.985   9.847 -1.3841  0.4277  0.4654
   43CHL1   H2A 5636   5.947   5.036   9.879  0.5202 -1.5927 -1.4557
   43CHL1   H2B 5637   5.850   4.879   9.879  0.4354  0.6635  1.6290
   43CHL1   C20 5638   5.780   4.932   8.919 -1.0099  0.6543 -0.0959
   43CHL1   H20 5639   5.724   4.837   8.914  0.1100  0.0450 -2.7278
   43CHL1   C21 5640   5.931   4.907   8.949  0.3961  0.2300  0.1946
   43CHL1  H21A 5641   5.983   5.003   8.969 -1.7526  1.4782  0.0671
   43CHL1  H21B 5642   5.978   4.865   8.858 -2.5450 -1.3680 -0.7416
   43CHL1  H21C 5643   5.934   4.837   9.036 -1.6502 -0.7549 -0.4639
   43CHL1   C22 5644   5.762   4.987   8.772  0.2682  0.0481  0.7599
   43CHL1  H22A 5645   5.670   5.046   8.751 -2.5911 -4.7351 -2.0159
   43CHL1  H22B 5646   5.857   5.037   8.745  0.7091  0.1379  2.3867
   43CHL1   C23 5647   5.754   4.874   8.666  0.4186 -0.3085  0.0207
   43CHL1  H23A 5648   5.843   4.813   8.690  1.1811  0.9872  0.6101
   43CHL1  H23B 5649   5.678   4.799   8.696 -0.2797  0.9780  1.6362
   43CHL1   C24 5650   5.726   4.915   8.521 -0.1141  0.4780  0.3707
   43CHL1  H24A 5651   5.618   4.936   8.507  0.0669  0.6117 -0.9533
   43CHL1  H24B 5652   5.770   5.008   8.480 -0.0815  0.0550 -0.5768
   43CHL1   C25 5653   5.757   4.802   8.415 -0.0311  0.2235 -0.0226
   43CHL1   H25 5654   5.725   4.827   8.311 -0.1276 -0.2420 -0.1111
   43CHL1   C26 5655   5.906   4.781   8.405  0.3344 -0.0084 -0.1547
   43CHL1  H26A 5656   5.934   4.708   8.326 -0.1638  0.3865 -0.7122
   43CHL1  H26B 5657   5.955   4.878   8.383  1.2384 -0.2620  0.7061
   43CHL1  H26C 5658   5.943   4.739   8.500  0.7544  0.3915 -0.1407
   43CHL1   C27 5659   5.703   4.661   8.451 -0.2730 -0.2320 -0.7542
   43CHL1  H27A 5660   5.735   4.589   8.372  1.0714 -2.3338  1.5666
   43CHL1  H27B 5661   5.745   4.623   8.546  2.2446  1.2789 -1.1780
   43CHL1  H27C 5662   5.592   4.667   8.454 -0.3126 -0.9582 -0.6121
   44CHL1    C3 5663   6.206   4.302  10.060  0.1650 -0.0656  0.0280
   44CHL1    H3 5664   6.249   4.394  10.015  1.5584 -0.8039 -0.1951
   44CHL1    O3 5665   6.135   4.348  10.179 -0.2096 -0.2850  0.1007
   44CHL1   H3' 5666   6.205   4.383  10.235  1.0752 -0.9243 -1.0351
   44CHL1    C4 5667   6.094   4.234   9.975  0.9513 -0.7224  0.0247
   44CHL1   H4A 5668   6.045   4.148  10.025 -0.9036 -0.3350 -1.0489
   44CHL1   H4B 5669   6.004   4.298   9.964  1.9231  1.0032  1.5943
   44CHL1    C5 5670   6.152   4.214   9.836 -0.2907  0.0484 -0.2640
   44CHL1    C6 5671   6.105   4.262   9.721 -0.4488  0.2190  0.5758
   44CHL1    H6 5672   6.018   4.329   9.731  2.1184  3.8390  0.5023
   44CHL1    C7 5673   6.159   4.231   9.580 -0.5249  0.1755  0.4642
   44CHL1   H7A 5674   6.081   4.208   9.505  0.5193  1.6773 -1.1585
   44CHL1   H7B 5675   6.197   4.319   9.524 -0.5531  0.3428  0.7053
   44CHL1    C8 5676   6.262   4.114   9.582 -0.5727  0.1050  0.4123
   44CHL1    H8 5677   6.205   4.019   9.593 -1.0599  0.4061  0.5369
   44CHL1   C14 5678   6.352   4.131   9.454  0.4306 -0.4278  0.1038
   44CHL1   H14 5679   6.392   4.233   9.473 -0.1250 -0.3397  0.8380
   44CHL1   C15 5680   6.276   4.131   9.318 -1.1421  0.5345  0.1664
   44CHL1  H15A 5681   6.201   4.049   9.310 -0.9198  0.2906  0.5068
   44CHL1  H15B 5682   6.221   4.226   9.300 -2.6676 -0.9769 -4.4056
   44CHL1   C16 5683   6.397   4.109   9.230  0.5878 -0.8684 -0.1304
   44CHL1  H16A 5684   6.371   4.033   9.154 -0.2295 -0.1750 -0.5631
   44CHL1  H16B 5685   6.430   4.208   9.191  1.5495 -0.5892  1.3124
   44CHL1   C17 5686   6.519   4.074   9.313 -0.1865  0.0516 -0.7807
   44CHL1   H17 5687   6.573   4.170   9.330  0.6375 -0.2654 -1.5033
   44CHL1   C13 5688   6.468   4.035   9.446  0.7063  0.7939 -0.3764
   44CHL1   C18 5689   6.409   3.886   9.431 -0.3896 -0.5860 -0.2762
   44CHL1  H18A 5690   6.345   3.855   9.516 -0.8814 -0.2881 -0.5284
   44CHL1  H18B 5691   6.347   3.873   9.339  1.8329 -0.6881 -1.8589
   44CHL1  H18C 5692   6.485   3.805   9.439 -0.0847 -0.1368  1.8756
   44CHL1   C12 5693   6.563   4.053   9.562  0.4907 -0.5370 -0.6770
   44CHL1  H12A 5694   6.646   3.980   9.573  0.6576 -0.2819 -0.1885
   44CHL1  H12B 5695   6.602   4.157   9.567  0.1899 -0.4535  0.2741
   44CHL1   C11 5696   6.486   4.038   9.694 -0.1196 -0.4213  0.1728
   44CHL1  H11A 5697   6.470   3.928   9.698  0.2344 -0.4298  2.1016
   44CHL1  H11B 5698   6.556   4.059   9.777 -1.9899  1.4245  1.3720
   44CHL1    C9 5699   6.355   4.122   9.706 -0.2789 -0.5523 -1.3525
   44CHL1    H9 5700   6.394   4.226   9.699  0.9424 -0.9135 -0.2515
   44CHL1   C10 5701   6.281   4.118   9.841 -0.0559 -0.1496  0.1289
   44CHL1   C19 5702   6.239   3.970   9.873  0.6535 -0.1884  0.0519
   44CHL1  H19A 5703   6.321   3.898   9.858 -2.1348 -3.3690 -1.2816
   44CHL1  H19B 5704   6.202   3.964   9.978 -1.3123  0.6611 -0.5347
   44CHL1  H19C 5705   6.159   3.916   9.819  1.7596 -1.4680 -0.3503
   44CHL1    C1 5706   6.374   4.161   9.961 -1.0180 -0.7027 -0.1728
   44CHL1   H1A 5707   6.446   4.077   9.976 -2.3407 -1.9580 -0.6232
   44CHL1   H1B 5708   6.436   4.247   9.929 -0.7819 -1.2249 -1.1556
   44CHL1    C2 5709   6.308   4.199  10.090  0.2300 -0.3497 -0.2907
   44CHL1   H2A 5710   6.380   4.238  10.166 -0.3709  1.3915 -0.5583
   44CHL1   H2B 5711   6.267   4.104  10.129  2.5736 -1.4847 -0.4208
   44CHL1   C20 5712   6.610   3.979   9.234  0.3932 -0.0244  0.5589
   44CHL1   H20 5713   6.557   3.882   9.227 -0.7229  0.5505  0.8572
   44CHL1   C21 5714   6.747   3.964   9.300  0.4973  0.6186  0.2159
   44CHL1  H21A 5715   6.791   4.065   9.316 -2.7885  1.8648  2.2593
   44CHL1  H21B 5716   6.817   3.896   9.247  0.2169  0.4089  0.1152
   44CHL1  H21C 5717   6.735   3.927   9.404 -1.2462  1.6457  0.4181
   44CHL1   C22 5718   6.632   4.033   9.090 -0.1150 -0.4336  0.3514
   44CHL1  H22A 5719   6.534   4.056   9.043  0.6827  2.6121 -0.0757
   44CHL1  H22B 5720   6.700   4.122   9.094  1.4742 -1.6348  1.3805
   44CHL1   C23 5721   6.699   3.934   8.983  0.1187  0.0898 -0.7127
   44CHL1  H23A 5722   6.786   3.880   9.028 -1.9332 -1.7994  1.2393
   44CHL1  H23B 5723   6.631   3.854   8.948  0.5220  1.0186 -3.8677
   44CHL1   C24 5724   6.733   4.011   8.857 -0.3794  0.4040 -0.2459
   44CHL1  H24A 5725   6.636   4.020   8.804 -0.5995  0.3084  0.1330
   44CHL1  H24B 5726   6.771   4.111   8.883  0.0023  0.3376 -0.5435
   44CHL1   C25 5727   6.844   3.943   8.768 -0.8061 -0.2377 -0.9956
   44CHL1   H25 5728   6.945   3.935   8.813 -0.5684 -2.2889 -1.7906
   44CHL1   C26 5729   6.807   3.801   8.722  0.2375 -0.1063  0.0001
   44CHL1  H26A 5730   6.715   3.811   8.661  0.5266  0.1134 -0.4017
   44CHL1  H26B 5731   6.890   3.752   8.667 -0.0650  1.5025 -1.9769
   44CHL1  H26C 5732   6.772   3.735   8.805 -2.8586  1.4289  0.0781
   44CHL1   C27 5733   6.863   4.044   8.645  0.0287  0.1686  0.0758
   44CHL1  H27A 5734   6.914   4.139   8.674 -1.2877 -0.1170  3.8904
   44CHL1  H27B 5735   6.917   3.995   8.561 -1.1969 -3.1282  1.0894
   44CHL1  H27C 5736   6.760   4.071   8.613 -0.6182 -0.0691  1.8671
   45CHL1    C3 5737   3.097   3.473  10.035 -0.5097  0.1492 -0.0171
   45CHL1    H3 5738   3.050   3.373  10.047  1.7896 -0.6392  5.2923
   45CHL1    O3 5739   3.176   3.500  10.151  0.1756  0.0537 -0.2744
   45CHL1   H3' 5740   3.110   3.521  10.218 -1.3390 -1.4707 -1.2049
   45CHL1    C4 5741   3.190   3.478   9.915 -1.0057  0.0315  0.6318
   45CHL1   H4A 5742   3.246   3.574   9.916 -0.6584 -0.1219 -1.0685
   45CHL1   H4B 5743   3.260   3.394   9.932 -1.0374 -0.2672 -0.6034
   45CHL1    C5 5744   3.114   3.473   9.780 -0.1791 -0.4247  0.6426
   45CHL1    C6 5745   3.149   3.379   9.691  0.4376 -0.0656  0.5238
   45CHL1    H6 5746   3.235   3.312   9.709 -0.4026 -0.9460  1.3639
   45CHL1    C7 5747   3.080   3.360   9.561  0.1495 -0.5107  0.0885
   45CHL1   H7A 5748   3.161   3.340   9.488  0.7604  1.2313  0.2424
   45CHL1   H7B 5749   3.035   3.258   9.565  0.8911 -0.8268  0.6412
   45CHL1    C8 5750   2.972   3.467   9.525  0.1203  0.4455  0.0191
   45CHL1    H8 5751   2.896   3.405   9.473  0.3902 -2.1201  2.4540
   45CHL1   C14 5752   3.009   3.567   9.417 -0.1574 -0.2759  0.1979
   45CHL1   H14 5753   3.103   3.620   9.444 -0.4703  0.1218  0.5240
   45CHL1   C15 5754   3.021   3.487   9.282 -0.7492  0.2739  0.2597
   45CHL1  H15A 5755   3.110   3.514   9.221 -0.5211  0.7108  0.7818
   45CHL1  H15B 5756   3.022   3.377   9.293 -0.4454  0.3411  0.9596
   45CHL1   C16 5757   2.892   3.519   9.195 -0.8226 -0.1272 -0.8182
   45CHL1  H16A 5758   2.919   3.578   9.104  0.8503 -1.0412 -0.9446
   45CHL1  H16B 5759   2.844   3.426   9.158 -1.6355 -0.5558  1.2028
   45CHL1   C17 5760   2.808   3.612   9.286  0.6072  0.0161 -0.0582
   45CHL1   H17 5761   2.742   3.547   9.347 -0.0590  1.0852  0.3849
   45CHL1   C13 5762   2.905   3.678   9.389  0.1432 -0.2039 -0.1555
   45CHL1   C18 5763   2.978   3.783   9.309  0.2506  0.0909  0.2541
   45CHL1  H18A 5764   3.036   3.750   9.220  0.7387 -0.0899  0.6340
   45CHL1  H18B 5765   2.909   3.862   9.272 -0.9307 -0.8339  0.4370
   45CHL1  H18C 5766   3.053   3.837   9.370  1.4783 -0.6748 -0.5303
   45CHL1   C12 5767   2.830   3.736   9.509 -0.4282 -0.5638 -0.4410
   45CHL1  H12A 5768   2.906   3.797   9.563 -0.5182 -1.3918  0.6579
   45CHL1  H12B 5769   2.753   3.805   9.470 -1.2112 -0.5060  1.1293
   45CHL1   C11 5770   2.787   3.631   9.611  0.2201 -0.1595 -0.5066
   45CHL1  H11A 5771   2.754   3.687   9.701  0.4400 -1.5028  0.4351
   45CHL1  H11B 5772   2.704   3.565   9.576  0.7567  0.1826 -2.5616
   45CHL1    C9 5773   2.899   3.527   9.642 -0.0246  0.2590  0.0383
   45CHL1    H9 5774   2.836   3.446   9.686 -4.5506  2.1153 -2.3583
   45CHL1   C10 5775   2.987   3.566   9.764 -0.8630 -0.2120  0.1487
   45CHL1   C19 5776   3.045   3.708   9.756  1.2396  0.1479  0.0838
   45CHL1  H19A 5777   2.963   3.783   9.761  0.5840 -0.5820  0.4589
   45CHL1  H19B 5778   3.110   3.731   9.844  0.7433  0.1328  0.4615
   45CHL1  H19C 5779   3.093   3.724   9.658 -0.5221  1.4585 -0.6153
   45CHL1    C1 5780   2.903   3.564   9.898  0.7964  0.0348  0.3053
   45CHL1   H1A 5781   2.822   3.639   9.905 -0.4278 -1.2302  0.2847
   45CHL1   H1B 5782   2.849   3.467   9.899 -0.3371  0.5319 -2.4820
   45CHL1    C2 5783   2.983   3.580  10.032  0.1858  0.4812  0.3291
   45CHL1   H2A 5784   2.919   3.552  10.118  1.5982 -2.4387  0.5385
   45CHL1   H2B 5785   3.031   3.680  10.038  0.1239  0.5126  0.3028
   45CHL1   C20 5786   2.699   3.704   9.220 -0.0391 -0.2874  0.2932
   45CHL1   H20 5787   2.700   3.805   9.266 -1.1598 -0.2621  0.3008
   45CHL1   C21 5788   2.566   3.661   9.286 -0.2624 -0.3761  0.5292
   45CHL1  H21A 5789   2.570   3.692   9.393  2.1195  3.3700 -0.4660
   45CHL1  H21B 5790   2.560   3.550   9.283  0.6790 -0.4189 -0.2734
   45CHL1  H21C 5791   2.477   3.708   9.240  1.8796  1.7177 -1.7246
   45CHL1   C22 5792   2.686   3.716   9.066  0.9472 -0.5388  0.2850
   45CHL1  H22A 5793   2.692   3.615   9.021  0.0907 -1.8350  2.8842
   45CHL1  H22B 5794   2.581   3.747   9.052  0.1522 -1.3507  3.5671
   45CHL1   C23 5795   2.787   3.819   9.004  0.0273  0.8104 -0.0068
   45CHL1  H23A 5796   2.766   3.919   9.049  1.1534  0.2377  1.8756
   45CHL1  H23B 5797   2.893   3.803   9.031  0.6660 -0.0441 -2.7184
   45CHL1   C24 5798   2.803   3.818   8.849  0.1051  0.6332 -0.1316
   45CHL1  H24A 5799   2.837   3.717   8.819  0.5768 -1.0574  5.0300
   45CHL1  H24B 5800   2.702   3.829   8.806 -0.6742  0.2526  1.5252
   45CHL1   C25 5801   2.894   3.920   8.785 -0.1094  0.8683  0.2406
   45CHL1   H25 5802   2.936   3.870   8.695 -0.8264  0.7168 -0.0110
   45CHL1   C26 5803   2.841   4.048   8.740  0.4031  0.0531 -0.1898
   45CHL1  H26A 5804   2.749   4.032   8.679  1.0500  0.1008 -1.2011
   45CHL1  H26B 5805   2.793   4.101   8.825  1.7989 -0.5509  1.0211
   45CHL1  H26C 5806   2.918   4.108   8.686  0.0425  1.3325  0.6950
   45CHL1   C27 5807   3.017   3.950   8.876  0.2640  0.7346 -0.3427
   45CHL1  H27A 5808   3.093   4.010   8.823  3.4740 -1.9182  0.9336
   45CHL1  H27B 5809   2.983   4.012   8.962  2.0965 -0.1639  1.1109
   45CHL1  H27C 5810   3.056   3.854   8.917 -2.5745  0.1259  1.2658
   46CHL1    C3 5811   6.780   1.004   9.987 -0.2202  0.2066  0.0280
   46CHL1    H3 5812   6.741   1.108   9.981 -0.3950  0.2351  1.3237
   46CHL1    O3 5813   6.826   0.999  10.119  0.3673  0.0094  0.4225
   46CHL1   H3' 5814   6.804   0.915  10.161 -2.0363  1.0654  1.4363
   46CHL1    C4 5815   6.670   0.897   9.964 -1.1363 -0.1525  0.0883
   46CHL1   H4A 5816   6.712   0.800   9.997 -0.6601 -0.0669 -0.2550
   46CHL1   H4B 5817   6.595   0.907  10.045  1.6201  0.5378  2.7437
   46CHL1    C5 5818   6.618   0.884   9.825  0.5104  0.1803  0.0703
   46CHL1    C6 5819   6.491   0.901   9.788 -0.0200  0.3702  0.4132
   46CHL1    H6 5820   6.423   0.937   9.866  0.6769  2.4193  0.1466
   46CHL1    C7 5821   6.443   0.880   9.648  0.1058 -0.1006 -0.0587
   46CHL1   H7A 5822   6.361   0.805   9.648 -0.7030  0.7674  0.2327
   46CHL1   H7B 5823   6.408   0.980   9.614  1.7308  0.5109 -0.0410
   46CHL1    C8 5824   6.547   0.811   9.551  0.1257  0.3038  0.0870
   46CHL1    H8 5825   6.553   0.703   9.574 -1.1862  0.5442  1.7815
   46CHL1   C14 5826   6.496   0.830   9.403  0.1946  0.0628 -0.1737
   46CHL1   H14 5827   6.495   0.941   9.401 -2.3568  0.0962 -0.2079
   46CHL1   C15 5828   6.355   0.787   9.369  0.4334  0.7268 -0.6913
   46CHL1  H15A 5829   6.331   0.680   9.390  3.4138  0.1212  0.0784
   46CHL1  H15B 5830   6.276   0.846   9.419 -0.9857  0.2082 -2.2125
   46CHL1   C16 5831   6.361   0.809   9.221  0.3650  0.7189  0.9447
   46CHL1  H16A 5832   6.326   0.722   9.161  0.0173  0.6873  1.1905
   46CHL1  H16B 5833   6.294   0.892   9.191 -0.1166 -0.8548 -2.9663
   46CHL1   C17 5834   6.510   0.824   9.175  0.0114  0.5428 -0.5542
   46CHL1   H17 5835   6.537   0.932   9.172 -1.1303  1.0164  2.7204
   46CHL1   C13 5836   6.586   0.776   9.300  0.1116 -0.6396  0.1159
   46CHL1   C18 5837   6.602   0.624   9.303  0.4325 -0.0906 -0.2340
   46CHL1  H18A 5838   6.646   0.603   9.403  0.4490  1.3877  0.0954
   46CHL1  H18B 5839   6.506   0.572   9.282  0.2447  0.0356  0.3012
   46CHL1  H18C 5840   6.669   0.589   9.222 -0.2266 -0.5555 -0.5874
   46CHL1   C12 5841   6.723   0.843   9.313 -1.0092 -0.1323  0.8432
   46CHL1  H12A 5842   6.791   0.784   9.249 -1.9628 -1.4083  0.9677
   46CHL1  H12B 5843   6.721   0.945   9.268  1.3600  0.2283  1.3856
   46CHL1   C11 5844   6.785   0.846   9.455 -0.1730  0.7328 -0.2420
   46CHL1  H11A 5845   6.829   0.748   9.486  0.2031  1.1015  0.4173
   46CHL1  H11B 5846   6.863   0.924   9.462  0.6421 -0.1599  1.4147
   46CHL1    C9 5847   6.684   0.877   9.566 -0.8103 -0.6980 -0.1500
   46CHL1    H9 5848   6.664   0.986   9.564 -1.0342 -0.6946  1.5151
   46CHL1   C10 5849   6.727   0.857   9.716  0.5361  0.7474 -0.2057
   46CHL1   C19 5850   6.785   0.714   9.738 -0.0815  0.5573  0.0871
   46CHL1  H19A 5851   6.853   0.670   9.662 -1.3305 -1.3537  0.0141
   46CHL1  H19B 5852   6.836   0.708   9.837  0.2983 -2.1915 -0.2214
   46CHL1  H19C 5853   6.709   0.636   9.759  2.0438 -1.3466  1.1218
   46CHL1    C1 5854   6.843   0.956   9.743  0.6671  0.7639 -0.0047
   46CHL1   H1A 5855   6.932   0.936   9.680  0.9712  1.3616  0.2215
   46CHL1   H1B 5856   6.805   1.058   9.720 -1.6962 -0.4954 -2.1657
   46CHL1    C2 5857   6.899   0.966   9.888  0.9007  0.3663  0.0916
   46CHL1   H2A 5858   6.965   1.053   9.909  0.3105  0.7480  0.4043
   46CHL1   H2B 5859   6.945   0.871   9.922  0.2193 -0.6613 -1.7335
   46CHL1   C20 5860   6.562   0.769   9.040  0.5181  0.5261  0.1350
   46CHL1   H20 5861   6.673   0.767   9.053  0.2787 -0.9608  2.7413
   46CHL1   C21 5862   6.542   0.876   8.935  0.4961 -0.3521 -0.0503
   46CHL1  H21A 5863   6.463   0.834   8.869  0.6277  0.4285 -0.7300
   46CHL1  H21B 5864   6.639   0.892   8.882  1.0668  1.7418  1.5111
   46CHL1  H21C 5865   6.517   0.976   8.976 -1.2142  0.0432 -1.8946
   46CHL1   C22 5866   6.508   0.633   8.988  0.6220  0.0210  1.0534
   46CHL1  H22A 5867   6.511   0.559   9.071  0.3028  0.3148  1.3365
   46CHL1  H22B 5868   6.403   0.651   8.955  1.2961  0.0689 -1.2449
   46CHL1   C23 5869   6.590   0.577   8.870  0.5923  0.5351 -0.0390
   46CHL1  H23A 5870   6.606   0.649   8.786  1.1571 -0.2178 -0.5887
   46CHL1  H23B 5871   6.695   0.568   8.907  1.0861  0.4349 -1.4045
   46CHL1   C24 5872   6.537   0.444   8.814  0.1820  0.1233  0.4630
   46CHL1  H24A 5873   6.493   0.393   8.903 -1.4881  2.7576  1.2421
   46CHL1  H24B 5874   6.451   0.463   8.747 -0.6259 -0.2526  1.3663
   46CHL1   C25 5875   6.644   0.355   8.745 -0.7400 -0.2224  0.3463
   46CHL1   H25 5876   6.726   0.336   8.817  0.8930  1.5919 -0.9462
   46CHL1   C26 5877   6.604   0.220   8.698 -0.1582 -0.3782  1.0636
   46CHL1  H26A 5878   6.519   0.228   8.626  0.6299 -0.0558  0.1575
   46CHL1  H26B 5879   6.685   0.161   8.651 -1.0116  0.2151 -1.2919
   46CHL1  H26C 5880   6.572   0.163   8.788  2.4381 -1.8626  1.1522
   46CHL1   C27 5881   6.706   0.433   8.628  0.0558 -0.0732  0.7116
   46CHL1  H27A 5882   6.722   0.539   8.660 -0.3292  1.2003 -2.8567
   46CHL1  H27B 5883   6.794   0.375   8.591  0.8303  2.0177 -1.0088
   46CHL1  H27C 5884   6.628   0.435   8.549 -0.5768  1.2531  1.3460
   47CHL1    C3 5885   5.778   5.654  10.302 -0.4105  1.0406  0.3059
   47CHL1    H3 5886   5.725   5.742  10.260 -0.2971  0.5993 -0.8014
   47CHL1    O3 5887   5.769   5.653  10.439 -0.2435 -0.3698 -0.3079
   47CHL1   H3' 5888   5.776   5.561  10.467 -1.3050 -0.2653  0.3306
   47CHL1    C4 5889   5.714   5.522  10.250  0.2567  0.3550  0.3030
   47CHL1   H4A 5890   5.763   5.430  10.290 -2.0663 -1.5528 -0.9591
   47CHL1   H4B 5891   5.610   5.508  10.287 -0.3650  0.5954 -1.2587
   47CHL1    C5 5892   5.728   5.521  10.097 -0.1309  0.2339  0.4091
   47CHL1    C6 5893   5.619   5.515  10.017  0.2527  0.0687  0.3867
   47CHL1    H6 5894   5.515   5.506  10.054  0.2999 -1.0031  0.3087
   47CHL1    C7 5895   5.625   5.494   9.869 -0.0327 -0.0878  0.1385
   47CHL1   H7A 5896   5.555   5.416   9.830 -1.7320  0.5864  1.7032
   47CHL1   H7B 5897   5.579   5.584   9.822  0.3154  0.4672  0.8388
   47CHL1    C8 5898   5.763   5.484   9.804 -0.3313  0.1430  0.1315
   47CHL1    H8 5899   5.793   5.377   9.815 -3.1308 -0.7099  0.5011
   47CHL1   C14 5900   5.768   5.518   9.658 -0.0805  0.1171 -0.3377
   47CHL1   H14 5901   5.738   5.625   9.647 -2.9267 -0.6171 -0.4485
   47CHL1   C15 5902   5.672   5.438   9.570  0.0523  0.3204 -0.5035
   47CHL1  H15A 5903   5.671   5.330   9.599 -2.4846 -0.4176 -2.8872
   47CHL1  H15B 5904   5.567   5.470   9.586 -0.8438 -2.2447 -0.6789
   47CHL1   C16 5905   5.720   5.465   9.427 -0.6371  0.4347 -0.4738
   47CHL1  H16A 5906   5.719   5.362   9.387 -0.9409  0.2819 -0.0800
   47CHL1  H16B 5907   5.659   5.532   9.364  0.4196  1.4955 -0.4062
   47CHL1   C17 5908   5.861   5.527   9.445  0.2353 -0.5412 -0.1592
   47CHL1   H17 5909   5.844   5.637   9.439 -2.3342 -0.6359  2.9930
   47CHL1   C13 5910   5.904   5.498   9.592 -0.0476  0.6011  0.7512
   47CHL1   C18 5911   5.951   5.349   9.603  0.0088 -0.0348 -0.1369
   47CHL1  H18A 5912   5.971   5.320   9.708  0.9185  0.2838 -0.2038
   47CHL1  H18B 5913   5.882   5.289   9.540  0.6606 -0.1177 -0.7943
   47CHL1  H18C 5914   6.051   5.345   9.553  0.7117  0.6105  1.1789
   47CHL1   C12 5915   5.997   5.602   9.669 -0.4510  1.1305 -0.5610
   47CHL1  H12A 5916   6.100   5.613   9.631 -0.6446  0.0760 -1.4462
   47CHL1  H12B 5917   5.946   5.699   9.654 -1.6189  1.5037  4.1924
   47CHL1   C11 5918   6.005   5.570   9.818 -0.4177  0.2099 -0.1305
   47CHL1  H11A 5919   6.055   5.472   9.832  0.5671  0.7061 -0.0437
   47CHL1  H11B 5920   6.073   5.645   9.863  1.1083 -0.5745 -1.0267
   47CHL1    C9 5921   5.864   5.571   9.886  0.5087  0.0637  0.2016
   47CHL1    H9 5922   5.817   5.671   9.872  0.7452  0.1921  0.3344
   47CHL1   C10 5923   5.871   5.542  10.040 -0.3054 -0.2954  0.1831
   47CHL1   C19 5924   5.947   5.410  10.067  0.1743  0.1041 -0.9374
   47CHL1  H19A 5925   6.053   5.424  10.037  0.3365  0.4044 -0.2540
   47CHL1  H19B 5926   5.952   5.384  10.175  0.4259  0.0646 -0.9561
   47CHL1  H19C 5927   5.911   5.325  10.005  1.0266 -1.3168  0.4378
   47CHL1    C1 5928   5.952   5.644  10.122 -0.0158 -0.3523  0.3309
   47CHL1   H1A 5929   6.060   5.627  10.107  0.0100  0.3376 -0.3478
   47CHL1   H1B 5930   5.926   5.742  10.075 -0.2480 -1.9966 -3.3522
   47CHL1    C2 5931   5.923   5.657  10.271  0.6897  0.4641 -0.1349
   47CHL1   H2A 5932   5.983   5.740  10.313  1.7998 -0.2401 -0.2796
   47CHL1   H2B 5933   5.977   5.569  10.313 -1.3177 -0.6439  0.2264
   47CHL1   C20 5934   5.952   5.494   9.325 -0.1678  0.0032 -0.1532
   47CHL1   H20 5935   5.984   5.387   9.327  1.0766  0.2449 -2.5645
   47CHL1   C21 5936   6.064   5.600   9.326 -0.2293  0.5492 -0.5252
   47CHL1  H21A 5937   6.109   5.610   9.427 -1.0315  0.7604 -0.1786
   47CHL1  H21B 5938   6.010   5.695   9.304 -0.0533  0.9328  0.6485
   47CHL1  H21C 5939   6.151   5.575   9.261 -1.5747 -3.6370 -1.0077
   47CHL1   C22 5940   5.869   5.501   9.191  0.2499 -0.6708  0.1432
   47CHL1  H22A 5941   5.787   5.427   9.200  0.5701 -0.7236  4.3810
   47CHL1  H22B 5942   5.810   5.594   9.181 -0.6649 -1.3716 -1.3934
   47CHL1   C23 5943   5.956   5.464   9.072 -0.6587  0.2238 -0.5253
   47CHL1  H23A 5944   6.032   5.542   9.050 -1.5691  1.3126  0.0887
   47CHL1  H23B 5945   6.012   5.371   9.097  1.4150  1.6589  0.5588
   47CHL1   C24 5946   5.870   5.453   8.951 -0.1275  0.2495 -0.3719
   47CHL1  H24A 5947   5.780   5.391   8.970 -0.4340  0.7398 -0.2062
   47CHL1  H24B 5948   5.843   5.557   8.923  2.1085  1.1482  0.5805
   47CHL1   C25 5949   5.945   5.392   8.830  0.1314 -0.1379  0.9101
   47CHL1   H25 5950   5.995   5.297   8.859  0.2946 -0.2591  0.2417
   47CHL1   C26 5951   5.842   5.352   8.720  0.2200 -0.7317 -0.0712
   47CHL1  H26A 5952   5.881   5.275   8.650  0.5760 -2.6486  2.1253
   47CHL1  H26B 5953   5.810   5.445   8.667  0.4372 -0.0277  1.0034
   47CHL1  H26C 5954   5.753   5.302   8.762 -1.9946  1.4977 -1.7557
   47CHL1   C27 5955   6.054   5.488   8.768  0.1718  0.4513 -0.2677
   47CHL1  H27A 5956   6.086   5.436   8.674  0.9606 -0.4438  0.4696
   47CHL1  H27B 5957   6.021   5.589   8.739  0.3506  0.3624 -0.7955
   47CHL1  H27C 5958   6.141   5.505   8.835 -0.8165 -0.3887  1.2920
   48CHL1    C3 5959   1.017   2.776  10.032 -0.3785  0.3393  0.5538
   48CHL1    H3 5960   0.946   2.693  10.010  0.2342 -0.7473  2.4967
   48CHL1    O3 5961   1.029   2.808  10.167 -0.2128  0.1547 -0.4995
   48CHL1   H3' 5962   0.942   2.840  10.192 -0.5256  0.7367 -2.1916
   48CHL1    C4 5963   1.163   2.736   9.988  0.2449  0.2578  1.1267
   48CHL1   H4A 5964   1.223   2.827  10.011 -0.3472  0.8931  0.2111
   48CHL1   H4B 5965   1.203   2.641  10.030  1.0898 -0.3677 -0.9823
   48CHL1    C5 5966   1.160   2.715   9.838  0.9777 -1.1176  0.0541
   48CHL1    C6 5967   1.187   2.591   9.785 -0.7660 -0.1692  0.3905
   48CHL1    H6 5968   1.221   2.507   9.848  2.4628  0.4484 -0.3253
   48CHL1    C7 5969   1.199   2.578   9.638  0.2424  0.2615 -0.7712
   48CHL1   H7A 5970   1.297   2.528   9.621 -0.1870 -1.3580  1.1614
   48CHL1   H7B 5971   1.111   2.516   9.607 -0.3994  1.6520 -1.8309
   48CHL1    C8 5972   1.190   2.696   9.545 -0.6365 -1.0299 -0.2037
   48CHL1    H8 5973   1.284   2.754   9.531 -0.1093 -1.7906  0.1248
   48CHL1   C14 5974   1.141   2.648   9.406 -0.1459  0.1139  0.8959
   48CHL1   H14 5975   1.036   2.614   9.421 -0.4163 -0.4632 -1.6928
   48CHL1   C15 5976   1.216   2.535   9.336 -0.0779  0.2193  0.2850
   48CHL1  H15A 5977   1.323   2.560   9.352 -0.4542  1.1280  1.4190
   48CHL1  H15B 5978   1.179   2.433   9.362  1.5247 -0.2486  0.9165
   48CHL1   C16 5979   1.186   2.554   9.185  0.1758 -0.0718  0.5314
   48CHL1  H16A 5980   1.283   2.574   9.134 -0.8938 -0.2584 -1.6996
   48CHL1  H16B 5981   1.148   2.463   9.134  2.1244 -1.0486  0.7316
   48CHL1   C17 5982   1.094   2.676   9.175 -0.5968 -1.1871 -0.1372
   48CHL1   H17 5983   0.991   2.635   9.176 -0.5937 -1.1918 -0.0160
   48CHL1   C13 5984   1.116   2.759   9.302  0.2047  0.5315 -0.3092
   48CHL1   C18 5985   1.239   2.840   9.275  0.2803  0.1768 -0.2640
   48CHL1  H18A 5986   1.294   2.865   9.369  1.9011 -2.6455 -0.3540
   48CHL1  H18B 5987   1.316   2.779   9.224  0.5270  0.0394  0.2568
   48CHL1  H18C 5988   1.211   2.928   9.213  0.9784  1.1444  0.7302
   48CHL1   C12 5989   1.003   2.848   9.357 -0.2334  0.0815  0.1081
   48CHL1  H12A 5990   0.979   2.937   9.295 -0.4161 -0.2365 -0.2854
   48CHL1  H12B 5991   0.905   2.795   9.357 -1.8039  2.7685 -0.7563
   48CHL1   C11 5992   1.042   2.903   9.495  0.5391  0.6975 -0.4777
   48CHL1  H11A 5993   1.129   2.971   9.486 -0.4552  2.0528 -0.0821
   48CHL1  H11B 5994   0.952   2.950   9.540  0.3484 -1.3898  1.5446
   48CHL1    C9 5995   1.083   2.784   9.598 -0.1981 -0.4106  0.9890
   48CHL1    H9 5996   0.990   2.722   9.604 -1.5046  1.3193 -0.2437
   48CHL1   C10 5997   1.107   2.834   9.744  0.3314  0.1902 -0.1319
   48CHL1   C19 5998   1.214   2.943   9.748  0.0700 -0.2799  0.2333
   48CHL1  H19A 5999   1.308   2.915   9.696  0.4452  0.4689  0.4817
   48CHL1  H19B 6000   1.181   3.043   9.712 -0.0634 -0.4318 -0.0667
   48CHL1  H19C 6001   1.243   2.969   9.853  2.2731  1.5897 -0.7526
   48CHL1    C1 6002   0.968   2.886   9.802  0.4207 -0.7835 -0.8572
   48CHL1   H1A 6003   0.934   2.973   9.743  1.4380  0.5132  0.4220
   48CHL1   H1B 6004   0.893   2.808   9.777 -3.2145  2.6871 -1.7593
   48CHL1    C2 6005   0.966   2.909   9.954 -0.3469 -0.8270  0.4462
   48CHL1   H2A 6006   0.866   2.933   9.996  0.1867  0.0513  1.2552
   48CHL1   H2B 6007   1.035   2.989   9.987 -3.5831  1.8403  1.1425
   48CHL1   C20 6008   1.101   2.751   9.038  0.0646 -0.1343 -1.2315
   48CHL1   H20 6009   1.196   2.806   9.024 -0.1178  0.4694 -0.1999
   48CHL1   C21 6010   0.994   2.864   9.041  0.5022  0.4103  0.2084
   48CHL1  H21A 6011   1.028   2.947   9.106  1.7124  0.6225 -0.6840
   48CHL1  H21B 6012   0.899   2.820   9.081  0.4873 -0.1148 -0.3920
   48CHL1  H21C 6013   0.972   2.908   8.942 -0.0410  0.5022  0.3650
   48CHL1   C22 6014   1.077   2.664   8.918 -0.2872 -0.4201  0.1453
   48CHL1  H22A 6015   1.148   2.579   8.923  0.1797 -0.1189 -1.0380
   48CHL1  H22B 6016   0.969   2.640   8.920  0.2270 -2.9889 -0.1992
   48CHL1   C23 6017   1.117   2.731   8.781  0.8528  0.4700 -0.2804
   48CHL1  H23A 6018   1.049   2.815   8.756 -0.2364 -0.8429 -1.9375
   48CHL1  H23B 6019   1.216   2.767   8.818  0.5286  1.9675 -0.7949
   48CHL1   C24 6020   1.138   2.623   8.675  0.0879  0.1990  0.7320
   48CHL1  H24A 6021   1.228   2.559   8.689 -0.6924 -1.2158 -0.4847
   48CHL1  H24B 6022   1.046   2.561   8.668  1.9103 -2.5244 -1.4767
   48CHL1   C25 6023   1.160   2.678   8.530 -0.7602  0.1716  0.0666
   48CHL1   H25 6024   1.196   2.594   8.468 -1.4164  0.6155 -0.9587
   48CHL1   C26 6025   1.035   2.723   8.465 -0.4568 -0.1749 -0.4851
   48CHL1  H26A 6026   0.959   2.642   8.458 -1.7496  1.0614 -1.3494
   48CHL1  H26B 6027   1.001   2.801   8.538 -3.3539 -1.9202  0.1954
   48CHL1  H26C 6028   1.049   2.773   8.367 -1.6610  2.3118  0.5039
   48CHL1   C27 6029   1.265   2.786   8.547 -0.2254 -0.3538 -0.4060
   48CHL1  H27A 6030   1.227   2.877   8.597  1.1079 -0.2028  0.3619
   48CHL1  H27B 6031   1.358   2.752   8.597 -1.6804 -0.3831  2.4799
   48CHL1  H27C 6032   1.290   2.831   8.448  2.0005  1.2995  0.8188
   49CHL1    C3 6033   4.929   2.932  10.001  0.4912 -0.5306 -0.3066
   49CHL1    H3 6034   5.029   2.981   9.999  1.1566 -1.8283 -0.3593
   49CHL1    O3 6035   4.892   2.914  10.133 -0.2712 -0.0934  0.0360
   49CHL1   H3' 6036   4.802   2.879  10.133 -0.4589  0.3573  0.9708
   49CHL1    C4 6037   4.808   3.008   9.929 -0.5963 -0.1475 -0.3549
   49CHL1   H4A 6038   4.715   2.948   9.939 -0.6560 -0.0468 -0.3048
   49CHL1   H4B 6039   4.785   3.102   9.983 -1.5628 -0.3646 -0.3788
   49CHL1    C5 6040   4.832   3.031   9.779 -0.2259 -0.2996 -0.1356
   49CHL1    C6 6041   4.812   3.151   9.726 -0.5409 -0.0108  0.4538
   49CHL1    H6 6042   4.775   3.240   9.780  0.2009  1.2861 -1.0970
   49CHL1    C7 6043   4.833   3.179   9.581  0.2946  0.5803 -0.2889
   49CHL1   H7A 6044   4.755   3.248   9.543 -1.1374 -1.3984 -1.0735
   49CHL1   H7B 6045   4.933   3.221   9.558  0.5939 -0.0979 -0.2412
   49CHL1    C8 6046   4.833   3.062   9.486 -0.3230  0.5309  0.5198
   49CHL1    H8 6047   4.734   3.012   9.482 -1.1234  2.1347 -0.8344
   49CHL1   C14 6048   4.882   3.104   9.349 -0.0239 -0.0149 -0.4129
   49CHL1   H14 6049   4.986   3.144   9.350 -0.0682  0.3114 -2.6706
   49CHL1   C15 6050   4.805   3.203   9.273  0.0898  0.0761  0.1844
   49CHL1  H15A 6051   4.696   3.183   9.276  0.0180  0.4234 -0.0011
   49CHL1  H15B 6052   4.822   3.307   9.309 -1.5748  0.6079 -0.4546
   49CHL1   C16 6053   4.848   3.181   9.119 -0.7844 -0.4261  0.1859
   49CHL1  H16A 6054   4.757   3.151   9.062 -0.7600 -1.0234  0.4585
   49CHL1  H16B 6055   4.891   3.272   9.072 -0.1083 -1.0434 -0.4045
   49CHL1   C17 6056   4.947   3.059   9.124 -0.2189 -0.3728  0.3122
   49CHL1   H17 6057   5.047   3.103   9.146 -0.8602  0.9514  0.6511
   49CHL1   C13 6058   4.899   2.983   9.250  0.3836 -0.0972 -0.3819
   49CHL1   C18 6059   4.763   2.913   9.226  0.3874  0.0407  0.7313
   49CHL1  H18A 6060   4.689   2.986   9.187  0.0231 -0.2754  0.8128
   49CHL1  H18B 6061   4.765   2.828   9.154  2.1868 -0.1058  0.9046
   49CHL1  H18C 6062   4.720   2.860   9.314  2.1295  1.2089  2.3494
   49CHL1   C12 6063   5.001   2.886   9.305  0.5900  0.2332 -0.1885
   49CHL1  H12A 6064   5.016   2.797   9.239  1.0146  0.4709 -0.4227
   49CHL1  H12B 6065   5.097   2.943   9.306  1.6465 -1.4606  0.5770
   49CHL1   C11 6066   4.967   2.841   9.454 -0.3662 -0.3435 -0.4582
   49CHL1  H11A 6067   4.884   2.767   9.450  2.1961 -3.5577  1.0433
   49CHL1  H11B 6068   5.058   2.785   9.485 -0.6221 -0.4288  0.1432
   49CHL1    C9 6069   4.932   2.954   9.552  0.1754  1.0954 -0.1916
   49CHL1    H9 6070   5.024   3.009   9.582  0.9032 -0.2701  0.1882
   49CHL1   C10 6071   4.880   2.905   9.701  0.2964 -0.2359 -0.1692
   49CHL1   C19 6072   4.756   2.806   9.688  0.3815  0.5529  0.1708
   49CHL1  H19A 6073   4.786   2.711   9.639 -1.5389 -0.4509  0.8606
   49CHL1  H19B 6074   4.710   2.786   9.787  0.0317  0.6617  0.0328
   49CHL1  H19C 6075   4.675   2.849   9.625 -2.7745 -2.7918  1.5761
   49CHL1    C1 6076   4.982   2.815   9.782 -0.3459  0.0703 -0.4108
   49CHL1   H1A 6077   4.995   2.719   9.727  1.6901  1.1063 -1.8561
   49CHL1   H1B 6078   5.083   2.860   9.776 -0.2352 -0.0320  0.5504
   49CHL1    C2 6079   4.951   2.795   9.934  0.1779 -0.0942  0.6697
   49CHL1   H2A 6080   5.033   2.749   9.994 -0.1010  1.4462  2.3210
   49CHL1   H2B 6081   4.853   2.746   9.947 -0.5370  0.7735 -1.0626
   49CHL1   C20 6082   4.962   2.981   8.996  0.6009 -0.3421 -0.1559
   49CHL1   H20 6083   4.880   2.907   8.991  0.4941 -0.3488  1.2992
   49CHL1   C21 6084   5.094   2.908   8.999 -0.9806 -0.3295  0.2762
   49CHL1  H21A 6085   5.181   2.977   9.005 -0.3955 -0.6705 -2.7002
   49CHL1  H21B 6086   5.100   2.835   8.915  0.7246  0.3530 -0.2387
   49CHL1  H21C 6087   5.111   2.859   9.098 -1.1837 -0.7562  0.1020
   49CHL1   C22 6088   4.955   3.076   8.876 -0.0434  0.2106 -0.7778
   49CHL1  H22A 6089   4.856   3.125   8.871 -0.6556 -1.0662 -2.1385
   49CHL1  H22B 6090   5.039   3.147   8.863  0.9460 -0.5604  1.0297
   49CHL1   C23 6091   4.945   2.996   8.746 -0.7900  0.4933  0.3266
   49CHL1  H23A 6092   5.034   2.933   8.724 -2.3082 -1.3163 -0.9781
   49CHL1  H23B 6093   4.859   2.926   8.758  0.4964 -1.3520 -0.6627
   49CHL1   C24 6094   4.919   3.098   8.631  0.2194  0.5666 -0.2889
   49CHL1  H24A 6095   4.829   3.163   8.646 -0.1527 -0.2317  1.0062
   49CHL1  H24B 6096   5.004   3.169   8.641  1.6426 -1.1785  0.5256
   49CHL1   C25 6097   4.918   3.047   8.490  0.3955  0.1225  0.4964
   49CHL1   H25 6098   4.841   2.967   8.489 -0.6613  1.0910  1.5467
   49CHL1   C26 6099   4.877   3.163   8.403  0.3211  0.1734  0.0649
   49CHL1  H26A 6100   4.770   3.191   8.416  0.8214  2.9518 -1.0503
   49CHL1  H26B 6101   4.936   3.253   8.429  2.6592 -1.1232 -0.4212
   49CHL1  H26C 6102   4.900   3.131   8.299  0.7991 -1.2268  0.5851
   49CHL1   C27 6103   5.057   2.994   8.453 -1.1100 -0.2946 -0.5121
   49CHL1  H27A 6104   5.107   2.939   8.535 -1.3818 -2.3852 -1.6774
   49CHL1  H27B 6105   5.057   2.935   8.358  1.7215 -0.7973 -0.3007
   49CHL1  H27C 6106   5.119   3.086   8.441 -2.0274  0.4609  0.3562
   50CHL1    C3 6107   2.654   3.021  10.022  0.5572  0.2665  0.3495
   50CHL1    H3 6108   2.697   2.919  10.031  0.0437  0.1079  1.0866
   50CHL1    O3 6109   2.632   3.068  10.153  0.2742 -0.2442 -0.1484
   50CHL1   H3' 6110   2.651   2.995  10.212  0.5175  0.0357  0.1226
   50CHL1    C4 6111   2.762   3.104   9.947 -0.2544 -0.5728  0.1675
   50CHL1   H4A 6112   2.737   3.210   9.967 -0.7843 -0.8808  1.1801
   50CHL1   H4B 6113   2.860   3.087   9.997 -0.4430 -1.4244  0.2706
   50CHL1    C5 6114   2.764   3.060   9.795  0.3309 -0.6977 -1.4935
   50CHL1    C6 6115   2.881   3.020   9.739 -0.3147 -0.5039  0.0541
   50CHL1    H6 6116   2.968   3.015   9.807 -2.0515 -0.3393  2.4150
   50CHL1    C7 6117   2.900   2.985   9.591  0.2411 -0.0202  0.4758
   50CHL1   H7A 6118   2.995   3.024   9.548 -0.6185  1.3858 -0.1993
   50CHL1   H7B 6119   2.895   2.875   9.576  1.6411  0.1038 -1.2514
   50CHL1    C8 6120   2.787   3.049   9.507 -0.7822 -0.5645 -0.6543
   50CHL1    H8 6121   2.808   3.158   9.514  0.8058 -0.9459  1.8323
   50CHL1   C14 6122   2.792   2.992   9.369 -0.3551 -1.0346 -0.0058
   50CHL1   H14 6123   2.781   2.882   9.384 -2.4197 -0.7557  0.8922
   50CHL1   C15 6124   2.926   2.998   9.298  0.2736  0.8681  0.3398
   50CHL1  H15A 6125   2.985   3.091   9.314  1.0334  0.6601 -1.0610
   50CHL1  H15B 6126   2.978   2.906   9.332 -0.2299 -0.3528 -1.9569
   50CHL1   C16 6127   2.883   2.994   9.149  0.5531  0.2666  0.0417
   50CHL1  H16A 6128   2.900   3.097   9.112 -1.5470  0.8863  0.6819
   50CHL1  H16B 6129   2.936   2.914   9.092  1.1329  1.2031 -0.7582
   50CHL1   C17 6130   2.729   2.966   9.144 -0.6333  0.4623  1.2397
   50CHL1   H17 6131   2.714   2.856   9.151  0.6822  0.1621 -0.1203
   50CHL1   C13 6132   2.677   3.030   9.272  0.9607 -0.2572 -0.0859
   50CHL1   C18 6133   2.658   3.183   9.247 -0.1470 -0.3953  0.3763
   50CHL1  H18A 6134   2.676   3.244   9.339 -0.4357 -0.1111  0.2471
   50CHL1  H18B 6135   2.725   3.227   9.170 -2.4279 -0.3075 -1.6652
   50CHL1  H18C 6136   2.555   3.198   9.211  0.0408  1.1593  0.4042
   50CHL1   C12 6137   2.548   2.969   9.337  0.3067 -0.3111  0.3700
   50CHL1  H12A 6138   2.454   2.987   9.280  0.7678 -3.0408 -1.4163
   50CHL1  H12B 6139   2.574   2.862   9.348  3.4976  0.1567 -1.4124
   50CHL1   C11 6140   2.531   3.025   9.481 -0.0620 -0.7397  0.1580
   50CHL1  H11A 6141   2.501   3.132   9.476 -1.5557 -1.1138  0.5674
   50CHL1  H11B 6142   2.444   2.971   9.524 -1.4209 -0.1432 -1.7234
   50CHL1    C9 6143   2.655   3.011   9.575  0.1522  0.5010 -0.0852
   50CHL1    H9 6144   2.672   2.904   9.600  0.1108  0.7877  1.2511
   50CHL1   C10 6145   2.630   3.059   9.726 -0.2751 -0.5631  0.8428
   50CHL1   C19 6146   2.604   3.213   9.721  0.0891  0.3904  0.2878
   50CHL1  H19A 6147   2.517   3.238   9.656  0.3570  1.9370  0.4874
   50CHL1  H19B 6148   2.596   3.260   9.822 -1.0834  0.6282  0.1024
   50CHL1  H19C 6149   2.684   3.263   9.663  1.2436 -0.2923  1.2373
   50CHL1    C1 6150   2.532   2.966   9.800  0.0210  0.4263 -0.2238
   50CHL1   H1A 6151   2.431   2.965   9.753 -0.5457 -2.2225  0.8961
   50CHL1   H1B 6152   2.564   2.860   9.798 -2.9613 -0.6835  2.3152
   50CHL1    C2 6153   2.523   3.001   9.952 -0.2825  0.6601 -0.8607
   50CHL1   H2A 6154   2.472   2.918  10.004  1.4587 -0.6756 -1.1896
   50CHL1   H2B 6155   2.468   3.098   9.957 -0.1607  0.7190 -0.6802
   50CHL1   C20 6156   2.669   3.013   9.009  0.0416  0.3413 -0.0459
   50CHL1   H20 6157   2.688   3.122   8.997 -1.2019  0.7471  1.3966
   50CHL1   C21 6158   2.519   2.988   9.009 -0.1394 -0.3165 -0.1436
   50CHL1  H21A 6159   2.479   3.010   8.908 -0.3978  0.2190  0.0738
   50CHL1  H21B 6160   2.470   3.061   9.077  1.3726  0.2336  0.4038
   50CHL1  H21C 6161   2.494   2.882   9.035 -1.6368 -0.3572 -1.5904
   50CHL1   C22 6162   2.739   2.944   8.894 -0.4348  0.3748  0.8477
   50CHL1  H22A 6163   2.849   2.962   8.892 -0.6796  2.4658  2.4551
   50CHL1  H22B 6164   2.723   2.837   8.918 -1.8400  0.5421  0.7532
   50CHL1   C23 6165   2.688   2.986   8.756 -0.2329  0.5571  0.5277
   50CHL1  H23A 6166   2.581   2.988   8.727  0.3651 -1.7944 -2.2857
   50CHL1  H23B 6167   2.727   3.085   8.723  0.7234 -0.6742 -2.3124
   50CHL1   C24 6168   2.731   2.885   8.645 -0.8858  0.3556 -0.9809
   50CHL1  H24A 6169   2.842   2.895   8.646 -0.7231 -0.2060  2.8937
   50CHL1  H24B 6170   2.726   2.779   8.678 -2.5917  0.7409  0.1151
   50CHL1   C25 6171   2.660   2.905   8.517 -0.1556  0.3656  0.3672
   50CHL1   H25 6172   2.555   2.936   8.533 -1.2572 -2.4030 -0.8876
   50CHL1   C26 6173   2.720   3.023   8.434  0.7820 -0.0093 -0.0297
   50CHL1  H26A 6174   2.651   3.049   8.352  0.4859  3.0010  1.0417
   50CHL1  H26B 6175   2.716   3.118   8.491 -3.2135 -0.1350  0.1472
   50CHL1  H26C 6176   2.820   2.991   8.396  0.8066 -1.8433  1.4439
   50CHL1   C27 6177   2.671   2.775   8.435 -0.6105  0.3031 -0.6496
   50CHL1  H27A 6178   2.773   2.738   8.411 -0.7925 -1.7152  1.3203
   50CHL1  H27B 6179   2.631   2.696   8.502 -0.9419  0.1269 -1.0525
   50CHL1  H27C 6180   2.614   2.806   8.345 -0.1526  1.1257 -0.6580
   51CHL1    C3 6181   3.007   4.813  10.276 -0.0001 -0.6503 -0.3432
   51CHL1    H3 6182   3.097   4.767  10.231 -1.1862 -1.7820 -1.6623
   51CHL1    O3 6183   2.991   4.772  10.410 -0.9707  0.3986 -0.3438
   51CHL1   H3' 6184   2.915   4.820  10.445  0.3797  1.2927  1.5408
   51CHL1    C4 6185   3.041   4.966  10.255 -0.2321 -0.1752 -0.1170
   51CHL1   H4A 6186   2.965   5.021  10.315  1.9352  1.2572  1.4425
   51CHL1   H4B 6187   3.136   4.994  10.304  0.1204 -1.8972  0.2283
   51CHL1    C5 6188   3.043   5.008  10.107  0.1941  0.6550  0.6123
   51CHL1    C6 6189   3.156   5.059  10.059 -0.1000  0.0061  0.5127
   51CHL1    H6 6190   3.230   5.092  10.133 -0.0924 -0.0042  0.5105
   51CHL1    C7 6191   3.179   5.091   9.916 -0.3597 -0.1506 -0.0152
   51CHL1   H7A 6192   3.242   5.182   9.905 -0.9399  0.2713  0.1338
   51CHL1   H7B 6193   3.238   5.004   9.877  0.7374  0.1548  0.8927
   51CHL1    C8 6194   3.046   5.108   9.841  0.0875  0.8334  0.3786
   51CHL1    H8 6195   3.015   5.207   9.881  0.3428  0.9265  0.3440
   51CHL1   C14 6196   3.070   5.120   9.692  0.8105  0.0402  1.1068
   51CHL1   H14 6197   3.110   5.021   9.663  1.3098  0.6490 -0.3983
   51CHL1   C15 6198   3.174   5.218   9.653  0.3257  0.0576 -0.5991
   51CHL1  H15A 6199   3.176   5.311   9.714 -0.9841 -0.1430 -0.2246
   51CHL1  H15B 6200   3.275   5.172   9.659 -0.5605 -2.0036 -0.7765
   51CHL1   C16 6201   3.152   5.243   9.498  0.4561 -0.7021 -0.0429
   51CHL1  H16A 6202   3.131   5.352   9.493  0.4089 -0.7472 -1.0109
   51CHL1  H16B 6203   3.236   5.196   9.443  1.5026  0.2475  0.6992
   51CHL1   C17 6204   3.013   5.165   9.467 -0.4287 -0.1687 -0.2834
   51CHL1   H17 6205   3.046   5.068   9.425 -0.4372  0.0394 -0.7717
   51CHL1   C13 6206   2.946   5.151   9.608  0.0609  0.8216  0.0293
   51CHL1   C18 6207   2.886   5.282   9.648 -0.3515  0.1357 -0.3913
   51CHL1  H18A 6208   2.857   5.273   9.755  2.4953 -2.5576  0.3031
   51CHL1  H18B 6209   2.961   5.364   9.660  0.1265 -0.2798 -0.4972
   51CHL1  H18C 6210   2.805   5.303   9.575  0.9234 -1.7717 -2.4624
   51CHL1   C12 6211   2.850   5.034   9.631 -0.2076  0.2212 -0.2143
   51CHL1  H12A 6212   2.751   5.054   9.584 -0.5203 -1.9338 -0.5672
   51CHL1  H12B 6213   2.882   4.937   9.587  0.5921  0.2094  0.3776
   51CHL1   C11 6214   2.820   5.002   9.784  0.0659 -0.1117 -0.4294
   51CHL1  H11A 6215   2.751   5.078   9.826 -0.0226 -1.0447  1.2005
   51CHL1  H11B 6216   2.770   4.904   9.802 -3.1371  1.2058 -1.4840
   51CHL1    C9 6217   2.946   4.995   9.874  0.1478  0.4287  0.1361
   51CHL1    H9 6218   2.993   4.900   9.840  0.9162  1.2149 -1.0892
   51CHL1   C10 6219   2.921   4.970  10.028 -0.5259 -0.3460 -0.4398
   51CHL1   C19 6220   2.799   5.053  10.063 -0.3026  0.1190  0.1756
   51CHL1  H19A 6221   2.777   5.045  10.172  0.1277  0.1429  0.2684
   51CHL1  H19B 6222   2.817   5.158  10.032  1.3040  0.1448  1.0432
   51CHL1  H19C 6223   2.706   5.012  10.020  0.1448  1.1237 -1.8732
   51CHL1    C1 6224   2.887   4.818  10.055  0.1531 -0.7611  1.4902
   51CHL1   H1A 6225   2.794   4.793  10.001  0.9778 -0.8155  0.0552
   51CHL1   H1B 6226   2.961   4.756  10.000  0.4545  2.1962 -1.7392
   51CHL1    C2 6227   2.885   4.770  10.197  0.0067  0.2857  0.1295
   51CHL1   H2A 6228   2.871   4.660  10.190 -1.3116  0.5503 -2.4965
   51CHL1   H2B 6229   2.796   4.818  10.242 -0.4642  2.0475 -2.4692
   51CHL1   C20 6230   2.935   5.234   9.352 -0.6716  0.0453  0.2681
   51CHL1   H20 6231   2.921   5.341   9.378  0.0001 -0.3534  2.4442
   51CHL1   C21 6232   2.805   5.167   9.329  0.1605  0.1880  0.8164
   51CHL1  H21A 6233   2.760   5.181   9.229  0.4331 -2.2075  0.3103
   51CHL1  H21B 6234   2.726   5.209   9.395 -2.1238  0.8734 -2.1579
   51CHL1  H21C 6235   2.812   5.059   9.355 -1.2579 -0.3020 -0.6788
   51CHL1   C22 6236   3.014   5.247   9.220 -0.0633  0.0609 -0.2228
   51CHL1  H22A 6237   3.122   5.271   9.232  1.0402 -2.8280 -2.9844
   51CHL1  H22B 6238   3.012   5.151   9.163 -2.2172 -0.4970  0.7007
   51CHL1   C23 6239   2.960   5.350   9.123  0.1655 -0.0898  0.4794
   51CHL1  H23A 6240   2.854   5.324   9.102  0.1607 -1.7173  2.3156
   51CHL1  H23B 6241   2.969   5.451   9.169  2.3232  0.0340 -0.0914
   51CHL1   C24 6242   3.040   5.353   8.994 -0.6037  0.1661  0.8237
   51CHL1  H24A 6243   3.140   5.390   9.026  0.3054  0.5479 -2.1723
   51CHL1  H24B 6244   3.060   5.253   8.950 -0.5519  0.1358  0.9157
   51CHL1   C25 6245   2.993   5.445   8.881  0.6170  0.1108  0.3783
   51CHL1   H25 6246   2.954   5.539   8.926 -0.6687  0.0159 -0.5095
   51CHL1   C26 6247   3.104   5.486   8.773  0.3503  0.2938 -0.8822
   51CHL1  H26A 6248   3.063   5.552   8.694  1.6617  0.7725 -1.1820
   51CHL1  H26B 6249   3.177   5.547   8.831  0.7607  0.1125 -1.2031
   51CHL1  H26C 6250   3.160   5.399   8.732  0.2508 -0.0271 -0.3450
   51CHL1   C27 6251   2.878   5.375   8.799 -0.3648  0.0443  0.3245
   51CHL1  H27A 6252   2.783   5.374   8.857 -0.9860  0.4170 -0.6653
   51CHL1  H27B 6253   2.856   5.447   8.718 -1.2141 -2.4332 -1.7614
   51CHL1  H27C 6254   2.913   5.281   8.752  2.7784  1.5589 -0.6284
   52CHL1    C3 6255   4.778   3.972   9.995  0.0460 -0.0449 -0.6087
   52CHL1    H3 6256   4.768   3.862   9.984 -1.9436 -0.3512  2.9039
   52CHL1    O3 6257   4.812   3.995  10.132  0.3426  0.3409 -0.4542
   52CHL1   H3' 6258   4.834   4.088  10.140  2.7208 -0.2768  1.4079
   52CHL1    C4 6259   4.894   4.027   9.906 -0.5957 -0.1334 -0.3871
   52CHL1   H4A 6260   4.927   4.128   9.938  2.4233 -1.2941  0.5066
   52CHL1   H4B 6261   4.980   3.962   9.932  1.4307  1.4637 -2.6710
   52CHL1    C5 6262   4.862   4.028   9.756 -0.2735 -0.1895  0.4012
   52CHL1    C6 6263   4.949   3.969   9.670  0.8828  0.2573  0.2678
   52CHL1    H6 6264   5.042   3.918   9.701  0.5257  0.0080  0.9365
   52CHL1    C7 6265   4.938   3.969   9.523  0.1613 -0.0428 -0.6892
   52CHL1   H7A 6266   5.034   4.001   9.475  0.1263  1.2399  0.0368
   52CHL1   H7B 6267   4.908   3.869   9.486 -1.4740 -0.5834  1.8799
   52CHL1    C8 6268   4.827   4.063   9.471  0.5420 -0.3653 -0.6503
   52CHL1    H8 6269   4.860   4.168   9.478  1.5198 -0.6738 -0.5506
   52CHL1   C14 6270   4.777   4.025   9.326 -0.1754  0.0779  0.4256
   52CHL1   H14 6271   4.732   3.925   9.340 -1.0877  0.4644  0.3493
   52CHL1   C15 6272   4.876   3.987   9.217 -0.7966  0.1107 -0.4353
   52CHL1  H15A 6273   4.951   4.066   9.194 -1.0921 -0.2335 -2.9141
   52CHL1  H15B 6274   4.940   3.899   9.240  0.7622  0.6175 -2.5299
   52CHL1   C16 6275   4.789   3.967   9.092 -0.7538 -0.5702 -0.7703
   52CHL1  H16A 6276   4.832   4.002   8.996  1.5694 -2.3467 -0.4890
   52CHL1  H16B 6277   4.760   3.862   9.071  0.6795 -1.2646  0.5079
   52CHL1   C17 6278   4.650   4.030   9.129  0.0761 -0.2703  0.6225
   52CHL1   H17 6279   4.590   3.941   9.156 -0.7225  0.3715  1.0071
   52CHL1   C13 6280   4.671   4.108   9.254  0.1984  0.1767 -0.6025
   52CHL1   C18 6281   4.725   4.250   9.230  0.1297  0.3505 -0.0092
   52CHL1  H18A 6282   4.736   4.298   9.330 -1.8507  1.5378 -0.3028
   52CHL1  H18B 6283   4.822   4.238   9.178 -1.0067 -0.4781 -2.0810
   52CHL1  H18C 6284   4.660   4.305   9.158  2.2438 -0.2615 -2.5248
   52CHL1   C12 6285   4.552   4.123   9.350 -0.4620  0.6739  0.8194
   52CHL1  H12A 6286   4.492   4.207   9.308  0.8672  1.8959  1.2850
   52CHL1  H12B 6287   4.491   4.031   9.351 -1.4710  1.3329  1.2774
   52CHL1   C11 6288   4.584   4.150   9.501 -1.0192  0.4001 -0.3329
   52CHL1  H11A 6289   4.611   4.257   9.494 -1.0115  0.4613  0.5604
   52CHL1  H11B 6290   4.482   4.146   9.546 -1.6015  0.8893 -1.5482
   52CHL1    C9 6291   4.697   4.063   9.566  0.0801  0.0940  0.0698
   52CHL1    H9 6292   4.661   3.958   9.557  1.3941 -0.1802 -2.6825
   52CHL1   C10 6293   4.730   4.094   9.713 -0.1230  0.1909  0.4686
   52CHL1   C19 6294   4.749   4.244   9.713 -0.2441 -0.1729 -0.2444
   52CHL1  H19A 6295   4.649   4.292   9.711 -0.1241  0.0798 -1.1925
   52CHL1  H19B 6296   4.777   4.277   9.815  0.2124  2.6310 -1.1848
   52CHL1  H19C 6297   4.813   4.291   9.635 -2.3273  1.6639 -0.9726
   52CHL1    C1 6298   4.617   4.041   9.808 -0.5043  0.5085  0.1318
   52CHL1   H1A 6299   4.536   4.116   9.796 -0.1574  0.8901  0.1707
   52CHL1   H1B 6300   4.596   3.938   9.772  1.3593 -0.0964  0.6655
   52CHL1    C2 6301   4.643   4.045   9.956  0.0518 -0.4291 -0.3756
   52CHL1   H2A 6302   4.564   4.003  10.022  0.1789  1.4345  1.0436
   52CHL1   H2B 6303   4.657   4.151   9.987 -0.9153  0.4116 -2.5885
   52CHL1   C20 6304   4.577   4.102   9.007  1.1561  0.3524 -0.1133
   52CHL1   H20 6305   4.635   4.193   8.980  0.2010  0.5840 -1.4700
   52CHL1   C21 6306   4.430   4.141   9.046  0.6730  0.7697  0.2223
   52CHL1  H21A 6307   4.418   4.216   9.128 -0.9802 -1.5436  2.2377
   52CHL1  H21B 6308   4.375   4.051   9.080  3.4331 -0.9407  0.3674
   52CHL1  H21C 6309   4.378   4.181   8.955  1.5876  2.4971  0.4162
   52CHL1   C22 6310   4.580   4.004   8.883 -0.0878  0.4976 -0.1534
   52CHL1  H22A 6311   4.685   3.976   8.856 -0.3143 -0.1486 -0.4051
   52CHL1  H22B 6312   4.538   3.904   8.908 -0.7708  0.8722  0.1855
   52CHL1   C23 6313   4.509   4.037   8.758  0.0167 -0.5194 -0.0762
   52CHL1  H23A 6314   4.402   4.056   8.782 -0.0300 -0.7154 -0.1263
   52CHL1  H23B 6315   4.547   4.134   8.718  0.3257  0.9460  3.4082
   52CHL1   C24 6316   4.520   3.929   8.644  1.4115  0.1198  0.2011
   52CHL1  H24A 6317   4.623   3.915   8.605  1.8561  0.8658  1.0578
   52CHL1  H24B 6318   4.497   3.830   8.690  0.4801 -0.6437 -1.7931
   52CHL1   C25 6319   4.415   3.955   8.529 -0.4370  0.3589  0.4960
   52CHL1   H25 6320   4.310   3.947   8.565 -1.0484 -1.5848 -1.5289
   52CHL1   C26 6321   4.424   4.090   8.465 -0.3109 -0.0256  0.1745
   52CHL1  H26A 6322   4.518   4.121   8.414 -0.8889  0.5353 -0.5745
   52CHL1  H26B 6323   4.339   4.089   8.394 -3.2996  2.9938  3.2948
   52CHL1  H26C 6324   4.397   4.161   8.546 -0.6042 -1.0673  1.0114
   52CHL1   C27 6325   4.426   3.854   8.419 -0.1189  0.2181  0.1868
   52CHL1  H27A 6326   4.364   3.870   8.328 -0.0654  0.0501  0.1184
   52CHL1  H27B 6327   4.526   3.863   8.372  0.0816 -3.0220 -0.2462
   52CHL1  H27C 6328   4.409   3.749   8.450  2.3005 -0.5079 -0.6770
   53CHL1    C3 6329   6.190   2.734  10.148 -0.9903  0.0017 -0.2884
   53CHL1    H3 6330   6.082   2.715  10.136 -1.0042 -0.1547  0.0851
   53CHL1    O3 6331   6.214   2.761  10.284 -0.2727 -0.2847 -0.5129
   53CHL1   H3' 6332   6.297   2.808  10.296 -1.7613  1.8362  2.9053
   53CHL1    C4 6333   6.288   2.616  10.116  0.1304  0.1278 -0.2843
   53CHL1   H4A 6334   6.394   2.639  10.138  0.3491 -1.2475  0.2436
   53CHL1   H4B 6335   6.258   2.536  10.188 -0.5080  0.8571  0.2752
   53CHL1    C5 6336   6.264   2.584   9.972 -0.7069  0.2623  0.4679
   53CHL1    C6 6337   6.225   2.457   9.944 -0.5137  0.8249  0.3132
   53CHL1    H6 6338   6.208   2.374  10.015 -2.5125 -0.8166 -1.8995
   53CHL1    C7 6339   6.207   2.413   9.798  0.2711  0.1637 -0.7518
   53CHL1   H7A 6340   6.238   2.306   9.789  0.6950  0.0266  1.6635
   53CHL1   H7B 6341   6.108   2.405   9.748  0.5100 -1.2569 -1.0570
   53CHL1    C8 6342   6.289   2.505   9.692 -0.0179 -0.4426 -0.4537
   53CHL1    H8 6343   6.396   2.486   9.713 -0.4740 -0.4751  2.0975
   53CHL1   C14 6344   6.254   2.480   9.550  0.4104  0.1772 -0.2864
   53CHL1   H14 6345   6.150   2.515   9.538  0.7176  0.7739 -1.2823
   53CHL1   C15 6346   6.279   2.342   9.491 -0.2122 -0.0666 -0.4013
   53CHL1  H15A 6347   6.377   2.306   9.529 -0.4145 -0.2944 -0.0892
   53CHL1  H15B 6348   6.196   2.271   9.513 -1.3891  1.7236  1.2891
   53CHL1   C16 6349   6.292   2.361   9.342  0.4633 -0.3137  0.0009
   53CHL1  H16A 6350   6.391   2.317   9.318  0.8415 -0.7759  2.1300
   53CHL1  H16B 6351   6.214   2.306   9.285  0.2476 -0.7397  0.6905
   53CHL1   C17 6352   6.288   2.515   9.318  0.0313 -0.3431  0.9195
   53CHL1   H17 6353   6.180   2.533   9.297  0.1963 -2.4249 -2.5679
   53CHL1   C13 6354   6.329   2.575   9.444 -0.3359 -0.2284 -0.6140
   53CHL1   C18 6355   6.483   2.563   9.458 -0.4649 -0.4864  0.3971
   53CHL1  H18A 6356   6.542   2.630   9.393 -1.5820 -2.4094 -2.8667
   53CHL1  H18B 6357   6.521   2.570   9.563  1.2364  2.2466 -0.3183
   53CHL1  H18C 6358   6.521   2.465   9.421 -0.8171 -0.0443 -1.1614
   53CHL1   C12 6359   6.280   2.728   9.472  0.1372 -0.3285 -0.2632
   53CHL1  H12A 6360   6.328   2.805   9.409  0.1751  0.7077  0.9944
   53CHL1  H12B 6361   6.170   2.734   9.457 -0.0476 -0.7244  0.8488
   53CHL1   C11 6362   6.309   2.762   9.617 -0.5025 -0.1233 -0.0209
   53CHL1  H11A 6363   6.417   2.775   9.638 -0.9217  1.5117  1.4121
   53CHL1  H11B 6364   6.276   2.868   9.624  2.3416  0.8657 -0.5236
   53CHL1    C9 6365   6.260   2.661   9.723  0.6987  0.4830 -0.9686
   53CHL1    H9 6366   6.149   2.664   9.717  0.2362  0.6294  3.8819
   53CHL1   C10 6367   6.299   2.700   9.872  0.1138  0.2514  0.0172
   53CHL1   C19 6368   6.450   2.717   9.876  0.1034  0.3140 -0.4033
   53CHL1  H19A 6369   6.483   2.811   9.826  0.6643  0.9869  1.1639
   53CHL1  H19B 6370   6.485   2.723   9.982  2.4370  1.3299 -1.1581
   53CHL1  H19C 6371   6.495   2.625   9.833  0.4050 -0.3467  1.2583
   53CHL1    C1 6372   6.219   2.831   9.916 -0.8260 -0.0170  0.1193
   53CHL1   H1A 6373   6.266   2.918   9.864 -2.8621  1.0199 -0.0722
   53CHL1   H1B 6374   6.113   2.815   9.887 -0.9186 -0.9449  0.9316
   53CHL1    C2 6375   6.227   2.864  10.064 -0.1822  0.0109 -0.9038
   53CHL1   H2A 6376   6.165   2.950  10.097 -0.0431 -0.1431 -0.2149
   53CHL1   H2B 6377   6.330   2.892  10.095 -0.5982  1.1674 -0.4901
   53CHL1   C20 6378   6.350   2.572   9.191 -0.1377  0.0482  1.2715
   53CHL1   H20 6379   6.454   2.604   9.212  1.5711 -1.4267 -3.5597
   53CHL1   C21 6380   6.267   2.689   9.132  0.8506 -1.3882 -0.0659
   53CHL1  H21A 6381   6.170   2.655   9.088  0.5546  0.3656 -0.8675
   53CHL1  H21B 6382   6.327   2.738   9.052 -0.0591 -0.3791 -0.1549
   53CHL1  H21C 6383   6.255   2.769   9.208 -0.2245 -0.8474 -0.7709
   53CHL1   C22 6384   6.366   2.461   9.077 -0.0705 -0.3035 -0.2121
   53CHL1  H22A 6385   6.443   2.393   9.118 -0.3794 -0.5011  0.0514
   53CHL1  H22B 6386   6.272   2.402   9.070  0.3633 -1.7431  3.6425
   53CHL1   C23 6387   6.414   2.504   8.937 -0.0365 -0.3556 -0.2881
   53CHL1  H23A 6388   6.329   2.560   8.893 -0.4292  0.1844  1.1012
   53CHL1  H23B 6389   6.497   2.577   8.953  0.1929 -0.8905  1.0532
   53CHL1   C24 6390   6.455   2.387   8.844 -0.3550 -0.1679  0.7965
   53CHL1  H24A 6391   6.537   2.326   8.886  0.7910  1.7339  1.4654
   53CHL1  H24B 6392   6.382   2.304   8.830  1.1066 -1.1578 -1.5356
   53CHL1   C25 6393   6.508   2.437   8.703 -0.1458  0.1923  0.1485
   53CHL1   H25 6394   6.570   2.525   8.729 -0.2352  0.3022 -0.0103
   53CHL1   C26 6395   6.594   2.324   8.652 -0.2689  0.4028  0.2936
   53CHL1  H26A 6396   6.527   2.236   8.637 -0.3645  0.3623  0.9213
   53CHL1  H26B 6397   6.640   2.358   8.557 -2.0680 -1.9541 -1.5845
   53CHL1  H26C 6398   6.677   2.297   8.720 -0.1686  0.6591  0.2750
   53CHL1   C27 6399   6.393   2.476   8.609  0.0444  0.4673  0.0152
   53CHL1  H27A 6400   6.365   2.583   8.617  1.1865  1.0110 -2.4662
   53CHL1  H27B 6401   6.432   2.476   8.505 -1.8068 -0.3110 -0.7276
   53CHL1  H27C 6402   6.295   2.428   8.627  0.9297 -0.8384  1.6245
   54CHL1    C3 6403   2.653   2.571  10.004 -0.7363 -0.4686 -0.3048
   54CHL1    H3 6404   2.602   2.668   9.984 -1.9160 -0.7013  1.3697
   54CHL1    O3 6405   2.631   2.543  10.140  0.1331  0.1653  0.0900
   54CHL1   H3' 6406   2.684   2.467  10.167 -0.9851 -0.1756  1.4634
   54CHL1    C4 6407   2.606   2.465   9.906 -0.4904  0.6528  0.2098
   54CHL1   H4A 6408   2.650   2.369   9.940 -0.2468  1.7156  3.1457
   54CHL1   H4B 6409   2.497   2.449   9.916  0.0363 -3.1498  1.2528
   54CHL1    C5 6410   2.646   2.491   9.758 -0.1941 -0.3651 -0.2350
   54CHL1    C6 6411   2.551   2.532   9.672 -0.2616 -0.1027  0.1818
   54CHL1    H6 6412   2.445   2.544   9.698 -0.1211  0.5601  0.4959
   54CHL1    C7 6413   2.585   2.564   9.528  0.7294 -0.1527  0.2096
   54CHL1   H7A 6414   2.515   2.508   9.462  2.2629  1.1764 -2.7745
   54CHL1   H7B 6415   2.577   2.671   9.501  0.3737  0.3909  2.3509
   54CHL1    C8 6416   2.726   2.507   9.492  0.4241  0.5464  0.2277
   54CHL1    H8 6417   2.720   2.396   9.496 -1.2906  0.6467  2.0049
   54CHL1   C14 6418   2.769   2.558   9.355 -0.0545  0.8550 -0.4078
   54CHL1   H14 6419   2.778   2.667   9.372 -1.5544  0.8406  0.6532
   54CHL1   C15 6420   2.670   2.548   9.237 -0.2243 -0.4584 -0.6059
   54CHL1  H15A 6421   2.620   2.449   9.232 -0.4385 -0.4402  0.8699
   54CHL1  H15B 6422   2.594   2.628   9.245  0.7588  0.4141  0.4919
   54CHL1   C16 6423   2.759   2.567   9.120 -0.2137 -1.0972 -0.1487
   54CHL1  H16A 6424   2.733   2.485   9.050  1.9262 -1.2064 -0.8856
   54CHL1  H16B 6425   2.728   2.662   9.073 -1.5592 -1.7667 -0.6516
   54CHL1   C17 6426   2.906   2.577   9.171  0.2926 -0.7572  0.6038
   54CHL1   H17 6427   2.914   2.688   9.177  0.9344 -0.3788 -3.7587
   54CHL1   C13 6428   2.902   2.508   9.300  0.0192  0.3061  0.3115
   54CHL1   C18 6429   2.901   2.358   9.273  0.2705 -0.7574 -0.0973
   54CHL1  H18A 6430   2.827   2.313   9.203 -2.2405 -0.3032  2.1253
   54CHL1  H18B 6431   3.000   2.323   9.234  0.1393 -2.3527  0.9246
   54CHL1  H18C 6432   2.897   2.288   9.359 -2.0612 -1.6815 -0.8644
   54CHL1   C12 6433   3.011   2.550   9.407  0.5128  0.0100  0.3228
   54CHL1  H12A 6434   3.111   2.509   9.382  0.2300 -0.5935  0.1740
   54CHL1  H12B 6435   3.027   2.660   9.411  0.0381  0.0436  3.1808
   54CHL1   C11 6436   2.973   2.501   9.544  0.0188 -0.6660  0.4187
   54CHL1  H11A 6437   2.982   2.390   9.543  0.1718 -0.6888 -1.8590
   54CHL1  H11B 6438   3.045   2.552   9.612  0.6927 -0.2038 -0.6057
   54CHL1    C9 6439   2.832   2.547   9.592  0.9514 -0.6534 -0.0254
   54CHL1    H9 6440   2.829   2.658   9.587  2.4542 -0.6465 -2.3639
   54CHL1   C10 6441   2.799   2.500   9.737 -0.0492 -0.9685  0.1313
   54CHL1   C19 6442   2.865   2.362   9.766  0.1153 -0.0413  0.1691
   54CHL1  H19A 6443   2.827   2.282   9.699 -1.3036  0.6374  0.1265
   54CHL1  H19B 6444   2.973   2.370   9.743  0.0600 -1.4604 -0.7192
   54CHL1  H19C 6445   2.860   2.330   9.872  1.6866  0.4356  0.4047
   54CHL1    C1 6446   2.847   2.604   9.836 -1.0673 -0.9302 -0.1590
   54CHL1   H1A 6447   2.958   2.603   9.839 -1.0540  0.5934  0.9424
   54CHL1   H1B 6448   2.812   2.706   9.808 -4.1118 -1.4413  1.3159
   54CHL1    C2 6449   2.804   2.582   9.986 -0.4669 -0.0936  0.4617
   54CHL1   H2A 6450   2.843   2.663  10.050  1.4970  0.2499 -1.0649
   54CHL1   H2B 6451   2.844   2.483  10.017 -1.4159 -0.4363  0.6046
   54CHL1   C20 6452   3.003   2.546   9.054  0.0132 -0.3955  0.5241
   54CHL1   H20 6453   2.995   2.440   9.022  2.1408 -0.1493 -1.0567
   54CHL1   C21 6454   3.148   2.559   9.117  1.0198  0.0759 -0.0346
   54CHL1  H21A 6455   3.176   2.655   9.165  1.6851 -0.2350  0.2011
   54CHL1  H21B 6456   3.222   2.553   9.034  2.2820 -1.7692  1.1750
   54CHL1  H21C 6457   3.176   2.476   9.185  2.6087 -1.4169 -2.3519
   54CHL1   C22 6458   2.978   2.634   8.929 -0.0531 -0.2435  0.6107
   54CHL1  H22A 6459   2.869   2.643   8.907  0.0738  0.2912  0.1964
   54CHL1  H22B 6460   3.011   2.737   8.953  0.1914  0.2827 -1.7103
   54CHL1   C23 6461   3.060   2.578   8.810  1.0944 -0.0487 -0.3299
   54CHL1  H23A 6462   3.170   2.587   8.828  1.0794  1.4343 -0.8140
   54CHL1  H23B 6463   3.034   2.470   8.800  0.4084 -0.0807  1.4804
   54CHL1   C24 6464   3.030   2.656   8.682 -0.0778 -0.6775  0.4846
   54CHL1  H24A 6465   2.931   2.620   8.645  0.9713 -1.2264 -1.9833
   54CHL1  H24B 6466   3.035   2.764   8.709 -2.6719 -0.1916 -0.6364
   54CHL1   C25 6467   3.132   2.636   8.567 -0.3060 -0.7111 -0.3265
   54CHL1   H25 6468   3.095   2.553   8.503  0.5000 -0.8462 -0.6319
   54CHL1   C26 6469   3.154   2.769   8.488 -0.2534  0.1351  0.2258
   54CHL1  H26A 6470   3.224   2.744   8.404  2.0044  0.8589  1.7868
   54CHL1  H26B 6471   3.054   2.805   8.456 -0.0386 -0.5532 -1.3214
   54CHL1  H26C 6472   3.201   2.838   8.561  0.2510  0.3108 -0.2537
   54CHL1   C27 6473   3.273   2.582   8.614  0.0324  0.7457 -0.3967
   54CHL1  H27A 6474   3.259   2.494   8.680  0.6404  0.3557 -0.7733
   54CHL1  H27B 6475   3.333   2.544   8.528  1.3424  2.9679 -0.5247
   54CHL1  H27C 6476   3.337   2.650   8.673  1.8916 -2.4391  1.5613
   55CHL1    C3 6477   0.084   1.735  10.196  0.0197  0.2596  0.2161
   55CHL1    H3 6478   0.074   1.825  10.131  0.4284  0.6844  0.7233
   55CHL1    O3 6479   0.155   1.777  10.308 -0.1941  0.0684 -0.1573
   55CHL1   H3' 6480   0.162   1.709  10.375 -1.0458  0.1015 -0.0231
   55CHL1    C4 6481  -0.056   1.683  10.231 -0.1130 -0.0976  0.8033
   55CHL1   H4A 6482  -0.049   1.601  10.306  1.0857  0.4003  1.2764
   55CHL1   H4B 6483  -0.109   1.763  10.286 -1.7015  0.0262 -0.8372
   55CHL1    C5 6484  -0.128   1.645  10.105 -0.2656 -0.9986  0.3462
   55CHL1    C6 6485  -0.243   1.709  10.076  0.1840  0.4170  0.5096
   55CHL1    H6 6486  -0.280   1.789  10.142 -0.0132 -0.0061  0.9112
   55CHL1    C7 6487  -0.329   1.685   9.952  0.4068  0.4962 -0.5436
   55CHL1   H7A 6488  -0.438   1.667   9.963  0.4902 -0.4991 -1.1911
   55CHL1   H7B 6489  -0.317   1.773   9.886 -0.0672  2.0099  1.3266
   55CHL1    C8 6490  -0.274   1.556   9.880 -0.9764  0.5729  0.3047
   55CHL1    H8 6491  -0.316   1.475   9.944 -1.3494  1.3974  1.1188
   55CHL1   C14 6492  -0.328   1.555   9.738 -0.1651  0.0506 -0.5763
   55CHL1   H14 6493  -0.283   1.645   9.690 -0.7361 -0.3725 -1.9249
   55CHL1   C15 6494  -0.476   1.565   9.721  0.1894  0.0707  0.2456
   55CHL1  H15A 6495  -0.522   1.490   9.789  2.0080 -2.6388 -1.3296
   55CHL1  H15B 6496  -0.507   1.670   9.740  2.2126  0.7059  0.1840
   55CHL1   C16 6497  -0.501   1.523   9.575 -0.0125  0.1580  0.2022
   55CHL1  H16A 6498  -0.582   1.447   9.577 -2.1874  2.3903  1.2216
   55CHL1  H16B 6499  -0.523   1.613   9.514  0.4687 -0.6864 -1.2694
   55CHL1   C17 6500  -0.367   1.462   9.520 -0.0550 -0.4082  0.3227
   55CHL1   H17 6501  -0.321   1.545   9.462 -0.4741 -0.4555 -0.0796
   55CHL1   C13 6502  -0.286   1.438   9.645 -0.6934  1.1378 -0.3703
   55CHL1   C18 6503  -0.339   1.297   9.704  0.0899 -0.0038 -0.2765
   55CHL1  H18A 6504  -0.450   1.295   9.713  0.2365 -0.6846  2.4601
   55CHL1  H18B 6505  -0.306   1.213   9.639  1.1930  0.4154 -0.2677
   55CHL1  H18C 6506  -0.295   1.280   9.805 -0.4418  3.6552  0.7200
   55CHL1   C12 6507  -0.133   1.439   9.641  0.0924  0.3310 -0.2376
   55CHL1  H12A 6508  -0.097   1.344   9.596 -0.1311  1.0882 -2.0831
   55CHL1  H12B 6509  -0.097   1.525   9.582 -2.3645  1.1116 -0.7427
   55CHL1   C11 6510  -0.062   1.433   9.779  0.3506  0.5776  0.0678
   55CHL1  H11A 6511  -0.060   1.335   9.830 -1.2360  0.5686  0.1438
   55CHL1  H11B 6512   0.045   1.453   9.755  0.7830 -2.0165 -0.4516
   55CHL1    C9 6513  -0.118   1.541   9.876  0.3980 -0.4343 -0.1754
   55CHL1    H9 6514  -0.082   1.634   9.827  1.7011  0.0898  1.6566
   55CHL1   C10 6515  -0.059   1.542  10.021  0.2372  0.8121  0.0470
   55CHL1   C19 6516  -0.081   1.409  10.091  0.4392  0.2266 -0.0601
   55CHL1  H19A 6517  -0.039   1.322  10.036  1.2586  1.7267 -1.8877
   55CHL1  H19B 6518  -0.035   1.426  10.191 -0.2417  1.4771  0.0567
   55CHL1  H19C 6519  -0.186   1.374  10.100 -0.4230  2.1970 -1.7502
   55CHL1    C1 6520   0.086   1.588  10.001  0.0752 -0.0799 -0.2654
   55CHL1   H1A 6521   0.150   1.508   9.959 -0.6728 -0.2789 -1.0742
   55CHL1   H1B 6522   0.092   1.683   9.943 -2.9876  2.8824  3.7485
   55CHL1    C2 6523   0.158   1.624  10.127  0.3284  0.1360  0.1935
   55CHL1   H2A 6524   0.259   1.660  10.100  0.5897 -1.3079 -0.8765
   55CHL1   H2B 6525   0.182   1.540  10.197  1.3300 -0.0505 -0.3559
   55CHL1   C20 6526  -0.389   1.344   9.424  0.1304 -0.2540 -1.0392
   55CHL1   H20 6527  -0.425   1.255   9.479 -1.5528  1.1033  0.1608
   55CHL1   C21 6528  -0.255   1.306   9.362  0.5053  0.1009  0.6838
   55CHL1  H21A 6529  -0.202   1.394   9.319  1.5372  0.1885  2.0958
   55CHL1  H21B 6530  -0.268   1.236   9.277  0.1130 -0.0312  0.8508
   55CHL1  H21C 6531  -0.184   1.248   9.425  2.4147 -0.5456 -1.8948
   55CHL1   C22 6532  -0.496   1.373   9.314  0.7557  0.0166  0.5533
   55CHL1  H22A 6533  -0.498   1.288   9.242 -3.9896  0.9375 -0.7195
   55CHL1  H22B 6534  -0.592   1.378   9.369  0.9112  0.3759  0.7911
   55CHL1   C23 6535  -0.474   1.503   9.228 -0.5215  0.2078 -0.1381
   55CHL1  H23A 6536  -0.486   1.597   9.286 -2.0918  1.6506 -2.6200
   55CHL1  H23B 6537  -0.366   1.501   9.201 -0.9464  1.0728 -2.1483
   55CHL1   C24 6538  -0.555   1.493   9.092  0.0422  0.5728  0.2227
   55CHL1  H24A 6539  -0.538   1.387   9.063  2.1233  0.3019  2.1602
   55CHL1  H24B 6540  -0.657   1.524   9.122  0.2787  2.7833 -1.0559
   55CHL1   C25 6541  -0.509   1.590   8.980  0.1293  1.2099 -0.0475
   55CHL1   H25 6542  -0.412   1.566   8.932  0.8500  1.3830  1.2661
   55CHL1   C26 6543  -0.604   1.571   8.857  0.3132  0.1409 -0.0454
   55CHL1  H26A 6544  -0.574   1.622   8.763 -0.8485  1.7485  0.4003
   55CHL1  H26B 6545  -0.616   1.464   8.828 -0.0526 -0.1092  0.9763
   55CHL1  H26C 6546  -0.700   1.619   8.886 -0.1394 -1.5728  1.5315
   55CHL1   C27 6547  -0.501   1.738   9.031  0.0731 -0.1033 -0.4558
   55CHL1  H27A 6548  -0.418   1.752   9.104 -0.0217 -0.8307 -0.1968
   55CHL1  H27B 6549  -0.488   1.795   8.937  1.4399 -1.1960 -0.9580
   55CHL1  H27C 6550  -0.597   1.769   9.079  0.3376  0.5605 -0.3534
   56CHL1    C3 6551   0.941   0.681  10.160  0.0067  1.2278 -0.5973
   56CHL1    H3 6552   0.841   0.729  10.154 -1.1427 -1.1360 -1.7284
   56CHL1    O3 6553   0.973   0.685  10.297 -0.4095  0.2926 -0.1915
   56CHL1   H3' 6554   0.900   0.652  10.349  0.3423 -1.5326 -0.1990
   56CHL1    C4 6555   0.913   0.532  10.116 -0.1797 -0.0527  0.2720
   56CHL1   H4A 6556   1.005   0.471  10.131 -1.6987 -2.5238  0.1519
   56CHL1   H4B 6557   0.824   0.490  10.168 -0.9726 -2.5985 -2.8555
   56CHL1    C5 6558   0.880   0.531   9.960 -0.0563  0.7082  0.3011
   56CHL1    C6 6559   0.761   0.476   9.922  0.1033 -0.5351  0.7950
   56CHL1    H6 6560   0.687   0.447   9.998 -1.5212 -1.7329 -1.1412
   56CHL1    C7 6561   0.715   0.470   9.778 -0.2986 -0.4824 -0.7595
   56CHL1   H7A 6562   0.696   0.364   9.751 -2.2837 -0.3414 -0.0801
   56CHL1   H7B 6563   0.627   0.532   9.751 -0.8501 -0.1405  1.6430
   56CHL1    C8 6564   0.830   0.499   9.678  0.4715  0.4650  0.2758
   56CHL1    H8 6565   0.889   0.405   9.668 -1.9416 -0.9709 -1.3979
   56CHL1   C14 6566   0.784   0.530   9.540 -0.3149 -0.6332 -0.5294
   56CHL1   H14 6567   0.732   0.628   9.549  0.2643 -0.1237 -2.3795
   56CHL1   C15 6568   0.682   0.433   9.481 -0.0174 -0.1276 -0.5386
   56CHL1  H15A 6569   0.713   0.327   9.487 -1.9514 -0.7437 -0.7846
   56CHL1  H15B 6570   0.584   0.432   9.533  0.2616 -0.5586 -0.0175
   56CHL1   C16 6571   0.682   0.461   9.340 -0.6216 -0.0872  0.2293
   56CHL1  H16A 6572   0.709   0.369   9.285  1.1044  0.6063 -0.1658
   56CHL1  H16B 6573   0.583   0.492   9.302  0.0155  0.3332 -1.1604
   56CHL1   C17 6574   0.794   0.570   9.309 -0.8045 -0.3475  0.1471
   56CHL1   H17 6575   0.749   0.671   9.308  0.9930  0.5479 -2.6762
   56CHL1   C13 6576   0.887   0.558   9.435  0.0987  0.3237 -0.2584
   56CHL1   C18 6577   0.971   0.426   9.417  0.2672 -0.5529 -0.2230
   56CHL1  H18A 6578   0.913   0.331   9.413  1.1505 -1.0597 -1.5272
   56CHL1  H18B 6579   1.057   0.449   9.351  1.5947  1.7946  2.1552
   56CHL1  H18C 6580   1.020   0.411   9.516  1.2025 -0.1732 -0.6137
   56CHL1   C12 6581   0.972   0.684   9.482  0.7343  0.6613 -0.4472
   56CHL1  H12A 6582   1.054   0.718   9.415  0.8512 -0.5828 -0.9496
   56CHL1  H12B 6583   0.902   0.771   9.482 -1.4036 -0.9947 -0.3439
   56CHL1   C11 6584   1.039   0.664   9.621 -0.1755  1.0170  0.3594
   56CHL1  H11A 6585   1.126   0.597   9.608  1.0078  2.2973  1.4402
   56CHL1  H11B 6586   1.071   0.767   9.646  1.3318  0.6060  0.1737
   56CHL1    C9 6587   0.926   0.616   9.723 -0.7173 -0.0051 -0.2606
   56CHL1    H9 6588   0.861   0.706   9.714  0.1567  0.5342 -1.4944
   56CHL1   C10 6589   0.981   0.604   9.864 -0.0884  0.1526  0.2443
   56CHL1   C19 6590   1.106   0.506   9.871  0.1221 -0.5140  0.7543
   56CHL1  H19A 6591   1.089   0.401   9.840 -0.6364 -0.2854  0.3396
   56CHL1  H19B 6592   1.190   0.555   9.818 -0.8244  1.2990  0.8126
   56CHL1  H19C 6593   1.147   0.511   9.974  0.7572  1.8234  0.4447
   56CHL1    C1 6594   1.010   0.742   9.923 -0.4093 -0.2759 -0.6636
   56CHL1   H1A 6595   1.094   0.782   9.863  0.4564  1.7998  1.7341
   56CHL1   H1B 6596   0.916   0.797   9.907  0.2163  0.2142 -2.9405
   56CHL1    C2 6597   1.053   0.743  10.074 -0.3904 -0.3377 -0.4376
   56CHL1   H2A 6598   1.060   0.851  10.103 -0.2972  0.1950 -2.3393
   56CHL1   H2B 6599   1.146   0.689  10.103 -2.2575 -1.3713  4.7783
   56CHL1   C20 6600   0.848   0.573   9.163  0.3138  0.0038  0.7102
   56CHL1   H20 6601   0.904   0.477   9.153  2.2768  1.0746  1.0520
   56CHL1   C21 6602   0.940   0.696   9.141  0.9020  0.2176 -0.1267
   56CHL1  H21A 6603   0.985   0.690   9.039  2.1931 -2.1083  0.5007
   56CHL1  H21B 6604   1.029   0.716   9.205 -0.0029  0.1335  1.1788
   56CHL1  H21C 6605   0.878   0.788   9.148 -1.0577 -1.0183 -0.7246
   56CHL1   C22 6606   0.734   0.572   9.062 -0.0143 -0.5060  0.4670
   56CHL1  H22A 6607   0.649   0.507   9.092  0.9770 -2.2547 -0.3648
   56CHL1  H22B 6608   0.682   0.669   9.046 -1.6137 -1.1305  1.6319
   56CHL1   C23 6609   0.781   0.513   8.930 -0.5952 -0.3901 -0.1573
   56CHL1  H23A 6610   0.854   0.585   8.888 -0.7694  0.7976  1.5009
   56CHL1  H23B 6611   0.819   0.412   8.956  0.0595  0.1294  0.9776
   56CHL1   C24 6612   0.671   0.497   8.829 -0.1223  0.3543  0.1075
   56CHL1  H24A 6613   0.588   0.446   8.883 -0.8766 -0.0361 -1.3832
   56CHL1  H24B 6614   0.628   0.593   8.792 -0.8101  0.6383  1.5713
   56CHL1   C25 6615   0.718   0.416   8.701 -0.0715 -0.0981  0.3391
   56CHL1   H25 6616   0.733   0.312   8.737 -2.2632 -0.5521  0.1174
   56CHL1   C26 6617   0.583   0.411   8.626 -0.1620  0.2400 -0.4504
   56CHL1  H26A 6618   0.584   0.351   8.533  1.0092 -0.6058  0.0912
   56CHL1  H26B 6619   0.502   0.368   8.689  1.7795  0.7401  2.6351
   56CHL1  H26C 6620   0.546   0.509   8.589 -2.7959 -0.8389 -0.9063
   56CHL1   C27 6621   0.840   0.477   8.626  0.6636  0.7639 -0.1263
   56CHL1  H27A 6622   0.861   0.428   8.529  2.1921 -2.3105  1.6020
   56CHL1  H27B 6623   0.827   0.587   8.610 -1.8326  1.2166  3.7794
   56CHL1  H27C 6624   0.930   0.463   8.691 -0.1905 -2.1902  0.5583
   57CHL1    C3 6625   3.477   3.780  10.059  0.0298  0.5501  0.5789
   57CHL1    H3 6626   3.464   3.683  10.006 -0.8191  0.7953  0.3196
   57CHL1    O3 6627   3.493   3.742  10.195  0.5775 -0.3644  0.3754
   57CHL1   H3' 6628   3.503   3.827  10.237  0.6248 -0.4620  0.5628
   57CHL1    C4 6629   3.590   3.862  10.006 -0.3250  0.2001 -0.3414
   57CHL1   H4A 6630   3.601   3.950  10.072 -0.0546 -1.1321  1.4578
   57CHL1   H4B 6631   3.678   3.799  10.029  0.5019  1.8957  1.3949
   57CHL1    C5 6632   3.572   3.913   9.866 -0.0160 -0.3747 -0.1292
   57CHL1    C6 6633   3.663   3.905   9.770 -0.0895 -0.0579  0.0340
   57CHL1    H6 6634   3.758   3.858   9.796  0.9602  1.7513 -0.3985
   57CHL1    C7 6635   3.648   3.965   9.629  0.3096 -0.3083  0.0232
   57CHL1   H7A 6636   3.739   4.023   9.605 -0.3055  1.0196  0.7738
   57CHL1   H7B 6637   3.661   3.890   9.548  2.6016  0.6858 -0.6273
   57CHL1    C8 6638   3.526   4.055   9.601  0.2313  0.5504  0.1468
   57CHL1    H8 6639   3.540   4.163   9.625 -0.8195  0.4486  1.3209
   57CHL1   C14 6640   3.493   4.049   9.456 -0.4762 -0.0685  1.2333
   57CHL1   H14 6641   3.472   3.944   9.428 -1.0517 -0.9338  4.5587
   57CHL1   C15 6642   3.601   4.099   9.363 -0.1011  0.6697  0.2982
   57CHL1  H15A 6643   3.650   4.193   9.395  0.8723  0.6439 -1.0736
   57CHL1  H15B 6644   3.682   4.023   9.357 -1.1120 -0.3853 -0.6061
   57CHL1   C16 6645   3.533   4.125   9.229 -0.1584 -0.8500  0.4866
   57CHL1  H16A 6646   3.558   4.227   9.194 -3.8106  0.5305  1.4505
   57CHL1  H16B 6647   3.579   4.053   9.158  0.4242  0.8866 -0.9486
   57CHL1   C17 6648   3.383   4.110   9.257  0.4563 -0.1128 -0.3000
   57CHL1   H17 6649   3.356   4.004   9.239 -0.4575  0.5289 -3.0482
   57CHL1   C13 6650   3.371   4.128   9.408  0.4050 -0.4186 -0.4148
   57CHL1   C18 6651   3.378   4.276   9.440  0.4297  0.3751  0.6933
   57CHL1  H18A 6652   3.451   4.338   9.383 -0.6098 -1.0491 -2.3789
   57CHL1  H18B 6653   3.273   4.306   9.417 -0.1409 -0.4080  2.1306
   57CHL1  H18C 6654   3.389   4.282   9.551 -0.4232 -0.4192  0.8366
   57CHL1   C12 6655   3.259   4.069   9.483  0.3791  0.7013 -0.0187
   57CHL1  H12A 6656   3.165   4.126   9.469  0.8210  1.3713 -0.3330
   57CHL1  H12B 6657   3.252   3.966   9.443  2.5371  0.5888 -0.2336
   57CHL1   C11 6658   3.274   4.064   9.640 -0.7067  0.0535  0.3546
   57CHL1  H11A 6659   3.268   4.166   9.683  4.4732 -0.1444  2.2293
   57CHL1  H11B 6660   3.191   4.003   9.681 -2.7145  2.0343 -0.5342
   57CHL1    C9 6661   3.406   3.996   9.676 -0.8061 -0.7730  0.8146
   57CHL1    H9 6662   3.404   3.891   9.640  1.1378 -0.1518 -1.2766
   57CHL1   C10 6663   3.432   3.983   9.830  0.2213 -0.1585 -0.4152
   57CHL1   C19 6664   3.435   4.124   9.895  0.2169 -0.1764 -0.0330
   57CHL1  H19A 6665   3.502   4.194   9.840  1.3093 -1.1750  0.0014
   57CHL1  H19B 6666   3.331   4.164   9.900  0.4369  0.2343  2.0322
   57CHL1  H19C 6667   3.464   4.121  10.002 -0.0310  0.2725  0.0507
   57CHL1    C1 6668   3.318   3.892   9.894  0.4628  0.3752  0.0121
   57CHL1   H1A 6669   3.215   3.933   9.891  0.2588 -0.1418 -0.2185
   57CHL1   H1B 6670   3.322   3.797   9.836 -0.9610 -0.8490  1.8295
   57CHL1    C2 6671   3.336   3.849  10.046  0.0578  0.2743  0.4372
   57CHL1   H2A 6672   3.269   3.764  10.073  0.5830 -0.4966 -0.5865
   57CHL1   H2B 6673   3.314   3.935  10.112 -2.3143 -0.1202  0.2505
   57CHL1   C20 6674   3.304   4.194   9.157  0.1342 -0.0019  1.0398
   57CHL1   H20 6675   3.321   4.299   9.189 -1.9290  1.2921 -1.7264
   57CHL1   C21 6676   3.160   4.142   9.156  0.0400 -0.1633 -0.0065
   57CHL1  H21A 6677   3.150   4.047   9.100 -2.2982  0.2156 -0.3605
   57CHL1  H21B 6678   3.090   4.211   9.103 -3.0845 -2.3532  0.9526
   57CHL1  H21C 6679   3.106   4.126   9.252 -2.3592 -0.7252 -1.3563
   57CHL1   C22 6680   3.356   4.195   9.009 -0.8545 -0.1529  0.5003
   57CHL1  H22A 6681   3.449   4.257   9.009 -1.2894  0.6389 -2.4064
   57CHL1  H22B 6682   3.367   4.090   8.976 -0.5720  0.7088 -2.4547
   57CHL1   C23 6683   3.264   4.266   8.901  0.1330  0.1126 -0.0196
   57CHL1  H23A 6684   3.164   4.218   8.901  0.7042 -1.1908 -2.2008
   57CHL1  H23B 6685   3.259   4.373   8.933  0.7201  0.4942 -1.1575
   57CHL1   C24 6686   3.318   4.257   8.755 -0.4756  0.1222 -0.2919
   57CHL1  H24A 6687   3.414   4.313   8.756 -0.5644  0.3224  2.1051
   57CHL1  H24B 6688   3.336   4.149   8.738 -0.0184 -0.0111  0.9489
   57CHL1   C25 6689   3.231   4.314   8.649 -0.1634 -0.6376  0.6531
   57CHL1   H25 6690   3.140   4.250   8.650  0.2506 -1.3162 -1.3335
   57CHL1   C26 6691   3.187   4.454   8.678  0.2433  0.6942 -0.1976
   57CHL1  H26A 6692   3.119   4.458   8.765  0.5796 -0.4002  0.1308
   57CHL1  H26B 6693   3.276   4.519   8.689  0.6501  0.0336  0.5012
   57CHL1  H26C 6694   3.134   4.488   8.586  2.1303 -0.0345 -1.6321
   57CHL1   C27 6695   3.291   4.290   8.511 -0.3781  0.3304  0.5872
   57CHL1  H27A 6696   3.393   4.333   8.506  0.7768 -2.2722 -0.3819
   57CHL1  H27B 6697   3.296   4.179   8.501  1.6545  0.5379 -1.7663
   57CHL1  H27C 6698   3.222   4.334   8.436  1.9128  0.6978 -1.4199
   58CHL1    C3 6699   3.731   2.111  10.214  0.0229 -0.1612  0.7254
   58CHL1    H3 6700   3.825   2.052  10.211 -1.0905 -1.9807 -1.7035
   58CHL1    O3 6701   3.672   2.085  10.340 -0.1501  0.1296  0.1621
   58CHL1   H3' 6702   3.598   2.146  10.341  0.6906  1.1759 -0.0294
   58CHL1    C4 6703   3.751   2.258  10.186 -0.7703  0.2485  0.4722
   58CHL1   H4A 6704   3.658   2.315  10.205 -1.4462 -1.0197  1.1161
   58CHL1   H4B 6705   3.822   2.277  10.269 -0.2084 -0.1229  0.0782
   58CHL1    C5 6706   3.800   2.270  10.044  0.7552  0.0900 -0.7020
   58CHL1    C6 6707   3.920   2.326  10.028  0.3991  0.4851 -0.3865
   58CHL1    H6 6708   3.970   2.373  10.115  0.1921  0.7640 -0.4157
   58CHL1    C7 6709   3.983   2.331   9.895  0.5579 -0.4788  0.3951
   58CHL1   H7A 6710   4.040   2.427   9.889  1.0497 -0.7754  0.2926
   58CHL1   H7B 6711   4.057   2.251   9.873  1.3666  0.2795  0.2944
   58CHL1    C8 6712   3.880   2.334   9.775 -0.7080 -0.1133 -0.5469
   58CHL1    H8 6713   3.823   2.429   9.785  0.3355  0.3946  0.9585
   58CHL1   C14 6714   3.951   2.328   9.645 -0.1768 -0.3192 -0.3274
   58CHL1   H14 6715   4.005   2.231   9.649 -2.4395 -1.5967  2.4520
   58CHL1   C15 6716   4.067   2.425   9.616  0.5725 -0.5215  0.0135
   58CHL1  H15A 6717   4.029   2.528   9.628 -0.1919 -0.7809 -0.0946
   58CHL1  H15B 6718   4.155   2.398   9.678 -0.2993 -1.1477  1.0182
   58CHL1   C16 6719   4.086   2.413   9.462  0.5695 -0.2116 -0.3043
   58CHL1  H16A 6720   4.079   2.510   9.409  0.3409  0.4555  0.8974
   58CHL1  H16B 6721   4.185   2.368   9.439  1.5462  1.7634 -0.1923
   58CHL1   C17 6722   3.975   2.314   9.411 -1.1908 -0.9483 -0.3074
   58CHL1   H17 6723   4.017   2.211   9.417 -0.2647 -0.4998  2.5458
   58CHL1   C13 6724   3.869   2.319   9.520  0.5937 -0.2339 -0.4906
   58CHL1   C18 6725   3.778   2.448   9.506 -0.2952  0.1848  0.5091
   58CHL1  H18A 6726   3.710   2.446   9.417 -0.3885  1.8713  0.5093
   58CHL1  H18B 6727   3.720   2.454   9.601  0.2427 -1.0292  0.9331
   58CHL1  H18C 6728   3.839   2.541   9.502  2.4577 -1.5494 -1.2211
   58CHL1   C12 6729   3.778   2.198   9.527  0.4507 -0.0163  0.5138
   58CHL1  H12A 6730   3.706   2.200   9.443  0.5453 -0.7567  0.4068
   58CHL1  H12B 6731   3.834   2.103   9.516 -1.3220 -1.0140 -0.2868
   58CHL1   C11 6732   3.699   2.196   9.662  0.1537 -0.1031 -0.0309
   58CHL1  H11A 6733   3.619   2.274   9.663 -1.1651 -1.4075  1.4041
   58CHL1  H11B 6734   3.645   2.100   9.672 -0.8263  0.5958  1.9007
   58CHL1    C9 6735   3.789   2.218   9.788 -0.3755 -0.1126  0.4557
   58CHL1    H9 6736   3.861   2.133   9.794 -0.0345  0.2154  1.1154
   58CHL1   C10 6737   3.709   2.221   9.926  0.3036 -0.3374 -0.6574
   58CHL1   C19 6738   3.586   2.314   9.924 -0.0970  0.6573  0.4840
   58CHL1  H19A 6739   3.543   2.339  10.024 -0.7017 -0.6015  0.5534
   58CHL1  H19B 6740   3.615   2.411   9.878  3.2872 -0.1113  0.7414
   58CHL1  H19C 6741   3.504   2.267   9.867  1.0191 -2.1594  1.0204
   58CHL1    C1 6742   3.667   2.077   9.962 -0.2716  0.3229  0.1846
   58CHL1   H1A 6743   3.581   2.045   9.900  0.3127 -0.3403 -0.3052
   58CHL1   H1B 6744   3.756   2.012   9.942  0.7832  1.4750  0.9671
   58CHL1    C2 6745   3.624   2.056  10.110  0.1488 -0.1977  0.1947
   58CHL1   H2A 6746   3.609   1.949  10.137 -1.8464  0.0686  0.3134
   58CHL1   H2B 6747   3.532   2.116  10.125  0.5516  0.2853  0.7442
   58CHL1   C20 6748   3.945   2.345   9.267  0.0455 -0.3712  0.1241
   58CHL1   H20 6749   3.896   2.445   9.271 -0.5906 -0.6581 -0.3365
   58CHL1   C21 6750   3.836   2.255   9.210  0.0025  0.3543 -0.2487
   58CHL1  H21A 6751   3.862   2.152   9.240  2.1674  1.4536  2.0124
   58CHL1  H21B 6752   3.837   2.278   9.101  2.8471 -1.0613 -0.6050
   58CHL1  H21C 6753   3.733   2.279   9.245 -0.4515 -0.7208 -0.7992
   58CHL1   C22 6754   4.069   2.344   9.175 -0.6008 -0.1328 -0.1327
   58CHL1  H22A 6755   4.113   2.441   9.207  0.7844 -0.6791 -0.2822
   58CHL1  H22B 6756   4.128   2.252   9.198  1.6810  0.6547 -2.2822
   58CHL1   C23 6757   4.058   2.330   9.026 -0.5272 -0.3377  0.5383
   58CHL1  H23A 6758   4.003   2.239   8.993  1.5852 -1.3587 -0.4041
   58CHL1  H23B 6759   4.030   2.425   8.977  2.6470  0.6724  0.4643
   58CHL1   C24 6760   4.199   2.315   8.966  0.7635 -0.0054 -1.0489
   58CHL1  H24A 6761   4.269   2.369   9.033  0.7615 -1.2309 -0.0080
   58CHL1  H24B 6762   4.240   2.213   8.986  0.5148  0.4483  2.3515
   58CHL1   C25 6763   4.213   2.359   8.819 -0.1994 -0.0834 -0.7322
   58CHL1   H25 6764   4.176   2.463   8.814  0.4221  0.3205  1.8872
   58CHL1   C26 6765   4.363   2.334   8.782 -0.1295 -0.2013  0.3131
   58CHL1  H26A 6766   4.375   2.350   8.673  1.8600 -1.0733  0.3486
   58CHL1  H26B 6767   4.442   2.393   8.834  2.3968 -0.5956 -2.7834
   58CHL1  H26C 6768   4.389   2.227   8.798 -2.6114 -0.4267  4.1591
   58CHL1   C27 6769   4.119   2.274   8.731  0.1419  0.3119  0.8595
   58CHL1  H27A 6770   4.157   2.170   8.742  2.0432  0.6967 -1.3228
   58CHL1  H27B 6771   4.014   2.285   8.766 -0.4756  1.2401 -1.1317
   58CHL1  H27C 6772   4.141   2.300   8.625 -3.5840  0.7208  0.0332
   59CHL1    C3 6773   4.414   1.535  10.216 -0.7647  0.3194 -0.9276
   59CHL1    H3 6774   4.520   1.546  10.184 -0.8156  3.1760 -0.3490
   59CHL1    O3 6775   4.407   1.560  10.359 -0.5142 -0.2427  0.1230
   59CHL1   H3' 6776   4.381   1.478  10.400 -2.7609  0.4001  0.1657
   59CHL1    C4 6777   4.338   1.627  10.127  0.1215  0.0185 -0.1220
   59CHL1   H4A 6778   4.231   1.625  10.160  0.5950  1.3644  1.6322
   59CHL1   H4B 6779   4.380   1.728  10.143 -0.5602  0.6167 -1.8803
   59CHL1    C5 6780   4.341   1.596   9.979 -0.1808 -0.3437 -0.2761
   59CHL1    C6 6781   4.386   1.688   9.885 -0.1722  0.1644 -0.2764
   59CHL1    H6 6782   4.423   1.782   9.929  3.5371 -0.3269 -1.9598
   59CHL1    C7 6783   4.413   1.658   9.740  0.0599  0.0005 -0.2107
   59CHL1   H7A 6784   4.372   1.740   9.678  2.6085  0.9435 -0.7616
   59CHL1   H7B 6785   4.523   1.670   9.735  0.0272  2.0129  2.0775
   59CHL1    C8 6786   4.360   1.519   9.691  0.3508  0.0694 -0.2951
   59CHL1    H8 6787   4.251   1.539   9.686  0.4303  0.3402 -1.1433
   59CHL1   C14 6788   4.410   1.466   9.559 -0.1668  0.2824  0.6331
   59CHL1   H14 6789   4.518   1.440   9.567 -0.2404 -0.4649 -0.5410
   59CHL1   C15 6790   4.411   1.567   9.441  0.0328 -0.1892 -0.0907
   59CHL1  H15A 6791   4.319   1.626   9.456  0.4354  0.9603 -1.8188
   59CHL1  H15B 6792   4.497   1.635   9.459  1.5452 -1.4259 -2.1844
   59CHL1   C16 6793   4.421   1.480   9.316  0.0039  0.0651 -0.3103
   59CHL1  H16A 6794   4.333   1.511   9.256 -0.5019  0.3290  0.5506
   59CHL1  H16B 6795   4.510   1.491   9.251  1.0485 -0.7279  0.9476
   59CHL1   C17 6796   4.414   1.329   9.359 -0.1474 -0.2739 -0.4491
   59CHL1   H17 6797   4.514   1.292   9.389 -0.6379 -0.8416  0.5431
   59CHL1   C13 6798   4.343   1.338   9.496 -0.0864 -0.1675  0.0946
   59CHL1   C18 6799   4.188   1.355   9.466  0.5581 -0.1689 -0.7079
   59CHL1  H18A 6800   4.144   1.266   9.414 -1.7505  0.8350 -0.5932
   59CHL1  H18B 6801   4.122   1.380   9.552  1.0116  0.7621 -0.6309
   59CHL1  H18C 6802   4.169   1.432   9.388 -0.0421  0.5821  0.1658
   59CHL1   C12 6803   4.371   1.234   9.603  0.0968  0.3523 -0.0301
   59CHL1  H12A 6804   4.325   1.138   9.570 -1.1104  1.4210 -1.6436
   59CHL1  H12B 6805   4.481   1.221   9.614  0.2242 -0.8835 -2.1242
   59CHL1   C11 6806   4.313   1.274   9.737  0.0436  0.7699 -0.7044
   59CHL1  H11A 6807   4.203   1.275   9.731 -0.2762 -1.6615  2.3080
   59CHL1  H11B 6808   4.346   1.197   9.810 -0.9112 -1.3843 -2.4471
   59CHL1    C9 6809   4.374   1.406   9.801 -0.3254 -0.2661  0.3450
   59CHL1    H9 6810   4.483   1.388   9.813  0.1494  1.9112 -0.2142
   59CHL1   C10 6811   4.316   1.450   9.943  0.0602  0.1016 -0.1991
   59CHL1   C19 6812   4.159   1.447   9.927  0.7548 -0.4620  0.0703
   59CHL1  H19A 6813   4.135   1.524   9.851  3.7401  1.1301  0.5503
   59CHL1  H19B 6814   4.122   1.346   9.902 -0.1487 -0.1994  0.3247
   59CHL1  H19C 6815   4.103   1.470  10.019 -0.0465 -1.5792 -0.1216
   59CHL1    C1 6816   4.380   1.355  10.051  0.0919  0.9740  0.3670
   59CHL1   H1A 6817   4.330   1.257  10.040  0.2905  0.7832  1.1344
   59CHL1   H1B 6818   4.486   1.338  10.023 -0.2813  2.3358 -2.2395
   59CHL1    C2 6819   4.367   1.392  10.197 -0.2831 -0.1030  0.3733
   59CHL1   H2A 6820   4.433   1.315  10.242  0.9486  1.2766  1.0142
   59CHL1   H2B 6821   4.265   1.377  10.239 -1.3247  0.5094 -1.8025
   59CHL1   C20 6822   4.360   1.242   9.242  0.1237  0.2340 -0.2634
   59CHL1   H20 6823   4.255   1.267   9.218 -0.9965 -2.1694  1.6027
   59CHL1   C21 6824   4.364   1.097   9.295 -0.3681 -0.4056  0.3293
   59CHL1  H21A 6825   4.471   1.080   9.319 -0.3773 -0.6656  0.1884
   59CHL1  H21B 6826   4.332   1.027   9.215 -0.7855 -2.6512  2.3680
   59CHL1  H21C 6827   4.290   1.088   9.377  0.2641 -1.5152  0.7988
   59CHL1   C22 6828   4.452   1.257   9.114  0.5334 -0.0392 -0.0905
   59CHL1  H22A 6829   4.461   1.363   9.081 -0.8259 -0.0950 -0.7285
   59CHL1  H22B 6830   4.555   1.221   9.133  0.9818  0.8925 -0.6682
   59CHL1   C23 6831   4.408   1.193   8.988 -0.3552  0.8005 -0.1804
   59CHL1  H23A 6832   4.403   1.082   8.998  2.1779  0.5617 -0.7975
   59CHL1  H23B 6833   4.310   1.224   8.946 -0.0386  0.4459 -1.2066
   59CHL1   C24 6834   4.496   1.215   8.874 -0.2735 -0.4061  0.2673
   59CHL1  H24A 6835   4.497   1.320   8.838  0.0157 -1.3581 -2.7875
   59CHL1  H24B 6836   4.606   1.212   8.890 -0.2941  0.5514  0.6863
   59CHL1   C25 6837   4.473   1.117   8.755  0.0437 -0.3405  0.4558
   59CHL1   H25 6838   4.368   1.124   8.720 -0.0639  1.3137  1.0393
   59CHL1   C26 6839   4.559   1.152   8.636 -0.0189 -0.6273  0.5716
   59CHL1  H26A 6840   4.534   1.100   8.541  2.1540 -1.2224  0.2691
   59CHL1  H26B 6841   4.539   1.257   8.604 -0.3956 -1.7272 -3.3656
   59CHL1  H26C 6842   4.668   1.142   8.654  0.0561 -0.1925  0.3807
   59CHL1   C27 6843   4.493   0.964   8.784 -0.8526 -0.0697  0.0594
   59CHL1  H27A 6844   4.469   0.891   8.703  0.8470 -1.3991  0.7006
   59CHL1  H27B 6845   4.596   0.943   8.819 -1.5832 -0.2519  2.2516
   59CHL1  H27C 6846   4.429   0.937   8.870  0.1747  0.9231  1.1588
   60CHL1    C3 6847   4.726   0.437  10.269  0.3284  1.0441  0.4438
   60CHL1    H3 6848   4.681   0.338  10.244  1.1797  0.8919 -0.6106
   60CHL1    O3 6849   4.678   0.471  10.394  0.0956  0.5598  0.2032
   60CHL1   H3' 6850   4.725   0.550  10.421  1.2022 -0.1060  0.2662
   60CHL1    C4 6851   4.883   0.414  10.267  1.6540 -0.7483  0.0032
   60CHL1   H4A 6852   4.931   0.513  10.287  3.1290 -1.3621 -0.3332
   60CHL1   H4B 6853   4.911   0.358  10.358  3.5157 -0.9563 -0.6349
   60CHL1    C5 6854   4.914   0.355  10.128 -0.2305  0.5118 -0.0297
   60CHL1    C6 6855   4.977   0.236  10.130 -0.7489 -0.7735 -0.7968
   60CHL1    H6 6856   5.024   0.201  10.223  0.1582 -1.0525 -1.3524
   60CHL1    C7 6857   5.007   0.158  10.009  0.1179  0.3373 -0.5845
   60CHL1   H7A 6858   5.112   0.122   9.999  0.3917  0.8057  0.4701
   60CHL1   H7B 6859   4.945   0.066  10.004  0.6021 -0.1395  1.3319
   60CHL1    C8 6860   4.986   0.241   9.878 -0.4027  0.3379 -0.4018
   60CHL1    H8 6861   5.073   0.310   9.881 -0.8076  0.9094  3.3489
   60CHL1   C14 6862   4.982   0.145   9.765  0.1834  0.6455  0.5141
   60CHL1   H14 6863   4.901   0.070   9.772 -0.6799  1.5083  0.0545
   60CHL1   C15 6864   5.105   0.055   9.740  0.5010 -0.0647 -0.5629
   60CHL1  H15A 6865   5.200   0.111   9.750  1.4011 -1.3023 -1.8019
   60CHL1  H15B 6866   5.115  -0.026   9.816 -1.3083 -0.0525 -0.2659
   60CHL1   C16 6867   5.089   0.000   9.593 -0.5510 -0.0235 -0.5486
   60CHL1  H16A 6868   5.179   0.028   9.535 -0.5345  2.0336  0.3656
   60CHL1  H16B 6869   5.068  -0.109   9.590 -1.2963  0.1089 -0.5269
   60CHL1   C17 6870   4.975   0.089   9.526  0.1601 -0.7622  0.2595
   60CHL1   H17 6871   4.873   0.048   9.538 -0.5789  0.9129  0.0263
   60CHL1   C13 6872   4.958   0.209   9.622  0.1480  0.0837 -1.0671
   60CHL1   C18 6873   5.082   0.306   9.590 -0.1353 -0.1494 -0.2079
   60CHL1  H18A 6874   5.084   0.382   9.671 -3.4296  0.8265 -0.9190
   60CHL1  H18B 6875   5.180   0.254   9.580  1.1864  2.5707 -3.1496
   60CHL1  H18C 6876   5.074   0.359   9.493  1.4939  1.6820  0.5809
   60CHL1   C12 6877   4.823   0.283   9.630  0.2468 -0.2054 -0.0316
   60CHL1  H12A 6878   4.808   0.343   9.537 -1.8164  0.3152  0.5926
   60CHL1  H12B 6879   4.734   0.217   9.636  0.9005 -1.1225 -0.1289
   60CHL1   C11 6880   4.817   0.389   9.741  0.3936  0.0885  0.5422
   60CHL1  H11A 6881   4.891   0.468   9.716 -0.0007 -0.3824 -2.6689
   60CHL1  H11B 6882   4.711   0.421   9.748  0.0771  0.6597 -3.7593
   60CHL1    C9 6883   4.861   0.325   9.881  0.5521  0.4944 -0.1145
   60CHL1    H9 6884   4.774   0.259   9.899  0.7269  0.4904  0.7369
   60CHL1   C10 6885   4.856   0.422  10.002 -1.4388  0.0199  0.4690
   60CHL1   C19 6886   4.951   0.546   9.971  0.4536 -0.2201 -0.6672
   60CHL1  H19A 6887   4.962   0.601  10.067  1.1502 -1.3962 -0.0554
   60CHL1  H19B 6888   5.047   0.498   9.945 -0.0594 -0.0428 -3.1627
   60CHL1  H19C 6889   4.914   0.606   9.885 -2.1930 -0.0320  0.4848
   60CHL1    C1 6890   4.713   0.471  10.029 -0.0136  0.0627  0.3224
   60CHL1   H1A 6891   4.676   0.527   9.940 -1.1025 -2.6707 -1.0945
   60CHL1   H1B 6892   4.653   0.377  10.029  3.0444 -2.1007 -1.8579
   60CHL1    C2 6893   4.693   0.541  10.160 -0.0735 -0.6449 -0.6546
   60CHL1   H2A 6894   4.588   0.573  10.177  0.2682 -1.1409  3.1948
   60CHL1   H2B 6895   4.761   0.629  10.162 -0.0780 -0.6475 -0.2885
   60CHL1   C20 6896   5.001   0.117   9.375 -0.3885 -0.4789  0.0626
   60CHL1   H20 6897   5.093   0.176   9.357 -0.9407  0.3792  0.0494
   60CHL1   C21 6898   4.879   0.189   9.312  0.4204  0.4264 -0.9180
   60CHL1  H21A 6899   4.868   0.293   9.349  0.7129  0.8637 -2.0321
   60CHL1  H21B 6900   4.784   0.139   9.342 -0.4164  0.8055 -2.7826
   60CHL1  H21C 6901   4.890   0.200   9.202  1.4880  0.5911 -0.8043
   60CHL1   C22 6902   5.009  -0.026   9.302 -0.4113 -0.6830  0.7236
   60CHL1  H22A 6903   5.090  -0.094   9.336 -1.3738 -2.7834 -0.9554
   60CHL1  H22B 6904   4.919  -0.090   9.310  0.5892 -2.2703 -0.1879
   60CHL1   C23 6905   5.047  -0.010   9.150 -0.4501 -0.0982 -0.1870
   60CHL1  H23A 6906   4.964   0.044   9.100 -0.4645 -0.8965 -1.0560
   60CHL1  H23B 6907   5.144   0.043   9.136  0.1631 -1.4023 -1.0606
   60CHL1   C24 6908   5.061  -0.144   9.091  0.4376  1.2634  0.3120
   60CHL1  H24A 6909   5.136  -0.206   9.145  0.1101 -0.7404 -1.3953
   60CHL1  H24B 6910   4.966  -0.201   9.102  1.3599  0.1440  4.4925
   60CHL1   C25 6911   5.115  -0.145   8.948 -0.2814  0.2072 -0.0557
   60CHL1   H25 6912   5.214  -0.096   8.951 -0.5201  0.6947 -0.0089
   60CHL1   C26 6913   5.135  -0.287   8.892  0.2414  0.1637 -0.3245
   60CHL1  H26A 6914   5.037  -0.321   8.853  0.0056  1.6208 -1.0555
   60CHL1  H26B 6915   5.196  -0.285   8.799 -3.3707 -0.0517 -2.9352
   60CHL1  H26C 6916   5.180  -0.357   8.967  3.7799  0.9321 -1.5287
   60CHL1   C27 6917   5.008  -0.076   8.860 -0.6611 -0.0544  0.1600
   60CHL1  H27A 6918   4.996   0.027   8.898  0.9795  0.0458  0.4928
   60CHL1  H27B 6919   5.046  -0.051   8.759  2.0952 -1.2809  0.7899
   60CHL1  H27C 6920   4.911  -0.129   8.852 -1.3911  1.3090 -0.3347
   61CHL1    C3 6921   0.360   5.530  10.404  0.1100  0.3525 -0.7534
   61CHL1    H3 6922   0.261   5.501  10.444  1.5373 -0.2502  2.6405
   61CHL1    O3 6923   0.443   5.555  10.515  0.4909 -0.0690  0.2191
   61CHL1   H3' 6924   0.396   5.626  10.559 -0.1568  0.2906 -1.0145
   61CHL1    C4 6925   0.419   5.414  10.324  0.6465 -0.1522 -0.1467
   61CHL1   H4A 6926   0.526   5.432  10.304  0.9713 -1.4336  0.3453
   61CHL1   H4B 6927   0.416   5.316  10.377 -0.2438 -0.2135 -0.2827
   61CHL1    C5 6928   0.345   5.397  10.189  0.4042  0.3784  0.0616
   61CHL1    C6 6929   0.300   5.275  10.152  0.2204 -0.4181  0.6479
   61CHL1    H6 6930   0.324   5.200  10.229  1.7587 -1.7365 -1.0319
   61CHL1    C7 6931   0.243   5.229  10.025  1.0938 -0.8037 -0.4180
   61CHL1   H7A 6932   0.287   5.143   9.970 -0.4415 -1.3653 -0.8375
   61CHL1   H7B 6933   0.145   5.182  10.050  0.9155 -0.6719 -0.8653
   61CHL1    C8 6934   0.238   5.349   9.928  0.2197  0.6393  0.2737
   61CHL1    H8 6935   0.344   5.352   9.894  0.9784 -1.1493  2.2394
   61CHL1   C14 6936   0.131   5.326   9.828  0.0049 -0.0969  0.5380
   61CHL1   H14 6937   0.033   5.339   9.878  0.2157  1.1121  0.6551
   61CHL1   C15 6938   0.131   5.195   9.748 -0.4551  0.5043 -0.4992
   61CHL1  H15A 6939   0.235   5.161   9.729 -1.1433 -0.1144 -3.5859
   61CHL1  H15B 6940   0.071   5.121   9.806 -0.6044  0.6518 -0.4632
   61CHL1   C16 6941   0.072   5.223   9.613  0.3297 -0.2272 -0.3119
   61CHL1  H16A 6942   0.150   5.187   9.543  1.1050 -2.0624  1.3730
   61CHL1  H16B 6943  -0.025   5.170   9.600 -0.0287  0.1644  0.6068
   61CHL1   C17 6944   0.044   5.370   9.604  0.3573 -0.2003 -0.0603
   61CHL1   H17 6945  -0.059   5.390   9.640  0.2543 -0.3786 -0.2525
   61CHL1   C13 6946   0.130   5.437   9.716  0.3650 -0.4144  0.0509
   61CHL1   C18 6947   0.270   5.455   9.653 -0.3362 -0.1031  0.1549
   61CHL1  H18A 6948   0.279   5.556   9.606  0.5641  1.0718  2.6656
   61CHL1  H18B 6949   0.350   5.453   9.731  1.8859  1.5726 -1.9185
   61CHL1  H18C 6950   0.298   5.378   9.578 -0.5775 -0.3422  0.3065
   61CHL1   C12 6951   0.094   5.565   9.784 -0.2303 -0.1959 -0.4523
   61CHL1  H12A 6952   0.090   5.653   9.716 -1.0357 -0.2810 -0.5197
   61CHL1  H12B 6953  -0.005   5.549   9.831 -0.2237  0.9400 -0.0079
   61CHL1   C11 6954   0.193   5.602   9.898 -0.0348 -0.2055 -0.0955
   61CHL1  H11A 6955   0.281   5.635   9.840 -1.6587 -0.8496 -3.1307
   61CHL1  H11B 6956   0.143   5.689   9.947 -0.1255  1.8544 -3.5680
   61CHL1    C9 6957   0.219   5.484   9.996  0.1181 -0.1504 -0.0693
   61CHL1    H9 6958   0.121   5.465  10.045  0.6570 -2.1474  0.3209
   61CHL1   C10 6959   0.324   5.518  10.104  0.1408  0.2830  0.6903
   61CHL1   C19 6960   0.461   5.565  10.045 -0.3327  0.4518  0.2015
   61CHL1  H19A 6961   0.500   5.510   9.957  1.6749  0.6343  0.9182
   61CHL1  H19B 6962   0.463   5.672  10.014  1.4251 -0.1667 -2.0179
   61CHL1  H19C 6963   0.547   5.562  10.115  0.0351  2.6490 -0.0700
   61CHL1    C1 6964   0.269   5.630  10.198  0.0491 -0.2395 -0.3931
   61CHL1   H1A 6965   0.260   5.716  10.129 -1.4832 -2.9600 -3.9550
   61CHL1   H1B 6966   0.170   5.595  10.235  0.5659 -1.1548  0.1772
   61CHL1    C2 6967   0.352   5.659  10.321  0.4912 -0.9983  0.2907
   61CHL1   H2A 6968   0.312   5.739  10.387  1.2134 -0.4154  0.0328
   61CHL1   H2B 6969   0.455   5.685  10.287  0.5942 -1.3854  0.2964
   61CHL1   C20 6970   0.047   5.433   9.461 -0.3420 -0.6243 -0.3832
   61CHL1   H20 6971   0.149   5.429   9.419  0.3203 -2.0407  1.2663
   61CHL1   C21 6972   0.007   5.584   9.461 -0.1627 -0.1139  0.0563
   61CHL1  H21A 6973   0.003   5.624   9.358 -0.4130  1.0382  0.5019
   61CHL1  H21B 6974   0.092   5.637   9.508 -0.0692 -0.7523  0.6303
   61CHL1  H21C 6975  -0.086   5.601   9.520 -1.2008  0.2865 -1.6379
   61CHL1   C22 6976  -0.025   5.350   9.344 -0.3744 -0.3115  0.8972
   61CHL1  H22A 6977   0.001   5.243   9.332  1.3453  0.3655 -3.4475
   61CHL1  H22B 6978  -0.131   5.362   9.378 -0.2431 -0.7481  1.4760
   61CHL1   C23 6979  -0.011   5.412   9.202 -0.1893 -0.8244 -0.1786
   61CHL1  H23A 6980  -0.082   5.496   9.187 -0.6640 -1.4971 -2.0031
   61CHL1  H23B 6981   0.092   5.448   9.184 -0.4885 -0.6315 -1.6312
   61CHL1   C24 6982  -0.048   5.321   9.083  0.5509 -0.0333 -0.6760
   61CHL1  H24A 6983  -0.014   5.216   9.095  1.7276  0.5542  2.1192
   61CHL1  H24B 6984  -0.157   5.301   9.078  0.7671 -3.7109  3.0736
   61CHL1   C25 6985  -0.003   5.366   8.947  0.2357  0.1000 -0.0194
   61CHL1   H25 6986  -0.045   5.295   8.874  0.0271 -2.5438  2.5013
   61CHL1   C26 6987  -0.073   5.495   8.909 -0.1838  0.2951  0.0581
   61CHL1  H26A 6988  -0.087   5.514   8.800 -3.1985 -0.2079  0.2776
   61CHL1  H26B 6989  -0.173   5.517   8.950 -1.4982 -1.7542 -1.8047
   61CHL1  H26C 6990  -0.025   5.582   8.959  0.5799 -0.8260  1.3410
   61CHL1   C27 6991   0.152   5.363   8.933 -0.2301  0.0676  0.7457
   61CHL1  H27A 6992   0.199   5.459   8.961 -1.6067  1.0011  0.0143
   61CHL1  H27B 6993   0.185   5.279   8.998 -0.8750 -0.0439  0.9369
   61CHL1  H27C 6994   0.174   5.338   8.827  1.3083  2.1527  0.5285
   62CHL1    C3 6995   0.592   2.385  10.064  0.0646 -0.3253 -0.8483
   62CHL1    H3 6996   0.681   2.338  10.112 -2.0963 -1.6127  2.1962
   62CHL1    O3 6997   0.519   2.462  10.155 -0.4748 -0.0515 -0.1449
   62CHL1   H3' 6998   0.453   2.496  10.093 -0.7698 -1.6270 -0.7270
   62CHL1    C4 6999   0.628   2.479   9.953 -0.0805  0.2620 -0.2440
   62CHL1   H4A 7000   0.531   2.523   9.920 -1.0562 -0.6099  1.3507
   62CHL1   H4B 7001   0.699   2.561   9.978 -0.3661 -0.0052  1.5179
   62CHL1    C5 7002   0.671   2.422   9.823 -0.5087 -0.2615 -0.8828
   62CHL1    C6 7003   0.776   2.474   9.765  0.0273  0.6956  0.5003
   62CHL1    H6 7004   0.810   2.570   9.808  1.7727 -0.3964  1.7246
   62CHL1    C7 7005   0.818   2.432   9.631  0.3483  0.2188  0.2182
   62CHL1   H7A 7006   0.816   2.520   9.563  0.5156 -1.4902 -2.1307
   62CHL1   H7B 7007   0.927   2.412   9.626  0.0885 -1.1372 -0.8974
   62CHL1    C8 7008   0.736   2.313   9.566 -0.5118  0.0309  0.8634
   62CHL1    H8 7009   0.643   2.354   9.520 -0.5855  0.8283  1.6944
   62CHL1   C14 7010   0.818   2.232   9.460  0.1345 -0.3698  0.0667
   62CHL1   H14 7011   0.904   2.186   9.514  1.4130  0.7907 -0.9015
   62CHL1   C15 7012   0.883   2.316   9.341 -0.8716  0.0412 -1.0150
   62CHL1  H15A 7013   0.808   2.390   9.306  2.6663  3.9900 -1.0139
   62CHL1  H15B 7014   0.966   2.375   9.386  0.1417 -1.7817 -0.4022
   62CHL1   C16 7015   0.920   2.210   9.235  0.0072  0.4999  0.8022
   62CHL1  H16A 7016   0.886   2.247   9.136 -0.1212  0.9930  1.0300
   62CHL1  H16B 7017   1.030   2.198   9.229 -0.0370 -0.4734  1.6626
   62CHL1   C17 7018   0.845   2.084   9.284 -0.4261  0.7002 -0.1461
   62CHL1   H17 7019   0.916   2.035   9.354 -0.0338  2.5539  0.8147
   62CHL1   C13 7020   0.737   2.125   9.385 -0.5512 -0.1911  0.4024
   62CHL1   C18 7021   0.611   2.190   9.319  0.0425  0.0653 -0.2777
   62CHL1  H18A 7022   0.642   2.269   9.248  4.4480  0.6332  1.9607
   62CHL1  H18B 7023   0.557   2.109   9.265  2.0096 -1.0825 -0.6344
   62CHL1  H18C 7024   0.529   2.238   9.376 -2.0726  0.8943 -3.7504
   62CHL1   C12 7025   0.694   2.018   9.497  0.7082 -0.4979 -0.3290
   62CHL1  H12A 7026   0.628   1.941   9.452 -1.2150 -0.5642  2.3507
   62CHL1  H12B 7027   0.780   1.966   9.545  1.3684 -0.6866 -1.6685
   62CHL1   C11 7028   0.616   2.082   9.612 -0.0527 -0.4747  0.3148
   62CHL1  H11A 7029   0.516   2.100   9.568 -0.3796  2.8184  2.1538
   62CHL1  H11B 7030   0.598   2.007   9.692  0.0335  0.0790  0.8542
   62CHL1    C9 7031   0.681   2.215   9.670 -0.2743 -0.6736  0.1846
   62CHL1    H9 7032   0.778   2.183   9.716  0.8894 -1.0962 -2.3831
   62CHL1   C10 7033   0.601   2.296   9.773 -0.2162  0.3295 -0.0038
   62CHL1   C19 7034   0.470   2.340   9.713 -0.0954 -0.1607  0.5853
   62CHL1  H19A 7035   0.406   2.382   9.793  0.1613  0.8212  0.2955
   62CHL1  H19B 7036   0.466   2.422   9.638 -0.8443 -0.6207  0.1059
   62CHL1  H19C 7037   0.411   2.257   9.669 -0.9900  1.6178 -1.8151
   62CHL1    C1 7038   0.580   2.205   9.895 -0.1300  0.3595  0.1097
   62CHL1   H1A 7039   0.511   2.123   9.863  0.6124 -0.4750  0.5822
   62CHL1   H1B 7040   0.676   2.162   9.932 -0.2055 -0.8167 -0.9866
   62CHL1    C2 7041   0.510   2.265  10.021 -1.2647  0.4393 -0.1518
   62CHL1   H2A 7042   0.505   2.184  10.096 -2.3213 -0.9129 -1.6176
   62CHL1   H2B 7043   0.404   2.289  10.001 -1.0717 -0.8269 -3.3471
   62CHL1   C20 7044   0.813   1.978   9.170 -0.2761  0.3293  0.3349
   62CHL1   H20 7045   0.746   1.905   9.221 -0.2359 -1.1128 -1.5712
   62CHL1   C21 7046   0.928   1.897   9.135 -0.4252  0.9334  0.5564
   62CHL1  H21A 7047   0.919   1.841   9.040  0.4529 -0.4407  1.2642
   62CHL1  H21B 7048   0.959   1.818   9.206  0.2680 -0.6162 -1.3921
   62CHL1  H21C 7049   1.013   1.967   9.123  0.4586 -0.4058 -1.5036
   62CHL1   C22 7050   0.751   2.042   9.041  0.5847  0.1692  0.4455
   62CHL1  H22A 7051   0.699   2.133   9.077 -0.5786  0.3702 -1.5781
   62CHL1  H22B 7052   0.833   2.079   8.976  0.1364  0.6615  0.1421
   62CHL1   C23 7053   0.649   1.945   8.979 -0.1507 -0.4289 -0.6522
   62CHL1  H23A 7054   0.687   1.841   8.980 -1.6204 -0.9994 -0.8055
   62CHL1  H23B 7055   0.552   1.935   9.033 -0.3190 -2.0283 -1.1880
   62CHL1   C24 7056   0.622   1.982   8.833  0.2916  0.1590 -0.5659
   62CHL1  H24A 7057   0.546   2.063   8.834 -0.7677 -0.8109  0.1961
   62CHL1  H24B 7058   0.712   2.009   8.774  0.3224 -3.6183 -2.6456
   62CHL1   C25 7059   0.553   1.857   8.757  0.4124 -0.2790 -0.3343
   62CHL1   H25 7060   0.617   1.772   8.788  2.0256  1.4061  1.2710
   62CHL1   C26 7061   0.408   1.844   8.802  0.1687  0.4037  0.2315
   62CHL1  H26A 7062   0.362   1.754   8.758  0.7893  0.4708 -0.5711
   62CHL1  H26B 7063   0.402   1.851   8.913  0.5536  1.1751  0.2090
   62CHL1  H26C 7064   0.355   1.934   8.763 -0.7339 -0.0769  0.3315
   62CHL1   C27 7065   0.559   1.877   8.606  0.0973 -0.0397  0.1246
   62CHL1  H27A 7066   0.485   1.957   8.581 -1.2661  0.0732  3.8301
   62CHL1  H27B 7067   0.663   1.888   8.571 -0.0406  0.6696 -0.0986
   62CHL1  H27C 7068   0.522   1.780   8.567 -0.4732  0.6248 -1.0304
   63CHL1    C3 7069   4.606   5.711  10.311  0.2482 -0.5398  0.3879
   63CHL1    H3 7070   4.702   5.657  10.326  0.5485  0.6364  3.4514
   63CHL1    O3 7071   4.544   5.723  10.435  0.2782  0.4839 -0.5295
   63CHL1   H3' 7072   4.512   5.814  10.438 -0.7701  0.1519 -1.2329
   63CHL1    C4 7073   4.625   5.853  10.269 -0.0715 -0.1600  0.1497
   63CHL1   H4A 7074   4.536   5.920  10.269  1.9244  2.8239 -2.9278
   63CHL1   H4B 7075   4.692   5.903  10.341 -0.0922  1.1609 -0.7233
   63CHL1    C5 7076   4.690   5.857  10.129  0.4717 -0.0768  0.1465
   63CHL1    C6 7077   4.802   5.929  10.103 -0.1967 -0.5166  0.3643
   63CHL1    H6 7078   4.855   5.975  10.187  1.1415 -0.9194 -0.2385
   63CHL1    C7 7079   4.870   5.939   9.969 -0.3777  0.0832 -0.3607
   63CHL1   H7A 7080   4.924   6.035   9.951  0.5059  0.1217  2.0856
   63CHL1   H7B 7081   4.961   5.875   9.970  1.3968  2.4646  0.4267
   63CHL1    C8 7082   4.778   5.898   9.851 -0.1271  0.8928 -0.2802
   63CHL1    H8 7083   4.703   5.980   9.843  0.4754  1.4187 -0.5856
   63CHL1   C14 7084   4.863   5.884   9.731  0.6208 -0.8677  0.4975
   63CHL1   H14 7085   4.935   5.802   9.747  2.6973  1.0674  1.6637
   63CHL1   C15 7086   4.955   6.002   9.692 -0.4399  0.6293 -0.1994
   63CHL1  H15A 7087   4.888   6.091   9.687  0.4694  1.2706 -1.9271
   63CHL1  H15B 7088   5.038   6.025   9.761 -0.3420 -0.4454  0.0590
   63CHL1   C16 7089   4.993   5.962   9.547  0.1910 -0.0144  0.0863
   63CHL1  H16A 7090   4.968   6.054   9.490 -0.5419  0.4483  1.1263
   63CHL1  H16B 7091   5.098   5.930   9.531  0.0843 -0.2208 -0.2208
   63CHL1   C17 7092   4.895   5.845   9.501 -0.0288  0.4496  0.2027
   63CHL1   H17 7093   4.947   5.748   9.515 -1.7893 -0.5352  0.3051
   63CHL1   C13 7094   4.783   5.840   9.606 -0.0297 -0.0836  1.0853
   63CHL1   C18 7095   4.685   5.957   9.576  0.0630 -0.1797  0.2022
   63CHL1  H18A 7096   4.612   5.939   9.494 -0.7666  1.4433  0.5346
   63CHL1  H18B 7097   4.611   5.981   9.655 -2.2501 -1.2516 -1.5198
   63CHL1  H18C 7098   4.736   6.053   9.552  1.3648 -1.0639 -0.7577
   63CHL1   C12 7099   4.706   5.712   9.629 -0.4681 -0.2968  0.0319
   63CHL1  H12A 7100   4.636   5.689   9.547  0.5807 -0.0040 -0.9781
   63CHL1  H12B 7101   4.790   5.640   9.636 -0.9454 -0.8050  0.6443
   63CHL1   C11 7102   4.622   5.716   9.764 -0.8264 -0.3961  1.4164
   63CHL1  H11A 7103   4.537   5.770   9.716  1.2314  0.5181 -1.4696
   63CHL1  H11B 7104   4.588   5.615   9.796 -1.4075 -0.8022 -0.3725
   63CHL1    C9 7105   4.700   5.762   9.886  0.4349 -0.1387 -0.5482
   63CHL1    H9 7106   4.776   5.685   9.910  0.7177  0.0212 -0.9290
   63CHL1   C10 7107   4.613   5.780  10.013 -0.1760  0.3058  0.1861
   63CHL1   C19 7108   4.480   5.845   9.980 -0.3307 -1.0893  0.1617
   63CHL1  H19A 7109   4.489   5.937   9.919 -0.6382  0.1889  1.9709
   63CHL1  H19B 7110   4.420   5.772   9.920 -0.3144 -1.9328  1.1495
   63CHL1  H19C 7111   4.422   5.863  10.073  0.4220 -0.0565  0.4458
   63CHL1    C1 7112   4.587   5.637  10.078  0.3009  0.0170  0.1141
   63CHL1   H1A 7113   4.529   5.573  10.007 -0.5835  3.1911 -2.2737
   63CHL1   H1B 7114   4.680   5.577  10.087  0.1121 -0.5290 -1.3037
   63CHL1    C2 7115   4.518   5.631  10.214 -0.4191 -0.6908  0.6402
   63CHL1   H2A 7116   4.507   5.529  10.257  0.5264 -0.1153  2.3687
   63CHL1   H2B 7117   4.422   5.683  10.194 -0.6881 -0.8638  1.4132
   63CHL1   C20 7118   4.873   5.849   9.345  0.0566  0.2047  0.3347
   63CHL1   H20 7119   4.814   5.941   9.325 -2.6248 -0.9349  2.3799
   63CHL1   C21 7120   4.789   5.725   9.300 -0.1214 -0.1170  0.2736
   63CHL1  H21A 7121   4.848   5.633   9.314  0.6193  0.2735 -0.1978
   63CHL1  H21B 7122   4.771   5.730   9.190 -0.8566  1.8577  0.4295
   63CHL1  H21C 7123   4.686   5.731   9.341 -0.1244  0.8323  0.1736
   63CHL1   C22 7124   5.006   5.854   9.259 -0.1825  0.4112 -0.7724
   63CHL1  H22A 7125   5.087   5.914   9.305  0.0223 -0.2372 -0.2741
   63CHL1  H22B 7126   5.049   5.751   9.258  0.5307  0.7032 -0.3187
   63CHL1   C23 7127   4.989   5.902   9.116  0.0822 -0.6522  0.1535
   63CHL1  H23A 7128   4.925   5.838   9.052  1.4425 -1.7501 -0.1502
   63CHL1  H23B 7129   4.945   6.004   9.128 -1.0660 -1.4655  4.8445
   63CHL1   C24 7130   5.124   5.916   9.037 -0.1784 -0.0990 -0.3586
   63CHL1  H24A 7131   5.206   5.957   9.100 -0.5302 -0.3898  0.3021
   63CHL1  H24B 7132   5.157   5.816   9.000  0.3128 -1.0017  2.2728
   63CHL1   C25 7133   5.115   5.998   8.912 -0.0576 -0.1094  0.2573
   63CHL1   H25 7134   5.025   5.967   8.854  2.1627 -2.7672 -2.0675
   63CHL1   C26 7135   5.117   6.153   8.944  0.4556  0.5098  0.2634
   63CHL1  H26A 7136   5.211   6.165   9.001 -0.5278  1.2045  1.8016
   63CHL1  H26B 7137   5.118   6.214   8.851 -1.2346 -1.7484 -1.3653
   63CHL1  H26C 7138   5.030   6.186   9.006  1.1787  1.1573  0.9512
   63CHL1   C27 7139   5.233   5.963   8.820  1.2216  0.1642  0.3352
   63CHL1  H27A 7140   5.242   5.852   8.815  0.3162 -0.0821  2.8547
   63CHL1  H27B 7141   5.227   6.007   8.718  0.7433 -2.2354 -0.7311
   63CHL1  H27C 7142   5.320   6.003   8.876  0.2612  1.4795  0.9503
   64CHL1    C3 7143   0.965   2.185  10.057 -0.8801  0.7418  0.1287
   64CHL1    H3 7144   0.899   2.214   9.972 -1.4164  0.8630  0.5777
   64CHL1    O3 7145   0.892   2.191  10.177 -0.1935 -0.2256 -0.5031
   64CHL1   H3' 7146   0.903   2.282  10.205  1.7979 -0.0663 -1.6275
   64CHL1    C4 7147   0.999   2.039  10.030 -0.7927 -0.1796 -0.2929
   64CHL1   H4A 7148   1.057   1.997  10.115  2.3838  1.7788 -1.2962
   64CHL1   H4B 7149   0.901   1.987  10.020 -0.9367 -0.4598  2.0808
   64CHL1    C5 7150   1.072   2.016   9.901 -0.0224 -1.1789 -0.0235
   64CHL1    C6 7151   1.012   1.951   9.802 -0.0210 -0.3097 -0.4038
   64CHL1    H6 7152   0.926   1.883   9.816  0.7891 -1.0053  1.5268
   64CHL1    C7 7153   1.069   1.941   9.666  0.8959 -0.2002 -0.7116
   64CHL1   H7A 7154   1.066   1.839   9.624  2.3372 -0.0804 -1.1452
   64CHL1   H7B 7155   1.003   1.999   9.597  1.0760 -0.0333 -0.7450
   64CHL1    C8 7156   1.215   1.989   9.656  1.3300  0.5439 -0.2892
   64CHL1    H8 7157   1.286   1.912   9.691  0.3505 -1.1034 -1.7428
   64CHL1   C14 7158   1.238   2.021   9.507 -0.3125  0.2479 -1.0479
   64CHL1   H14 7159   1.173   2.106   9.476 -1.6187 -0.6035 -0.6871
   64CHL1   C15 7160   1.205   1.907   9.410 -0.4589  0.1369 -0.5456
   64CHL1  H15A 7161   1.263   1.823   9.452 -0.0823  1.8395  2.6908
   64CHL1  H15B 7162   1.094   1.895   9.401 -0.6628  0.5828  1.0487
   64CHL1   C16 7163   1.286   1.947   9.284  0.3557  0.0847  0.4319
   64CHL1  H16A 7164   1.353   1.862   9.260 -1.7044 -1.0903 -1.5982
   64CHL1  H16B 7165   1.220   1.973   9.198 -2.5446  0.9569  2.7416
   64CHL1   C17 7166   1.368   2.071   9.325 -0.5866 -0.1302 -0.0288
   64CHL1   H17 7167   1.308   2.161   9.301 -0.3279  0.5385  1.6576
   64CHL1   C13 7168   1.381   2.066   9.471  0.0148  0.3607  0.1136
   64CHL1   C18 7169   1.483   1.962   9.514 -0.0789  0.6944  0.7341
   64CHL1  H18A 7170   1.480   1.947   9.624  3.1973  0.5156  0.8856
   64CHL1  H18B 7171   1.470   1.862   9.466  2.2725 -0.3379  2.0424
   64CHL1  H18C 7172   1.588   1.990   9.492 -0.1032 -0.2978 -0.7816
   64CHL1   C12 7173   1.405   2.194   9.553 -0.3318 -0.4602 -0.0813
   64CHL1  H12A 7174   1.505   2.239   9.533 -0.5168 -0.8537 -2.0792
   64CHL1  H12B 7175   1.328   2.264   9.517 -1.7763 -1.2334  1.3462
   64CHL1   C11 7176   1.383   2.178   9.702 -0.2801  0.1125 -0.1401
   64CHL1  H11A 7177   1.456   2.105   9.743 -0.2584  0.3218  0.1945
   64CHL1  H11B 7178   1.392   2.280   9.745  0.7376  0.4377 -1.0793
   64CHL1    C9 7179   1.239   2.124   9.721  0.4650 -0.0847 -0.7516
   64CHL1    H9 7180   1.171   2.195   9.669 -1.3798 -0.6586  0.7631
   64CHL1   C10 7181   1.196   2.111   9.876  0.2739  0.0378  0.6745
   64CHL1   C19 7182   1.320   2.051   9.950  0.0432  0.7088  0.1616
   64CHL1  H19A 7183   1.405   2.123   9.949 -0.6070  1.4845 -0.7595
   64CHL1  H19B 7184   1.276   2.016  10.046  0.2294 -1.1030 -0.3795
   64CHL1  H19C 7185   1.344   1.951   9.908 -2.1023 -0.6619  2.0084
   64CHL1    C1 7186   1.160   2.257   9.919 -0.1350 -0.4069 -0.5839
   64CHL1   H1A 7187   1.251   2.321   9.919 -1.0329  0.9457 -2.0281
   64CHL1   H1B 7188   1.094   2.304   9.843 -0.1775 -0.8807 -0.8413
   64CHL1    C2 7189   1.091   2.272  10.057 -0.4353 -0.1924  0.1463
   64CHL1   H2A 7190   1.041   2.371  10.058 -1.3083 -0.4893 -2.8810
   64CHL1   H2B 7191   1.154   2.249  10.145  2.0419  0.3177 -1.3939
   64CHL1   C20 7192   1.492   2.103   9.234 -0.0401 -0.7200 -0.0490
   64CHL1   H20 7193   1.570   2.027   9.259  1.5369 -0.0746 -2.6560
   64CHL1   C21 7194   1.552   2.246   9.251 -0.3344 -0.3527 -0.5130
   64CHL1  H21A 7195   1.475   2.322   9.229  0.6623  0.6991 -0.4709
   64CHL1  H21B 7196   1.638   2.256   9.181 -1.5529 -1.1878 -2.2030
   64CHL1  H21C 7197   1.583   2.267   9.356  0.2780  0.6170 -0.8700
   64CHL1   C22 7198   1.466   2.076   9.082  0.5259  0.1848 -0.4140
   64CHL1  H22A 7199   1.562   2.084   9.027  1.1181  0.5967  0.6591
   64CHL1  H22B 7200   1.441   1.970   9.061 -0.5047  0.3101  0.1388
   64CHL1   C23 7201   1.374   2.168   9.009 -0.0842 -0.5218  0.5718
   64CHL1  H23A 7202   1.273   2.179   9.054 -0.1719  0.5328  0.1582
   64CHL1  H23B 7203   1.417   2.271   9.008  0.5770 -0.7925  0.2392
   64CHL1   C24 7204   1.340   2.128   8.867  0.5210  0.0492  0.2978
   64CHL1  H24A 7205   1.426   2.148   8.799 -0.6071 -0.6881 -1.4094
   64CHL1  H24B 7206   1.306   2.022   8.868 -0.3718  0.2123  4.3316
   64CHL1   C25 7207   1.233   2.214   8.792 -0.1283 -0.0231 -0.1669
   64CHL1   H25 7208   1.265   2.320   8.800 -0.5735  0.0447  0.8166
   64CHL1   C26 7209   1.221   2.176   8.642  0.1940  0.4511  0.7223
   64CHL1  H26A 7210   1.321   2.162   8.596 -0.0615  1.7018 -0.2754
   64CHL1  H26B 7211   1.165   2.082   8.623  1.8900 -0.4746  0.0576
   64CHL1  H26C 7212   1.162   2.251   8.585 -1.4924 -0.2795  1.4315
   64CHL1   C27 7213   1.089   2.216   8.857 -0.0770 -0.0518 -0.1242
   64CHL1  H27A 7214   1.024   2.133   8.820 -0.8317 -0.7105  2.4777
   64CHL1  H27B 7215   1.099   2.224   8.967 -0.4138  2.8293 -0.2480
   64CHL1  H27C 7216   1.024   2.296   8.814  0.9072 -1.1319 -4.0548
   65CHL1    C3 7217   6.409   0.057  10.237  0.3856 -0.3750 -0.2303
   65CHL1    H3 7218   6.317   0.015  10.283  0.4936 -4.0661 -2.9191
   65CHL1    O3 7219   6.507   0.109  10.335  0.4560 -0.2716 -0.5208
   65CHL1   H3' 7220   6.536   0.031  10.382 -2.1929  0.4990  2.8130
   65CHL1    C4 7221   6.471  -0.057  10.164  0.2601 -0.3622  0.2258
   65CHL1   H4A 7222   6.575  -0.033  10.132 -0.5319  1.3423 -1.2625
   65CHL1   H4B 7223   6.472  -0.140  10.238 -0.0367 -0.1683  0.4508
   65CHL1    C5 7224   6.379  -0.094  10.045 -0.0276  0.6831 -0.6868
   65CHL1    C6 7225   6.332  -0.219  10.027 -0.1564  0.1033 -0.3479
   65CHL1    H6 7226   6.365  -0.300  10.094 -0.7192 -0.8988 -1.2532
   65CHL1    C7 7227   6.252  -0.269   9.909  0.0765  0.2647 -0.6194
   65CHL1   H7A 7228   6.300  -0.355   9.856 -0.2663  0.3557 -1.0917
   65CHL1   H7B 7229   6.155  -0.296   9.955  0.1926  1.7315  0.5505
   65CHL1    C8 7230   6.239  -0.162   9.798  0.2615  0.9200  0.3595
   65CHL1    H8 7231   6.341  -0.171   9.753 -0.1518 -0.0925 -0.4069
   65CHL1   C14 7232   6.129  -0.191   9.699 -0.7083 -0.0009  0.8502
   65CHL1   H14 7233   6.028  -0.183   9.746 -0.7425  0.7702  0.6578
   65CHL1   C15 7234   6.134  -0.339   9.645 -0.5895 -0.6025 -0.5434
   65CHL1  H15A 7235   6.238  -0.370   9.622 -0.7355 -2.1057  0.6670
   65CHL1  H15B 7236   6.081  -0.411   9.711 -0.6123  1.9226  2.4088
   65CHL1   C16 7237   6.060  -0.334   9.511 -0.5029  0.1146  0.8016
   65CHL1  H16A 7238   6.128  -0.366   9.429 -1.0575 -0.7128  0.6499
   65CHL1  H16B 7239   5.970  -0.399   9.509 -0.5105  0.0898  1.6455
   65CHL1   C17 7240   6.017  -0.187   9.486  0.2618 -0.7103  0.1643
   65CHL1   H17 7241   5.928  -0.169   9.550  0.6121  1.0384  0.2017
   65CHL1   C13 7242   6.118  -0.102   9.579 -0.1883 -0.0286  0.1667
   65CHL1   C18 7243   6.245  -0.085   9.491  0.2104 -1.0935 -0.0291
   65CHL1  H18A 7244   6.237  -0.000   9.420  0.3714 -0.4441  0.7053
   65CHL1  H18B 7245   6.334  -0.061   9.553  1.1107 -2.5067 -0.7322
   65CHL1  H18C 7246   6.256  -0.171   9.422 -0.7931 -0.9645 -0.3691
   65CHL1   C12 7247   6.080   0.037   9.625  0.6579  0.0223 -0.1134
   65CHL1  H12A 7248   6.091   0.114   9.546  0.5797 -1.3559 -1.5312
   65CHL1  H12B 7249   5.976   0.029   9.663  0.4569 -0.9443 -0.8307
   65CHL1   C11 7250   6.183   0.086   9.736  0.7523 -0.4084 -0.2125
   65CHL1  H11A 7251   6.278   0.126   9.694  0.2526 -0.2990 -1.3010
   65CHL1  H11B 7252   6.119   0.167   9.777 -0.7176 -0.5672 -2.0566
   65CHL1    C9 7253   6.221  -0.014   9.851 -0.5021  0.1580  0.1274
   65CHL1    H9 7254   6.131  -0.020   9.916  0.6783 -0.9661  1.7341
   65CHL1   C10 7255   6.338   0.023   9.946 -0.1599  0.6867  0.1808
   65CHL1   C19 7256   6.471   0.063   9.872  0.7570  0.1149 -0.7722
   65CHL1  H19A 7257   6.458   0.166   9.832  1.5701  0.8218  0.7060
   65CHL1  H19B 7258   6.548   0.080   9.949  1.2650  1.0656 -1.4650
   65CHL1  H19C 7259   6.498  -0.009   9.792 -0.9114 -0.7776 -0.5775
   65CHL1    C1 7260   6.282   0.135  10.035 -0.3817  0.7899 -0.7576
   65CHL1   H1A 7261   6.260   0.225   9.974 -2.2274  0.1290 -1.1299
   65CHL1   H1B 7262   6.187   0.098  10.080  0.0574  1.0452  0.4168
   65CHL1    C2 7263   6.373   0.177  10.147  0.9179 -0.1231 -0.5182
   65CHL1   H2A 7264   6.324   0.255  10.209 -0.2829 -1.3084  0.0802
   65CHL1   H2B 7265   6.467   0.222  10.111  1.3509  0.1817  0.9277
   65CHL1   C20 7266   5.986  -0.146   9.347 -0.1509  0.7224  0.8413
   65CHL1   H20 7267   6.086  -0.139   9.297 -0.7151 -0.1493 -0.4877
   65CHL1   C21 7268   5.904  -0.018   9.334  0.8147  0.5794 -0.2179
   65CHL1  H21A 7269   5.887   0.007   9.227 -0.0252 -3.3038 -1.1468
   65CHL1  H21B 7270   5.951   0.069   9.383  2.0938  0.0134 -0.4127
   65CHL1  H21C 7271   5.804  -0.021   9.382 -0.0921  1.2528 -1.9500
   65CHL1   C22 7272   5.921  -0.259   9.265 -0.0521 -0.4749 -0.2875
   65CHL1  H22A 7273   5.923  -0.216   9.162 -0.1670  1.1033  0.3358
   65CHL1  H22B 7274   5.973  -0.357   9.273  0.4094 -0.1531  0.8175
   65CHL1   C23 7275   5.773  -0.286   9.278 -0.0907  0.4178  1.1738
   65CHL1  H23A 7276   5.742  -0.342   9.369 -1.0816  0.8443  1.1091
   65CHL1  H23B 7277   5.703  -0.200   9.271 -0.6905  0.1122  2.9265
   65CHL1   C24 7278   5.732  -0.381   9.164  0.4153  1.1561  0.0651
   65CHL1  H24A 7279   5.751  -0.323   9.071 -2.6770  1.2170 -0.6407
   65CHL1  H24B 7280   5.797  -0.470   9.154 -1.3510  0.0299 -2.4643
   65CHL1   C25 7281   5.581  -0.430   9.176 -0.1460 -0.2580  0.1755
   65CHL1   H25 7282   5.521  -0.343   9.208 -1.6571 -1.1805 -0.0429
   65CHL1   C26 7283   5.514  -0.472   9.045  0.0181 -0.0093  0.4603
   65CHL1  H26A 7284   5.495  -0.387   8.976  0.6986 -1.8279 -2.0969
   65CHL1  H26B 7285   5.579  -0.549   8.999 -1.2769 -1.6159  1.2114
   65CHL1  H26C 7286   5.417  -0.525   9.056 -0.9235  1.3032 -1.0514
   65CHL1   C27 7287   5.561  -0.544   9.280  0.0505  1.0310 -0.2002
   65CHL1  H27A 7288   5.621  -0.629   9.242  0.9228  1.1615  0.8375
   65CHL1  H27B 7289   5.607  -0.508   9.375  0.6161  1.4993 -0.6387
   65CHL1  H27C 7290   5.461  -0.590   9.292  0.9360 -0.9448  0.0763
   66CHL1    C3 7291   3.864   5.391  10.387  0.5610  0.1463 -0.6450
   66CHL1    H3 7292   3.758   5.414  10.362 -0.8819 -2.2198  2.6020
   66CHL1    O3 7293   3.855   5.342  10.519 -0.3786 -0.4994  0.8215
   66CHL1   H3' 7294   3.945   5.315  10.536  0.8344  1.9147 -1.0865
   66CHL1    C4 7295   3.918   5.288  10.295  0.2727 -0.0475 -0.0699
   66CHL1   H4A 7296   4.001   5.242  10.352 -0.9209  0.6189  2.3586
   66CHL1   H4B 7297   3.845   5.205  10.280 -1.1761  0.7137  2.2205
   66CHL1    C5 7298   3.969   5.329  10.156  0.8896  0.0635  0.4256
   66CHL1    C6 7299   3.932   5.253  10.051 -0.3056 -1.0609  0.3799
   66CHL1    H6 7300   3.870   5.163  10.064 -1.1248 -0.2606  2.2350
   66CHL1    C7 7301   3.975   5.287   9.907 -0.1818 -0.5287  0.8002
   66CHL1   H7A 7302   4.020   5.192   9.871 -0.5541 -0.6221  0.5825
   66CHL1   H7B 7303   3.892   5.312   9.838  1.2510  3.1066  0.1526
   66CHL1    C8 7304   4.080   5.400   9.898  0.5652  0.4622 -0.5298
   66CHL1    H8 7305   4.171   5.338   9.916 -0.6067 -0.6904  1.9964
   66CHL1   C14 7306   4.078   5.455   9.759  0.1989 -0.8258 -0.6457
   66CHL1   H14 7307   3.982   5.509   9.745  1.0926  0.8649 -0.5443
   66CHL1   C15 7308   4.089   5.345   9.641 -0.6508  0.2262  0.1891
   66CHL1  H15A 7309   4.155   5.261   9.672 -0.0453  1.4037  2.2788
   66CHL1  H15B 7310   3.989   5.299   9.622  0.0763 -0.4469 -2.5094
   66CHL1   C16 7311   4.140   5.425   9.523  0.0112  0.9277  0.1309
   66CHL1  H16A 7312   4.238   5.381   9.492  0.5946  1.3566  1.3325
   66CHL1  H16B 7313   4.065   5.427   9.441 -1.3114  0.2733  1.2860
   66CHL1   C17 7314   4.168   5.566   9.577  0.0557 -0.1351  0.6015
   66CHL1   H17 7315   4.072   5.622   9.569 -1.2780 -2.3638  0.3034
   66CHL1   C13 7316   4.185   5.558   9.729  0.3718 -1.1355  0.4709
   66CHL1   C18 7317   4.325   5.501   9.758  0.2375  0.1981 -0.4010
   66CHL1  H18A 7318   4.329   5.480   9.867 -0.6336  1.5608 -0.0750
   66CHL1  H18B 7319   4.337   5.411   9.694 -1.1971 -0.3383  0.0340
   66CHL1  H18C 7320   4.399   5.580   9.733 -0.2789  0.4137 -1.3277
   66CHL1   C12 7321   4.139   5.672   9.819 -0.0951 -0.0908  0.3817
   66CHL1  H12A 7322   4.212   5.756   9.816  0.0140 -0.1095  1.8111
   66CHL1  H12B 7323   4.040   5.712   9.790  1.2972  2.3860 -1.3775
   66CHL1   C11 7324   4.146   5.635   9.968 -0.0845  0.2409 -0.4008
   66CHL1  H11A 7325   4.254   5.617   9.984 -0.4288 -0.1025  1.9118
   66CHL1  H11B 7326   4.107   5.718  10.032  0.1805  0.5815 -0.6746
   66CHL1    C9 7327   4.050   5.513   9.996  0.3263 -0.6823 -0.2929
   66CHL1    H9 7328   3.948   5.549   9.971  0.1242  0.1060  1.5187
   66CHL1   C10 7329   4.041   5.464  10.148  0.1576  0.0922  0.2672
   66CHL1   C19 7330   4.184   5.446  10.201  0.1808  0.2225  0.3565
   66CHL1  H19A 7331   4.250   5.395  10.128  0.1601  1.3838 -0.5007
   66CHL1  H19B 7332   4.234   5.544  10.218 -0.7257  0.4639  1.7660
   66CHL1  H19C 7333   4.177   5.389  10.296 -1.0688 -1.5751 -0.7552
   66CHL1    C1 7334   3.974   5.564  10.244  0.0099  0.0812 -0.0293
   66CHL1   H1A 7335   4.039   5.654  10.245  2.0076 -1.3038 -0.5512
   66CHL1   H1B 7336   3.877   5.590  10.195 -1.5450 -2.5682  1.4503
   66CHL1    C2 7337   3.946   5.515  10.388 -0.2508 -0.4683 -0.5648
   66CHL1   H2A 7338   3.888   5.597  10.434  1.9257  1.7471 -1.5811
   66CHL1   H2B 7339   4.045   5.513  10.438  0.0110  3.6101 -0.5840
   66CHL1   C20 7340   4.271   5.651   9.497  0.4828  0.4634 -0.6294
   66CHL1   H20 7341   4.377   5.620   9.511 -0.5073 -1.8495  2.9557
   66CHL1   C21 7342   4.251   5.801   9.525 -0.3165 -1.0121 -0.1975
   66CHL1  H21A 7343   4.281   5.827   9.628 -2.2284 -0.9203  0.3869
   66CHL1  H21B 7344   4.146   5.836   9.530 -0.1619 -0.4726 -0.6495
   66CHL1  H21C 7345   4.313   5.860   9.454 -0.2562 -2.6487 -1.5784
   66CHL1   C22 7346   4.263   5.629   9.342 -0.2535  0.7383  0.2813
   66CHL1  H22A 7347   4.253   5.520   9.319 -2.1296  0.8648  0.3195
   66CHL1  H22B 7348   4.174   5.687   9.308  0.9423  2.0854 -0.6649
   66CHL1   C23 7349   4.383   5.678   9.262  0.4928 -0.5705  0.0411
   66CHL1  H23A 7350   4.407   5.784   9.288  1.5728 -0.7618 -0.1506
   66CHL1  H23B 7351   4.459   5.608   9.302  0.3746  0.4416  2.2187
   66CHL1   C24 7352   4.368   5.661   9.113 -1.0239 -0.0510 -0.4676
   66CHL1  H24A 7353   4.368   5.552   9.094  1.5499  0.2704 -2.9334
   66CHL1  H24B 7354   4.271   5.700   9.074 -0.9824  1.6157  0.9344
   66CHL1   C25 7355   4.493   5.703   9.031 -0.1466  0.2745  0.0798
   66CHL1   H25 7356   4.572   5.632   9.064  0.9160  0.5240 -1.7848
   66CHL1   C26 7357   4.478   5.671   8.882  0.7605 -0.3114  0.4025
   66CHL1  H26A 7358   4.558   5.717   8.819 -2.1218  3.0035 -1.1672
   66CHL1  H26B 7359   4.465   5.561   8.868  1.4334 -0.6126  2.0021
   66CHL1  H26C 7360   4.386   5.715   8.839  2.2185 -0.3319 -3.0942
   66CHL1   C27 7361   4.544   5.848   9.054 -0.1110 -0.0583  0.4192
   66CHL1  H27A 7362   4.465   5.925   9.038 -0.6972 -0.3305  1.7853
   66CHL1  H27B 7363   4.580   5.860   9.159  1.0643 -1.1579  0.1653
   66CHL1  H27C 7364   4.627   5.864   8.982 -1.4812  0.1114 -1.1703
   67CHL1    C3 7365   1.921   6.749  10.427  0.2889  0.6783  0.6350
   67CHL1    H3 7366   1.811   6.734  10.435  0.3250  0.2492  0.3152
   67CHL1    O3 7367   1.964   6.724  10.556  0.3801  0.3392 -0.3870
   67CHL1   H3' 7368   1.929   6.641  10.587  2.1424  0.6401  2.8119
   67CHL1    C4 7369   1.959   6.634  10.336  1.1814  0.7291 -0.0214
   67CHL1   H4A 7370   2.070   6.634  10.332  1.1751  0.0185 -0.4338
   67CHL1   H4B 7371   1.914   6.542  10.379  1.1300  0.5916 -0.3670
   67CHL1    C5 7372   1.911   6.655  10.196  0.1391  0.9479 -0.2761
   67CHL1    C6 7373   1.825   6.569  10.145 -0.2979 -0.2671 -0.0248
   67CHL1    H6 7374   1.800   6.483  10.208  1.1799  1.2774  2.8345
   67CHL1    C7 7375   1.767   6.582  10.003 -0.2345 -0.8200  0.1981
   67CHL1   H7A 7376   1.759   6.486   9.947  1.2749 -1.2085  0.5927
   67CHL1   H7B 7377   1.661   6.606  10.023 -0.1287 -1.0771  1.1432
   67CHL1    C8 7378   1.850   6.689   9.918 -0.6644  0.5996 -0.6330
   67CHL1    H8 7379   1.945   6.643   9.885 -0.0503 -0.0748  1.8797
   67CHL1   C14 7380   1.776   6.722   9.785 -0.1380  0.3163 -0.4375
   67CHL1   H14 7381   1.683   6.773   9.818 -0.3552  1.4784 -2.6421
   67CHL1   C15 7382   1.725   6.610   9.690  0.3772  0.4733 -0.4413
   67CHL1  H15A 7383   1.808   6.545   9.655 -0.9462 -0.4189 -2.0281
   67CHL1  H15B 7384   1.652   6.547   9.746  2.6479 -1.8473  0.1294
   67CHL1   C16 7385   1.673   6.690   9.566  0.3364 -0.0330  0.4410
   67CHL1  H16A 7386   1.704   6.634   9.476  0.7016  1.0384 -0.1101
   67CHL1  H16B 7387   1.564   6.706   9.557  0.7672  2.1756 -1.9880
   67CHL1   C17 7388   1.745   6.826   9.576 -0.6323 -0.1872 -0.0847
   67CHL1   H17 7389   1.659   6.887   9.612 -2.3402 -2.7095  0.3082
   67CHL1   C13 7390   1.850   6.820   9.694 -0.2518 -0.5094 -0.1323
   67CHL1   C18 7391   1.986   6.759   9.642 -0.3704 -0.1667  0.0981
   67CHL1  H18A 7392   2.037   6.726   9.735 -2.6479 -0.2358  1.3898
   67CHL1  H18B 7393   1.968   6.672   9.576  1.0790 -1.6493  1.5441
   67CHL1  H18C 7394   2.044   6.834   9.584  1.3391 -0.6529  1.0889
   67CHL1   C12 7395   1.851   6.949   9.775 -0.0197 -0.0569 -0.3121
   67CHL1  H12A 7396   1.906   7.031   9.723 -0.1687  1.2647  1.5214
   67CHL1  H12B 7397   1.750   6.990   9.798 -0.7539 -1.3913 -1.0858
   67CHL1   C11 7398   1.932   6.937   9.906  0.4428  0.2497  0.2367
   67CHL1  H11A 7399   2.037   6.907   9.885 -0.2178 -1.5688 -0.6758
   67CHL1  H11B 7400   1.929   7.035   9.959 -1.9841  0.7135 -0.6123
   67CHL1    C9 7401   1.875   6.818   9.998 -0.0718  0.9945  0.5265
   67CHL1    H9 7402   1.773   6.847  10.032 -0.7249 -0.6242  0.0148
   67CHL1   C10 7403   1.960   6.786  10.130  0.1562 -0.3847 -0.1568
   67CHL1   C19 7404   2.109   6.791  10.090  0.5412 -0.1935 -0.0493
   67CHL1  H19A 7405   2.130   6.896  10.060 -2.9371  0.7812  0.5075
   67CHL1  H19B 7406   2.168   6.757  10.178  0.5430 -0.4712 -0.1563
   67CHL1  H19C 7407   2.138   6.723  10.006  0.5371 -1.4788  0.9515
   67CHL1    C1 7408   1.928   6.910  10.226 -0.0650  0.2743 -0.4101
   67CHL1   H1A 7409   1.982   7.004  10.200  0.7782  0.0402  0.4204
   67CHL1   H1B 7410   1.818   6.927  10.223 -0.0999 -0.1087 -2.0286
   67CHL1    C2 7411   1.973   6.883  10.369  0.2154  0.2182  0.1560
   67CHL1   H2A 7412   1.939   6.969  10.431 -0.1423  1.0529 -1.1708
   67CHL1   H2B 7413   2.083   6.874  10.358 -0.1246 -3.1721 -1.9869
   67CHL1   C20 7414   1.799   6.892   9.445  0.0021  0.7418 -0.0172
   67CHL1   H20 7415   1.879   6.823   9.411  0.0665  0.1833  1.1993
   67CHL1   C21 7416   1.850   7.029   9.472  0.3100  0.1187 -0.0801
   67CHL1  H21A 7417   1.875   7.082   9.378 -2.0755  3.4782  0.9717
   67CHL1  H21B 7418   1.945   7.025   9.529  1.2836  2.1928 -1.4441
   67CHL1  H21C 7419   1.773   7.086   9.529 -4.0860 -2.9811 -2.3294
   67CHL1   C22 7420   1.693   6.899   9.329  0.1625  0.2816  0.2091
   67CHL1  H22A 7421   1.640   6.804   9.307 -0.8066  0.9274 -0.3163
   67CHL1  H22B 7422   1.612   6.973   9.349 -0.7473 -0.6161 -0.0885
   67CHL1   C23 7423   1.768   6.932   9.201 -0.1035  0.2232  0.3104
   67CHL1  H23A 7424   1.826   7.026   9.198  1.0544 -0.4485 -3.0762
   67CHL1  H23B 7425   1.837   6.846   9.184 -0.5976  0.0991 -1.1544
   67CHL1   C24 7426   1.666   6.944   9.085 -0.2913 -0.1631  0.3764
   67CHL1  H24A 7427   1.607   6.849   9.090 -1.8409  0.6531 -1.2040
   67CHL1  H24B 7428   1.593   7.025   9.110 -0.6410 -0.8626  1.7400
   67CHL1   C25 7429   1.735   6.960   8.952  0.2439 -0.2667 -0.6150
   67CHL1   H25 7430   1.797   6.872   8.925  1.9179  0.5570  0.3906
   67CHL1   C26 7431   1.628   6.989   8.849  0.2045 -0.8839  0.1237
   67CHL1  H26A 7432   1.653   6.968   8.742 -0.4862 -0.3712 -0.1496
   67CHL1  H26B 7433   1.535   6.929   8.863 -1.9358  2.2810  0.6086
   67CHL1  H26C 7434   1.602   7.097   8.854 -1.4037 -1.1767 -1.0901
   67CHL1   C27 7435   1.835   7.066   8.949 -0.3190  0.0479  0.0235
   67CHL1  H27A 7436   1.793   7.167   8.971 -0.7915  0.2694 -1.7536
   67CHL1  H27B 7437   1.926   7.048   9.010 -1.0755 -3.2891  0.3304
   67CHL1  H27C 7438   1.865   7.085   8.844  0.9173  0.5539  0.4454
   68CHL1    C3 7439   5.655   2.505  10.104  0.1062  0.2843  0.6628
   68CHL1    H3 7440   5.556   2.469  10.071  0.8037  0.0278 -1.2697
   68CHL1    O3 7441   5.668   2.506  10.243 -0.1225  0.4394  0.2024
   68CHL1   H3' 7442   5.748   2.556  10.261 -0.3870  1.1283 -0.4911
   68CHL1    C4 7443   5.773   2.431  10.045  0.2582  0.2015  0.4290
   68CHL1   H4A 7444   5.866   2.476  10.085  0.1753 -0.6052  1.5722
   68CHL1   H4B 7445   5.781   2.328  10.085  1.4029  0.3842  0.6968
   68CHL1    C5 7446   5.777   2.441   9.895 -0.1324  0.4576 -0.2988
   68CHL1    C6 7447   5.784   2.329   9.818  0.3757  0.0399  0.9383
   68CHL1    H6 7448   5.792   2.228   9.861  3.2060  0.7539  2.3215
   68CHL1    C7 7449   5.791   2.331   9.667 -0.1201  0.8967 -0.3426
   68CHL1   H7A 7450   5.872   2.264   9.631  0.0976  1.4038 -0.8040
   68CHL1   H7B 7451   5.691   2.290   9.641 -0.6061  0.7997  1.4811
   68CHL1    C8 7452   5.797   2.474   9.604 -0.3757 -0.2427  0.5101
   68CHL1    H8 7453   5.905   2.502   9.601 -1.1707  3.1628 -1.0049
   68CHL1   C14 7454   5.761   2.476   9.459 -0.0697 -0.2616 -0.0911
   68CHL1   H14 7455   5.652   2.454   9.462  0.1079 -1.2305 -0.3979
   68CHL1   C15 7456   5.817   2.375   9.360 -0.3436  0.3567 -0.4559
   68CHL1  H15A 7457   5.928   2.376   9.369 -0.3675  1.0781 -0.1414
   68CHL1  H15B 7458   5.778   2.272   9.370 -0.3631  0.3791 -0.2937
   68CHL1   C16 7459   5.774   2.420   9.220 -0.0518 -0.6593  0.1259
   68CHL1  H16A 7460   5.857   2.420   9.145  0.1328 -0.7132  0.3299
   68CHL1  H16B 7461   5.687   2.364   9.180 -0.2243  0.7941 -1.6930
   68CHL1   C17 7462   5.726   2.565   9.245 -0.5402 -1.3103  0.3875
   68CHL1   H17 7463   5.616   2.556   9.256 -1.2319  3.2200 -0.9086
   68CHL1   C13 7464   5.768   2.611   9.387 -0.2551  0.4896 -0.1347
   68CHL1   C18 7465   5.913   2.669   9.383  0.4167  0.8788 -0.6851
   68CHL1  H18A 7466   5.976   2.586   9.344 -2.4745 -1.6929 -0.2974
   68CHL1  H18B 7467   5.915   2.757   9.316 -3.6019  1.3038 -0.4878
   68CHL1  H18C 7468   5.952   2.685   9.486 -0.3670 -2.0381  0.1709
   68CHL1   C12 7469   5.670   2.708   9.462  0.3961 -0.5048 -0.7823
   68CHL1  H12A 7470   5.686   2.811   9.425 -1.1317 -1.2024 -3.6879
   68CHL1  H12B 7471   5.566   2.672   9.442 -0.1625  1.1698 -1.0181
   68CHL1   C11 7472   5.707   2.718   9.612  0.0416  0.8147 -0.7177
   68CHL1  H11A 7473   5.806   2.768   9.618  0.0989  0.6295 -0.0466
   68CHL1  H11B 7474   5.631   2.774   9.670  0.7153  0.6073  0.4021
   68CHL1    C9 7475   5.716   2.580   9.681 -0.3433  0.0911  0.2998
   68CHL1    H9 7476   5.613   2.537   9.685 -0.7829  1.0868  0.0909
   68CHL1   C10 7477   5.755   2.585   9.838 -0.1311  0.3338  0.1571
   68CHL1   C19 7478   5.894   2.653   9.858  0.6454  0.1108 -0.8106
   68CHL1  H19A 7479   5.899   2.749   9.802  1.6906  0.4456 -0.1638
   68CHL1  H19B 7480   5.908   2.678   9.965  1.5178  0.0276 -0.8976
   68CHL1  H19C 7481   5.975   2.592   9.813  0.7577  0.3770 -0.9703
   68CHL1    C1 7482   5.639   2.660   9.906  0.3166 -0.1602  0.3218
   68CHL1   H1A 7483   5.641   2.766   9.872  0.5784 -0.5567 -0.9613
   68CHL1   H1B 7484   5.547   2.604   9.879  0.7973 -1.5470  1.4095
   68CHL1    C2 7485   5.652   2.655  10.063 -0.0179 -0.7303 -0.0444
   68CHL1   H2A 7486   5.567   2.703  10.115 -1.4474 -4.0135  0.9467
   68CHL1   H2B 7487   5.747   2.708  10.085 -0.3142 -0.0066 -0.4597
   68CHL1   C20 7488   5.746   2.673   9.133 -0.9714  0.2236 -0.4800
   68CHL1   H20 7489   5.851   2.710   9.136  0.5598 -3.7673  1.2362
   68CHL1   C21 7490   5.660   2.801   9.140 -0.0289 -0.4387 -0.2631
   68CHL1  H21A 7491   5.674   2.850   9.041  1.5441 -1.7980 -0.7704
   68CHL1  H21B 7492   5.693   2.872   9.218 -0.2913  0.1542 -0.6838
   68CHL1  H21C 7493   5.554   2.775   9.156 -0.1941  1.1792  1.5350
   68CHL1   C22 7494   5.727   2.616   8.987  0.0702  0.3244 -0.6892
   68CHL1  H22A 7495   5.731   2.505   8.982  2.9766  0.2682  0.6778
   68CHL1  H22B 7496   5.620   2.627   8.962 -0.3776 -2.9948 -0.7732
   68CHL1   C23 7497   5.832   2.665   8.890 -0.6684  0.7870  0.2031
   68CHL1  H23A 7498   5.794   2.760   8.846  0.5177  1.4256  0.5302
   68CHL1  H23B 7499   5.926   2.682   8.946  0.0334 -0.9762 -0.3609
   68CHL1   C24 7500   5.853   2.565   8.778  0.5391 -0.6952 -0.7490
   68CHL1  H24A 7501   5.874   2.466   8.824 -0.2905 -0.4864  0.1163
   68CHL1  H24B 7502   5.751   2.549   8.736 -0.1204 -1.3248  0.9940
   68CHL1   C25 7503   5.950   2.612   8.669  1.0781  0.4812  0.6055
   68CHL1   H25 7504   5.911   2.707   8.627 -0.5235  0.2172  1.4148
   68CHL1   C26 7505   6.097   2.637   8.716  0.7458  0.2964  0.3680
   68CHL1  H26A 7506   6.147   2.548   8.759 -0.4196 -0.8269 -0.5209
   68CHL1  H26B 7507   6.157   2.678   8.633  0.5568  1.3799  0.7476
   68CHL1  H26C 7508   6.089   2.718   8.792 -1.6190  1.5968 -1.1356
   68CHL1   C27 7509   5.960   2.497   8.568 -0.0414  0.0613  0.3967
   68CHL1  H27A 7510   5.982   2.407   8.630  0.3610  0.3485  0.6699
   68CHL1  H27B 7511   5.859   2.488   8.522 -0.9639  1.9956  1.9174
   68CHL1  H27C 7512   6.034   2.533   8.494 -0.9638  1.5281  0.1401
   69CHL1    C3 7513   1.460   4.874   6.888 -0.4352 -0.2117  0.9455
   69CHL1    H3 7514   1.425   4.979   6.877  3.1005  0.9646 -0.5893
   69CHL1    O3 7515   1.471   4.834   6.751 -0.3389 -0.4069  0.2903
   69CHL1   H3' 7516   1.450   4.741   6.762 -2.0596  0.0567  1.3379
   69CHL1    C4 7517   1.601   4.862   6.948  0.4204 -0.3709 -0.3756
   69CHL1   H4A 7518   1.645   4.765   6.916  0.4673 -0.1572 -0.9572
   69CHL1   H4B 7519   1.662   4.936   6.892 -0.9537 -0.2895 -1.8151
   69CHL1    C5 7520   1.603   4.889   7.100 -0.4778 -0.0618  0.6262
   69CHL1    C6 7521   1.688   4.981   7.157 -0.5764  0.1965  0.5959
   69CHL1    H6 7522   1.762   5.036   7.096  1.5621 -1.0602  1.9325
   69CHL1    C7 7523   1.694   5.005   7.301 -0.4457  0.3584 -0.0335
   69CHL1   H7A 7524   1.797   5.008   7.343  0.0562  2.4173 -1.2484
   69CHL1   H7B 7525   1.655   5.106   7.329 -0.1974  0.6127 -0.5942
   69CHL1    C8 7526   1.616   4.904   7.387 -0.5110  0.6790 -0.1735
   69CHL1    H8 7527   1.676   4.811   7.389  0.0494  1.0523  1.5338
   69CHL1   C14 7528   1.604   4.949   7.530 -0.1704 -0.4566  0.1077
   69CHL1   H14 7529   1.537   5.037   7.529  2.3352  1.5671  0.4931
   69CHL1   C15 7530   1.726   5.007   7.597  0.6975  0.1146 -0.2890
   69CHL1  H15A 7531   1.815   4.943   7.580  1.4898  0.7545  1.2450
   69CHL1  H15B 7532   1.747   5.107   7.554 -1.0862 -0.3332 -2.3700
   69CHL1   C16 7533   1.689   4.999   7.746 -0.2163 -0.1351 -0.5697
   69CHL1  H16A 7534   1.762   4.935   7.800 -0.6595 -0.6060 -0.5239
   69CHL1  H16B 7535   1.693   5.091   7.809 -0.5583  0.9064 -2.0205
   69CHL1   C17 7536   1.552   4.932   7.756 -0.3368 -0.4595  0.7696
   69CHL1   H17 7537   1.479   5.016   7.760  0.6363  0.3986  3.5205
   69CHL1   C13 7538   1.532   4.855   7.626  0.2938  0.4064  0.2151
   69CHL1   C18 7539   1.604   4.718   7.639  0.1757 -1.2084  0.5022
   69CHL1  H18A 7540   1.537   4.653   7.700 -0.0990 -0.4026  1.0639
   69CHL1  H18B 7541   1.619   4.669   7.540 -2.3172  0.4999 -0.8120
   69CHL1  H18C 7542   1.704   4.738   7.682 -0.2157  1.3855  0.3237
   69CHL1   C12 7543   1.386   4.846   7.564 -0.3606 -0.4188 -0.1664
   69CHL1  H12A 7544   1.321   4.774   7.619 -1.4348 -0.2657 -1.1936
   69CHL1  H12B 7545   1.337   4.945   7.570 -1.2591 -0.6311 -2.7102
   69CHL1   C11 7546   1.388   4.804   7.421 -0.5184  0.6038  1.4535
   69CHL1  H11A 7547   1.434   4.704   7.406 -0.7676  0.5409  1.0988
   69CHL1  H11B 7548   1.288   4.811   7.372 -0.1509 -0.6997  0.4562
   69CHL1    C9 7549   1.478   4.882   7.321 -0.0927 -0.0262 -0.0949
   69CHL1    H9 7550   1.435   4.982   7.298 -0.0369  0.5412  2.0738
   69CHL1   C10 7551   1.493   4.817   7.180  0.0050  0.8317  0.8904
   69CHL1   C19 7552   1.532   4.666   7.178 -0.6939 -0.2425 -0.0921
   69CHL1  H19A 7553   1.619   4.651   7.246 -0.6203 -2.0445 -0.5275
   69CHL1  H19B 7554   1.447   4.607   7.218 -1.5963  0.6469 -0.6466
   69CHL1  H19C 7555   1.550   4.626   7.076  0.4199  0.7447 -0.3031
   69CHL1    C1 7556   1.358   4.831   7.105  0.3514 -0.3261  0.1176
   69CHL1   H1A 7557   1.292   4.756   7.152  1.9346 -1.4393  0.6640
   69CHL1   H1B 7558   1.312   4.932   7.114 -0.9927 -0.9024 -0.1733
   69CHL1    C2 7559   1.352   4.792   6.961  0.5456 -0.2491  0.0243
   69CHL1   H2A 7560   1.253   4.812   6.916  0.1418 -1.0076  0.5650
   69CHL1   H2B 7561   1.371   4.683   6.953  4.3505  0.0445  2.4743
   69CHL1   C20 7562   1.525   4.868   7.889  0.3431 -0.0591  0.0268
   69CHL1   H20 7563   1.576   4.771   7.904  1.7046  0.5565 -0.5055
   69CHL1   C21 7564   1.370   4.830   7.896 -0.3893  0.3269  0.1750
   69CHL1  H21A 7565   1.345   4.785   7.994  1.8841  0.1627  0.7393
   69CHL1  H21B 7566   1.356   4.748   7.822  1.4475  1.5263 -1.6178
   69CHL1  H21C 7567   1.301   4.911   7.864  1.5152  1.1679 -2.1672
   69CHL1   C22 7568   1.561   4.969   8.012 -0.0014 -0.7131  0.6250
   69CHL1  H22A 7569   1.664   5.009   8.008 -0.1679 -0.2362  0.9945
   69CHL1  H22B 7570   1.504   5.064   8.021  1.9105  0.4295  1.1873
   69CHL1   C23 7571   1.548   4.888   8.144  0.0215 -0.3910  0.0795
   69CHL1  H23A 7572   1.442   4.854   8.148  0.1003 -0.8151 -1.0678
   69CHL1  H23B 7573   1.619   4.803   8.142  0.8186  0.2808 -1.6696
   69CHL1   C24 7574   1.588   4.973   8.270 -0.2399  0.3081 -0.4891
   69CHL1  H24A 7575   1.699   4.973   8.273 -0.2331  1.4900  0.4968
   69CHL1  H24B 7576   1.542   5.073   8.253 -0.7378 -0.2177 -2.4632
   69CHL1   C25 7577   1.548   4.921   8.411  0.5591 -0.3099 -0.2081
   69CHL1   H25 7578   1.439   4.899   8.413  0.3808  0.5847  0.3723
   69CHL1   C26 7579   1.621   4.787   8.443  0.3946 -0.3001  0.0106
   69CHL1  H26A 7580   1.572   4.745   8.533 -1.7161 -0.4620 -1.1639
   69CHL1  H26B 7581   1.609   4.720   8.355 -2.4617  2.0341 -1.5589
   69CHL1  H26C 7582   1.732   4.793   8.453  0.4874  0.4207 -1.2533
   69CHL1   C27 7583   1.556   5.036   8.516 -0.7664 -0.1656  0.0059
   69CHL1  H27A 7584   1.641   5.106   8.513 -2.2344  1.9173  2.7070
   69CHL1  H27B 7585   1.463   5.097   8.521 -0.5327  0.2926 -1.1570
   69CHL1  H27C 7586   1.558   4.988   8.617 -4.1883  0.0078  0.2756
   70CHL1    C3 7587   3.629   2.186   6.983 -0.1385  0.4920 -1.2386
   70CHL1    H3 7588   3.609   2.081   6.953  0.6771 -0.5621  1.5902
   70CHL1    O3 7589   3.663   2.259   6.870  0.5470 -0.1329 -0.2670
   70CHL1   H3' 7590   3.750   2.228   6.844  0.2812 -2.2879  1.1686
   70CHL1    C4 7591   3.497   2.242   7.051 -0.3369  0.2128  0.3822
   70CHL1   H4A 7592   3.507   2.349   7.077 -1.9685 -0.0037  2.1933
   70CHL1   H4B 7593   3.413   2.244   6.978  0.6323  1.7154 -0.7352
   70CHL1    C5 7594   3.462   2.172   7.182  0.0244 -0.4955  0.1346
   70CHL1    C6 7595   3.341   2.118   7.200 -0.6286  0.9413 -0.1908
   70CHL1    H6 7596   3.273   2.127   7.113  1.1220 -1.5674 -1.9516
   70CHL1    C7 7597   3.296   2.061   7.336  0.2608 -0.1513  0.2680
   70CHL1   H7A 7598   3.202   2.109   7.369  0.0767  0.3312 -0.9200
   70CHL1   H7B 7599   3.267   1.954   7.339 -0.4933  0.0440  0.0119
   70CHL1    C8 7600   3.394   2.084   7.454 -0.3730 -0.3568  0.5894
   70CHL1    H8 7601   3.380   2.188   7.490  0.1539  0.0902 -0.4464
   70CHL1   C14 7602   3.374   1.976   7.557 -0.8034  0.1113 -0.5018
   70CHL1   H14 7603   3.397   1.875   7.516 -0.5681 -0.7191  1.5940
   70CHL1   C15 7604   3.233   1.962   7.612 -0.1314 -0.1087 -0.6816
   70CHL1  H15A 7605   3.176   2.056   7.628 -1.0405 -0.3013 -2.5511
   70CHL1  H15B 7606   3.172   1.896   7.546  0.4547 -0.5837 -0.7618
   70CHL1   C16 7607   3.257   1.894   7.749  0.5314  0.7928 -0.1422
   70CHL1  H16A 7608   3.216   1.949   7.837  1.2801 -0.4673  1.0460
   70CHL1  H16B 7609   3.203   1.797   7.750  0.2917  0.8849 -1.8730
   70CHL1   C17 7610   3.409   1.875   7.768  0.2652 -0.0590 -0.4438
   70CHL1   H17 7611   3.427   1.781   7.711 -2.5509 -0.0740 -1.4451
   70CHL1   C13 7612   3.467   1.981   7.681  0.2021  0.0765  0.6888
   70CHL1   C18 7613   3.451   2.121   7.748 -0.0429  0.1334 -0.2335
   70CHL1  H18A 7614   3.511   2.115   7.841  0.2898 -0.1499 -0.4622
   70CHL1  H18B 7615   3.493   2.203   7.686 -0.9556  0.7132 -0.1005
   70CHL1  H18C 7616   3.345   2.138   7.776 -0.1394  0.4460 -0.7722
   70CHL1   C12 7617   3.617   1.960   7.636  0.2050  0.5717  0.0366
   70CHL1  H12A 7618   3.683   1.941   7.723  1.1847  0.6564 -0.6615
   70CHL1  H12B 7619   3.626   1.862   7.582  0.7044  1.7505 -2.1503
   70CHL1   C11 7620   3.651   2.064   7.521 -0.1488  0.2224  0.6716
   70CHL1  H11A 7621   3.678   2.160   7.568  2.7402  0.0134 -0.3315
   70CHL1  H11B 7622   3.748   2.021   7.489 -0.7900 -0.6052 -0.2305
   70CHL1    C9 7623   3.542   2.073   7.402 -0.2685 -0.1787 -0.6848
   70CHL1    H9 7624   3.543   1.970   7.361 -0.9234  0.1476 -1.5498
   70CHL1   C10 7625   3.582   2.168   7.286 -0.4189  0.4064 -0.1183
   70CHL1   C19 7626   3.628   2.306   7.352  0.8250  0.7906  0.2266
   70CHL1  H19A 7627   3.724   2.305   7.407  0.5158 -4.1155  1.0893
   70CHL1  H19B 7628   3.626   2.388   7.277  0.7016  0.6799  0.1074
   70CHL1  H19C 7629   3.546   2.334   7.422 -0.2936 -3.9102  1.1110
   70CHL1    C1 7630   3.704   2.102   7.208  0.3350 -0.4722 -0.2294
   70CHL1   H1A 7631   3.791   2.106   7.277  0.0252 -2.3197  0.3180
   70CHL1   H1B 7632   3.677   1.998   7.177 -2.3776 -0.0366  0.3638
   70CHL1    C2 7633   3.743   2.177   7.077  0.1288 -0.4008  0.0364
   70CHL1   H2A 7634   3.828   2.137   7.019 -0.0640 -0.8091  0.0358
   70CHL1   H2B 7635   3.766   2.279   7.117 -1.5023 -0.7142  1.9117
   70CHL1   C20 7636   3.460   1.857   7.917  0.1389 -0.0663  0.2403
   70CHL1   H20 7637   3.569   1.880   7.912 -0.3447  2.2075 -1.1565
   70CHL1   C21 7638   3.439   1.705   7.959 -0.2433 -0.3752 -0.2749
   70CHL1  H21A 7639   3.473   1.644   7.872  1.1973 -1.4372  0.9817
   70CHL1  H21B 7640   3.330   1.691   7.978 -0.1171 -0.1129  0.6904
   70CHL1  H21C 7641   3.490   1.687   8.056  1.6792  1.7364 -0.7907
   70CHL1   C22 7642   3.387   1.946   8.028  0.5402 -0.1979  0.1508
   70CHL1  H22A 7643   3.396   2.051   7.994  1.3061 -0.2263  0.2296
   70CHL1  H22B 7644   3.281   1.915   8.035  0.0381  1.3471 -0.3236
   70CHL1   C23 7645   3.460   1.941   8.161 -0.4087  0.6262  0.5247
   70CHL1  H23A 7646   3.510   1.843   8.176 -1.2703  0.2304  0.9000
   70CHL1  H23B 7647   3.550   2.005   8.156  0.1728  0.0424  2.4147
   70CHL1   C24 7648   3.389   1.996   8.281  0.2372  0.0357 -0.1688
   70CHL1  H24A 7649   3.377   2.105   8.263  1.1531  0.2518  0.4777
   70CHL1  H24B 7650   3.295   1.936   8.282  0.9404 -1.0918  0.0777
   70CHL1   C25 7651   3.461   1.969   8.416 -0.3108 -0.2141  0.2032
   70CHL1   H25 7652   3.568   1.989   8.397 -0.4441  0.3606  0.0395
   70CHL1   C26 7653   3.398   2.063   8.511  0.2030  0.0093 -0.1501
   70CHL1  H26A 7654   3.412   2.167   8.474  0.5200 -0.9798 -3.0691
   70CHL1  H26B 7655   3.289   2.049   8.530  0.5577 -1.0605  1.3335
   70CHL1  H26C 7656   3.444   2.047   8.611 -0.5328  0.4925  0.2756
   70CHL1   C27 7657   3.466   1.818   8.464  0.1489 -0.3081  0.3255
   70CHL1  H27A 7658   3.546   1.804   8.540 -0.4505 -1.1014  0.8221
   70CHL1  H27B 7659   3.365   1.786   8.499 -0.5089  0.4045 -0.8286
   70CHL1  H27C 7660   3.495   1.756   8.376  1.5961  1.5403 -0.5594
   71CHL1    C3 7661   2.198   1.247   6.924  0.0730 -0.3073 -0.4440
   71CHL1    H3 7662   2.171   1.139   6.929  2.1854 -0.8336  1.1671
   71CHL1    O3 7663   2.243   1.291   6.801 -0.2448 -0.3748  0.1758
   71CHL1   H3' 7664   2.285   1.212   6.764 -0.9512 -0.6892  0.0251
   71CHL1    C4 7665   2.064   1.317   6.955 -0.1978  0.0362  0.1330
   71CHL1   H4A 7666   2.063   1.422   6.919  0.6107  0.0992  0.2586
   71CHL1   H4B 7667   1.985   1.261   6.901  0.3452 -0.4106 -0.2110
   71CHL1    C5 7668   2.010   1.302   7.097  0.1032 -0.3306 -0.2288
   71CHL1    C6 7669   1.885   1.257   7.110  0.4929  0.2296 -0.6650
   71CHL1    H6 7670   1.817   1.252   7.024  0.9896 -1.2491 -0.9946
   71CHL1    C7 7671   1.829   1.228   7.243 -0.1403 -0.7331 -0.6120
   71CHL1   H7A 7672   1.721   1.252   7.244 -0.5012 -2.2586 -0.5047
   71CHL1   H7B 7673   1.846   1.119   7.257 -2.2723 -1.2087 -1.3529
   71CHL1    C8 7674   1.903   1.294   7.358  0.8674 -0.0600 -0.1528
   71CHL1    H8 7675   1.891   1.403   7.338 -2.1158 -0.5841 -1.6693
   71CHL1   C14 7676   1.848   1.248   7.491  0.0734  0.8130 -0.2241
   71CHL1   H14 7677   1.879   1.142   7.495 -2.4019  0.0512  1.3148
   71CHL1   C15 7678   1.691   1.247   7.506  0.0846  0.2436  0.0892
   71CHL1  H15A 7679   1.662   1.347   7.468  1.2985  0.8278  0.6391
   71CHL1  H15B 7680   1.648   1.165   7.443  1.2129 -0.6227  0.4074
   71CHL1   C16 7681   1.668   1.229   7.659  0.2872 -0.5193 -1.0120
   71CHL1  H16A 7682   1.592   1.304   7.690  0.3799 -0.2593 -1.4064
   71CHL1  H16B 7683   1.616   1.132   7.677 -0.7192  0.1872  0.0420
   71CHL1   C17 7684   1.816   1.240   7.719  0.0221 -0.2535 -0.5159
   71CHL1   H17 7685   1.860   1.138   7.725 -0.6802 -0.8635 -3.8513
   71CHL1   C13 7686   1.903   1.317   7.611  0.1501  0.0469  0.3310
   71CHL1   C18 7687   1.877   1.474   7.617 -0.1768  0.7048  0.2218
   71CHL1  H18A 7688   1.939   1.506   7.704  3.2354 -1.4051 -1.2089
   71CHL1  H18B 7689   1.920   1.525   7.528  2.0449 -0.3097  0.6299
   71CHL1  H18C 7690   1.769   1.495   7.626 -0.5133 -0.8271  0.0056
   71CHL1   C12 7691   2.056   1.277   7.608 -0.3667  1.3966 -0.8823
   71CHL1  H12A 7692   2.112   1.329   7.688  0.2930  0.3392 -0.6311
   71CHL1  H12B 7693   2.057   1.168   7.630 -2.3954  1.5812  0.4121
   71CHL1   C11 7694   2.130   1.315   7.477  0.6577 -0.0579 -0.4863
   71CHL1  H11A 7695   2.143   1.425   7.472  1.9513 -0.1367  0.7749
   71CHL1  H11B 7696   2.233   1.274   7.480  0.1949 -1.2979 -0.7860
   71CHL1    C9 7697   2.055   1.269   7.351  0.5769  0.7722 -0.4354
   71CHL1    H9 7698   2.066   1.159   7.367  0.4825  0.9107  0.7191
   71CHL1   C10 7699   2.117   1.321   7.214  0.6074  0.4699  0.3229
   71CHL1   C19 7700   2.145   1.468   7.222 -0.0711 -0.8730 -0.1083
   71CHL1  H19A 7701   2.220   1.494   7.300  2.0609 -2.6139 -1.4494
   71CHL1  H19B 7702   2.193   1.515   7.134 -2.2457  1.4545 -0.1478
   71CHL1  H19C 7703   2.049   1.518   7.247 -0.4973 -1.7698  0.0902
   71CHL1    C1 7704   2.250   1.240   7.177  0.2735  0.2643 -0.5136
   71CHL1   H1A 7705   2.330   1.262   7.250  1.2335 -3.0867 -0.3805
   71CHL1   H1B 7706   2.224   1.132   7.182 -1.0300  0.4515 -2.2230
   71CHL1    C2 7707   2.300   1.270   7.032  0.2537  0.5689 -0.2745
   71CHL1   H2A 7708   2.385   1.198   7.027 -0.5996 -0.4510 -0.3813
   71CHL1   H2B 7709   2.327   1.378   7.032  2.5660  0.0437 -0.3723
   71CHL1   C20 7710   1.821   1.286   7.866 -0.2779  1.1733  0.8085
   71CHL1   H20 7711   1.814   1.397   7.869  0.6242  1.2636  0.0494
   71CHL1   C21 7712   1.960   1.258   7.934 -0.6611  0.8359  0.3975
   71CHL1  H21A 7713   1.985   1.150   7.937 -0.4994  0.8402 -0.4387
   71CHL1  H21B 7714   1.967   1.299   8.037  0.7721 -0.2685  0.7750
   71CHL1  H21C 7715   2.040   1.318   7.885  1.1008 -1.2146  0.6311
   71CHL1   C22 7716   1.711   1.234   7.958  0.0881 -0.3057 -0.4583
   71CHL1  H22A 7717   1.611   1.247   7.911  0.9095  2.3961 -1.6568
   71CHL1  H22B 7718   1.719   1.123   7.961  2.8238 -0.1946 -0.7800
   71CHL1   C23 7719   1.712   1.285   8.101 -0.2712  0.6236  0.2860
   71CHL1  H23A 7720   1.636   1.232   8.163 -0.3313  1.8892  1.3488
   71CHL1  H23B 7721   1.813   1.262   8.141  0.0655  0.8992 -0.3923
   71CHL1   C24 7722   1.680   1.429   8.116 -0.0128 -0.1225  0.7021
   71CHL1  H24A 7723   1.735   1.489   8.040 -0.9268  1.2142  1.0588
   71CHL1  H24B 7724   1.571   1.442   8.095 -0.4711 -2.0471  1.6566
   71CHL1   C25 7725   1.733   1.493   8.247  0.0226 -0.1648 -0.3694
   71CHL1   H25 7726   1.679   1.589   8.263  0.7043 -0.1001  1.8177
   71CHL1   C26 7727   1.681   1.406   8.365 -0.6589 -0.3220 -0.4600
   71CHL1  H26A 7728   1.736   1.310   8.358 -0.4149 -0.2554  0.4575
   71CHL1  H26B 7729   1.687   1.447   8.468 -2.8077 -1.7568  0.2875
   71CHL1  H26C 7730   1.573   1.385   8.348 -0.6820 -0.8353  0.3240
   71CHL1   C27 7731   1.890   1.514   8.251 -0.3145  0.2516 -0.1119
   71CHL1  H27A 7732   1.911   1.582   8.336  1.1256 -0.5704  0.2137
   71CHL1  H27B 7733   1.943   1.417   8.258 -0.3609 -0.0369 -2.6617
   71CHL1  H27C 7734   1.916   1.564   8.155  0.0189 -0.2664 -0.2935
   72CHL1    C3 7735   5.323   2.077   6.876  0.6154  0.1469 -0.0666
   72CHL1    H3 7736   5.279   2.176   6.901  1.0942  0.2570  0.3417
   72CHL1    O3 7737   5.315   2.048   6.736  0.0045 -0.4873  0.1131
   72CHL1   H3' 7738   5.407   2.048   6.710  0.0788 -0.9623  0.3735
   72CHL1    C4 7739   5.468   2.065   6.919  0.4121 -0.4046 -0.8815
   72CHL1   H4A 7740   5.513   1.969   6.887  0.6238 -0.3323 -0.8044
   72CHL1   H4B 7741   5.521   2.143   6.859  2.3996 -1.6782 -0.8691
   72CHL1    C5 7742   5.484   2.078   7.067 -0.1313  0.1929  0.5719
   72CHL1    C6 7743   5.570   2.163   7.124  0.5329  0.5724  0.4958
   72CHL1    H6 7744   5.633   2.222   7.055 -0.8842  0.1179 -1.2718
   72CHL1    C7 7745   5.594   2.179   7.273 -0.5190  0.1127 -0.4577
   72CHL1   H7A 7746   5.702   2.176   7.300 -1.0251  0.8895  1.8407
   72CHL1   H7B 7747   5.546   2.266   7.321 -0.6152 -0.1167 -0.1373
   72CHL1    C8 7748   5.539   2.060   7.355  0.6056  0.3697 -0.4085
   72CHL1    H8 7749   5.608   1.974   7.345  0.5612  0.3894 -0.8969
   72CHL1   C14 7750   5.525   2.095   7.505 -0.7523 -0.9613  0.1919
   72CHL1   H14 7751   5.437   2.163   7.509  0.8946  1.2780  0.3225
   72CHL1   C15 7752   5.633   2.173   7.587  0.1021  0.3094 -0.1594
   72CHL1  H15A 7753   5.722   2.124   7.542  1.2292  2.9344 -1.0013
   72CHL1  H15B 7754   5.633   2.282   7.567  3.8420  0.6163  0.7525
   72CHL1   C16 7755   5.594   2.147   7.734  0.1966  0.0722 -0.2738
   72CHL1  H16A 7756   5.680   2.105   7.790  0.1997 -1.0817 -1.1001
   72CHL1  H16B 7757   5.569   2.242   7.785 -0.0823 -0.6209  0.9177
   72CHL1   C17 7758   5.466   2.052   7.736 -0.2338 -0.1106 -0.0598
   72CHL1   H17 7759   5.369   2.106   7.738 -0.8267 -1.0789 -1.2559
   72CHL1   C13 7760   5.475   1.982   7.596  0.4713 -0.5005  0.2994
   72CHL1   C18 7761   5.575   1.868   7.597 -0.4441 -0.0775 -0.0296
   72CHL1  H18A 7762   5.535   1.778   7.649  1.1730 -1.7720 -1.5941
   72CHL1  H18B 7763   5.588   1.830   7.494 -1.8109 -0.6356 -0.0192
   72CHL1  H18C 7764   5.675   1.900   7.634 -0.1590 -0.9401 -0.0287
   72CHL1   C12 7765   5.330   1.949   7.536 -0.2925 -0.1415  0.2593
   72CHL1  H12A 7766   5.283   1.861   7.585 -0.8408 -2.0416 -3.2880
   72CHL1  H12B 7767   5.269   2.042   7.540  0.1991  0.1758  0.3410
   72CHL1   C11 7768   5.337   1.909   7.391 -0.6425 -0.2668  0.6918
   72CHL1  H11A 7769   5.382   1.809   7.376 -0.9634 -0.5397  1.4573
   72CHL1  H11B 7770   5.232   1.905   7.358 -0.4417 -0.1446  0.0223
   72CHL1    C9 7771   5.402   2.020   7.300  0.3780 -0.0116 -0.2903
   72CHL1    H9 7772   5.345   2.115   7.306  3.3891  1.9641 -0.6771
   72CHL1   C10 7773   5.398   1.977   7.151 -0.5626 -0.1677  0.9038
   72CHL1   C19 7774   5.460   1.837   7.125  0.2577 -0.4701 -0.7316
   72CHL1  H19A 7775   5.418   1.755   7.188  0.0212 -0.4596 -0.8734
   72CHL1  H19B 7776   5.447   1.810   7.018 -1.8221  0.8820 -0.8931
   72CHL1  H19C 7777   5.567   1.837   7.154 -0.1483 -1.8133  0.9683
   72CHL1    C1 7778   5.252   1.977   7.101 -0.1836  0.1869  0.0509
   72CHL1   H1A 7779   5.194   1.892   7.141 -2.9188  1.3952 -1.0707
   72CHL1   H1B 7780   5.213   2.074   7.138  0.5690 -0.0745  1.5711
   72CHL1    C2 7781   5.224   1.975   6.950  0.2642  0.6972 -0.3946
   72CHL1   H2A 7782   5.118   1.985   6.918  0.3837  0.0523 -1.0071
   72CHL1   H2B 7783   5.267   1.878   6.920 -1.9492 -1.0536  1.6867
   72CHL1   C20 7784   5.469   1.956   7.856  0.3284  0.3091  0.3278
   72CHL1   H20 7785   5.557   1.889   7.847 -0.0883 -0.0628 -1.6958
   72CHL1   C21 7786   5.345   1.869   7.856  0.8397  0.3653 -0.7142
   72CHL1  H21A 7787   5.254   1.932   7.849  0.1158 -0.3579  1.3975
   72CHL1  H21B 7788   5.351   1.816   7.954 -0.6731 -0.0550 -0.8223
   72CHL1  H21C 7789   5.341   1.788   7.780 -1.3755 -1.3206  1.0705
   72CHL1   C22 7790   5.491   2.025   7.997  0.2197  0.2893 -0.2246
   72CHL1  H22A 7791   5.471   1.950   8.076  0.0829  0.8006  0.2357
   72CHL1  H22B 7792   5.597   2.057   8.007  0.4654 -0.4012 -0.5983
   72CHL1   C23 7793   5.395   2.139   8.030 -0.2439 -0.0014  0.3896
   72CHL1  H23A 7794   5.405   2.215   7.950  1.7998 -0.6521 -0.0494
   72CHL1  H23B 7795   5.289   2.106   8.036 -0.6065  1.0369 -0.1671
   72CHL1   C24 7796   5.420   2.191   8.169 -0.3699  0.0744 -0.4547
   72CHL1  H24A 7797   5.448   2.105   8.234  0.7157 -0.1284 -1.1582
   72CHL1  H24B 7798   5.505   2.263   8.160  1.3672 -1.5444  1.7310
   72CHL1   C25 7799   5.309   2.281   8.236  0.5728 -0.0425 -0.2033
   72CHL1   H25 7800   5.215   2.227   8.214  1.0888 -1.5002  0.9717
   72CHL1   C26 7801   5.322   2.303   8.388  0.0426  0.3427  0.3454
   72CHL1  H26A 7802   5.428   2.306   8.423  0.1016 -0.3216  0.2343
   72CHL1  H26B 7803   5.274   2.396   8.425  2.0448  1.1973  0.9335
   72CHL1  H26C 7804   5.286   2.214   8.443 -0.4993 -0.3774 -1.1248
   72CHL1   C27 7805   5.306   2.419   8.167 -0.2873 -0.3390  0.1944
   72CHL1  H27A 7806   5.317   2.394   8.060 -2.1349 -1.8128  0.2731
   72CHL1  H27B 7807   5.204   2.459   8.185 -0.0776 -0.3824  1.6337
   72CHL1  H27C 7808   5.383   2.493   8.196 -0.9416  0.1214  0.8029
   73CHL1    C3 7809   0.806   2.445   6.784 -0.3536 -0.5660 -0.1835
   73CHL1    H3 7810   0.875   2.532   6.784 -0.0067 -0.8377 -0.0141
   73CHL1    O3 7811   0.759   2.433   6.653 -0.1965  0.0986 -0.6760
   73CHL1   H3' 7812   0.716   2.517   6.632  0.5483  0.0695 -2.4764
   73CHL1    C4 7813   0.893   2.326   6.830 -0.3300  0.1745  0.7007
   73CHL1   H4A 7814   0.822   2.243   6.811 -2.8438  1.6431  2.9555
   73CHL1   H4B 7815   0.975   2.319   6.755 -1.3883 -1.1891 -0.3905
   73CHL1    C5 7816   0.931   2.324   6.976  0.5778  0.3854 -0.6693
   73CHL1    C6 7817   1.054   2.306   7.020 -0.4778 -0.3761 -0.0824
   73CHL1    H6 7818   1.128   2.287   6.941 -0.1474 -1.8043  0.5326
   73CHL1    C7 7819   1.092   2.301   7.163  0.1708  0.2470 -0.3962
   73CHL1   H7A 7820   1.186   2.242   7.171  1.2567  1.8106 -1.0106
   73CHL1   H7B 7821   1.130   2.398   7.202  2.1921 -1.6167  2.7192
   73CHL1    C8 7822   0.977   2.265   7.259  0.3346  0.8694 -0.0564
   73CHL1    H8 7823   0.947   2.162   7.232  3.9484 -0.6720  1.0730
   73CHL1   C14 7824   1.000   2.262   7.410 -0.2327  0.2940  0.4491
   73CHL1   H14 7825   1.020   2.368   7.439 -0.3470  0.9051 -1.5406
   73CHL1   C15 7826   1.116   2.184   7.456  0.6922 -0.9707 -0.0282
   73CHL1  H15A 7827   1.116   2.079   7.421 -1.1780 -0.5011 -1.6365
   73CHL1  H15B 7828   1.212   2.234   7.429  0.8815 -0.8632  0.8143
   73CHL1   C16 7829   1.102   2.189   7.605  0.9146 -0.4900  0.5061
   73CHL1  H16A 7830   1.144   2.101   7.658  0.2539 -1.5196 -0.6399
   73CHL1  H16B 7831   1.158   2.276   7.646  0.2380  0.0749  0.2458
   73CHL1   C17 7832   0.950   2.220   7.637 -0.3601  0.2094 -0.6113
   73CHL1   H17 7833   0.934   2.327   7.660 -2.7127 -0.2804  0.3831
   73CHL1   C13 7834   0.882   2.213   7.498 -0.2963 -0.2347  0.2762
   73CHL1   C18 7835   0.842   2.067   7.470 -0.2641 -0.0258  0.4497
   73CHL1  H18A 7836   0.920   1.988   7.483  1.0394  0.7454 -1.9551
   73CHL1  H18B 7837   0.747   2.047   7.523 -1.4314 -0.2119 -1.6345
   73CHL1  H18C 7838   0.811   2.057   7.364  0.5399 -2.5570  0.3837
   73CHL1   C12 7839   0.776   2.323   7.475 -0.0061  0.5211 -0.5212
   73CHL1  H12A 7840   0.689   2.305   7.541  0.3046 -2.6874 -0.8465
   73CHL1  H12B 7841   0.824   2.417   7.510  1.2878  0.7458 -2.6974
   73CHL1   C11 7842   0.733   2.334   7.327  0.3669  0.2814  0.6770
   73CHL1  H11A 7843   0.662   2.251   7.310  0.4784  0.4822 -0.9623
   73CHL1  H11B 7844   0.657   2.414   7.311 -0.6067 -0.7170  0.1595
   73CHL1    C9 7845   0.854   2.353   7.226  0.6495  0.1817 -0.0753
   73CHL1    H9 7846   0.882   2.459   7.250  0.2494  0.1136  0.7399
   73CHL1   C10 7847   0.814   2.351   7.072 -0.1838  0.4909  0.3929
   73CHL1   C19 7848   0.708   2.229   7.060 -0.0413  0.1989 -0.8143
   73CHL1  H19A 7849   0.612   2.267   7.101 -0.4872  0.5964 -2.1619
   73CHL1  H19B 7850   0.685   2.209   6.953 -1.9635 -2.6929  0.0377
   73CHL1  H19C 7851   0.744   2.134   7.104 -2.7313 -1.2942 -1.6057
   73CHL1    C1 7852   0.745   2.489   7.028 -0.2042  0.3783  0.3095
   73CHL1   H1A 7853   0.661   2.521   7.092 -0.8303  1.0590 -0.8116
   73CHL1   H1B 7854   0.819   2.570   7.045 -0.1247  0.2306  0.6761
   73CHL1    C2 7855   0.692   2.475   6.884 -0.8394 -0.6459  0.6430
   73CHL1   H2A 7856   0.647   2.569   6.845  0.7694 -0.9212 -2.0911
   73CHL1   H2B 7857   0.602   2.410   6.879 -1.9262  0.8837 -2.3869
   73CHL1   C20 7858   0.892   2.147   7.758  0.0327 -0.6045 -0.1962
   73CHL1   H20 7859   0.886   2.038   7.736  0.4425 -0.6795  0.0545
   73CHL1   C21 7860   0.747   2.189   7.788 -0.4725 -0.4909  0.5919
   73CHL1  H21A 7861   0.737   2.299   7.798 -0.5617 -0.4805  0.3835
   73CHL1  H21B 7862   0.713   2.143   7.883  0.4498 -0.4356  0.9667
   73CHL1  H21C 7863   0.670   2.155   7.716 -1.1007 -0.2505  1.1371
   73CHL1   C22 7864   0.973   2.155   7.893  0.3084 -0.0436  0.9743
   73CHL1  H22A 7865   0.913   2.115   7.977  1.2040  0.1574  1.7304
   73CHL1  H22B 7866   1.065   2.092   7.886 -0.0794 -0.5411  0.2389
   73CHL1   C23 7867   1.021   2.296   7.929  0.2901  0.0257 -0.9021
   73CHL1  H23A 7868   1.089   2.346   7.858  0.4925  2.0667  0.6337
   73CHL1  H23B 7869   0.928   2.356   7.923  0.2679  0.4512  2.0376
   73CHL1   C24 7870   1.077   2.312   8.076 -0.1887  0.6429  0.1697
   73CHL1  H24A 7871   1.006   2.275   8.153  2.9107  0.6010  3.2675
   73CHL1  H24B 7872   1.167   2.247   8.089  0.7402  1.7933 -0.2966
   73CHL1   C25 7873   1.113   2.453   8.105  0.9463  0.6112 -0.6395
   73CHL1   H25 7874   1.020   2.514   8.099  0.3209 -0.4095 -1.9437
   73CHL1   C26 7875   1.158   2.448   8.254 -0.0872  0.8142  0.1155
   73CHL1  H26A 7876   1.231   2.364   8.258 -0.5084  0.3336 -1.4903
   73CHL1  H26B 7877   1.209   2.545   8.273 -0.1615  1.4004 -2.2678
   73CHL1  H26C 7878   1.071   2.418   8.315  1.8961 -1.0545  2.1890
   73CHL1   C27 7879   1.240   2.504   8.032  0.0160  0.2935 -0.3329
   73CHL1  H27A 7880   1.320   2.427   8.037 -0.2662 -0.2202 -2.6391
   73CHL1  H27B 7881   1.216   2.519   7.925 -1.5421 -0.2054 -0.0896
   73CHL1  H27C 7882   1.294   2.590   8.076  0.0559 -0.2814  0.7902
   74CHL1    C3 7883   3.355   1.843   6.962 -0.0443  0.8539  0.7485
   74CHL1    H3 7884   3.404   1.912   7.033 -1.6078  1.9167  0.8492
   74CHL1    O3 7885   3.378   1.883   6.828  0.4527 -0.2230 -0.1611
   74CHL1   H3' 7886   3.370   1.806   6.772  0.8405 -0.4295  0.0602
   74CHL1    C4 7887   3.416   1.705   6.983  0.0176 -0.2814 -0.7852
   74CHL1   H4A 7888   3.378   1.640   6.902 -2.9202  0.1558  0.1224
   74CHL1   H4B 7889   3.526   1.721   6.976  0.1433 -0.0695  1.1290
   74CHL1    C5 7890   3.370   1.666   7.119 -0.0135  0.4327  0.4827
   74CHL1    C6 7891   3.460   1.627   7.204  0.0974 -0.1744 -0.3012
   74CHL1    H6 7892   3.564   1.625   7.168 -0.3805  0.4610 -1.8281
   74CHL1    C7 7893   3.426   1.571   7.342  0.3336  0.1101  0.5433
   74CHL1   H7A 7894   3.486   1.480   7.365 -1.9123 -2.0237 -1.4204
   74CHL1   H7B 7895   3.437   1.649   7.420  2.5348  1.1126 -0.6858
   74CHL1    C8 7896   3.279   1.527   7.353 -0.5273 -0.3818 -0.0253
   74CHL1    H8 7897   3.282   1.428   7.302  2.9506 -0.0565 -0.6500
   74CHL1   C14 7898   3.244   1.514   7.502 -0.2900  0.0460 -0.1001
   74CHL1   H14 7899   3.251   1.615   7.548 -0.5378 -0.6833  1.6225
   74CHL1   C15 7900   3.344   1.439   7.587 -0.1530 -0.6947 -0.0126
   74CHL1  H15A 7901   3.381   1.343   7.546  1.9033  1.0426 -2.4708
   74CHL1  H15B 7902   3.432   1.502   7.612 -1.2858  1.0159 -0.1736
   74CHL1   C16 7903   3.259   1.418   7.718  0.7110  0.1190  0.5406
   74CHL1  H16A 7904   3.267   1.309   7.740  2.2640  0.0985 -0.0182
   74CHL1  H16B 7905   3.289   1.481   7.804  1.1311 -1.0655  1.2786
   74CHL1   C17 7906   3.109   1.450   7.684 -1.1434  0.1317 -0.0673
   74CHL1   H17 7907   3.082   1.551   7.722 -0.3308  0.5251 -0.5272
   74CHL1   C13 7908   3.108   1.465   7.532 -0.1280 -0.0437  0.1647
   74CHL1   C18 7909   3.085   1.322   7.469 -0.4486  0.7339 -0.3583
   74CHL1  H18A 7910   3.160   1.257   7.520  0.8213  1.6613 -0.9775
   74CHL1  H18B 7911   2.983   1.279   7.476 -0.0917  0.0120  0.6223
   74CHL1  H18C 7912   3.116   1.324   7.362 -0.4669 -2.5817 -0.5145
   74CHL1   C12 7913   3.009   1.566   7.476  0.3835 -0.4033  0.6380
   74CHL1  H12A 7914   2.903   1.532   7.487  1.0413 -3.6368 -1.8912
   74CHL1  H12B 7915   3.026   1.659   7.535  1.0085 -0.5291  0.6618
   74CHL1   C11 7916   3.034   1.587   7.320 -0.3406  0.5350 -0.4230
   74CHL1  H11A 7917   3.005   1.498   7.260  2.9849  0.7118 -2.5526
   74CHL1  H11B 7918   2.972   1.670   7.281 -0.4675  1.0163  0.7645
   74CHL1    C9 7919   3.183   1.624   7.289  0.4204  0.8578 -0.9455
   74CHL1    H9 7920   3.184   1.714   7.353 -1.4252  1.2503 -1.3960
   74CHL1   C10 7921   3.216   1.663   7.143 -0.8326 -0.6213 -0.4591
   74CHL1   C19 7922   3.160   1.545   7.055  0.5729 -0.1576 -0.3321
   74CHL1  H19A 7923   3.193   1.445   7.088  1.5754  0.6447  1.2018
   74CHL1  H19B 7924   3.049   1.547   7.054  0.5470  0.4874  1.1335
   74CHL1  H19C 7925   3.176   1.561   6.946 -1.0096  0.0334 -0.5642
   74CHL1    C1 7926   3.145   1.785   7.098  0.0561 -0.1873 -0.2475
   74CHL1   H1A 7927   3.036   1.765   7.100  0.0605 -0.1968 -0.1072
   74CHL1   H1B 7928   3.159   1.861   7.178 -0.9072 -0.5624  0.2895
   74CHL1    C2 7929   3.198   1.839   6.964  0.4453 -0.5441  0.0274
   74CHL1   H2A 7930   3.155   1.939   6.942  3.5301  0.6259 -1.2744
   74CHL1   H2B 7931   3.161   1.783   6.876 -1.1529  0.1526  0.2067
   74CHL1   C20 7932   3.013   1.355   7.755 -0.2623  0.4486  0.5750
   74CHL1   H20 7933   3.012   1.253   7.711 -0.4539  0.5184  0.4126
   74CHL1   C21 7934   2.860   1.402   7.726  0.2361 -0.3522 -0.5805
   74CHL1  H21A 7935   2.783   1.330   7.762  0.7492 -0.1963  0.8663
   74CHL1  H21B 7936   2.835   1.415   7.618  1.7568 -0.4099 -0.9557
   74CHL1  H21C 7937   2.841   1.500   7.776  2.1695 -0.8103  1.1712
   74CHL1   C22 7938   3.046   1.333   7.901 -0.7473 -0.7150 -0.8915
   74CHL1  H22A 7939   2.971   1.262   7.942 -0.7055  0.7790  2.0089
   74CHL1  H22B 7940   3.144   1.282   7.904  1.3092  2.7977 -2.3330
   74CHL1   C23 7941   3.053   1.459   7.990  0.2344 -0.4796  0.5995
   74CHL1  H23A 7942   3.095   1.546   7.935 -1.3662  1.3614  2.1447
   74CHL1  H23B 7943   2.949   1.488   8.017  0.6206 -0.3235  2.0064
   74CHL1   C24 7944   3.135   1.440   8.114  0.5170 -0.0673  0.1493
   74CHL1  H24A 7945   3.113   1.341   8.160  1.2822 -0.2369  0.1666
   74CHL1  H24B 7946   3.242   1.445   8.084  0.2717  0.9366 -0.6249
   74CHL1   C25 7947   3.115   1.544   8.227  1.0461  0.4024  0.4110
   74CHL1   H25 7948   3.015   1.531   8.272  0.7533  0.1178 -0.3095
   74CHL1   C26 7949   3.216   1.526   8.341 -0.2073 -0.1600 -0.3504
   74CHL1  H26A 7950   3.321   1.541   8.308 -1.5341  0.7979 -4.8403
   74CHL1  H26B 7951   3.185   1.606   8.412 -1.4537  1.7020 -2.8303
   74CHL1  H26C 7952   3.216   1.440   8.411  1.4887  0.1998  0.1287
   74CHL1   C27 7953   3.117   1.690   8.178  0.5545 -0.7847 -0.4097
   74CHL1  H27A 7954   3.222   1.721   8.158  0.0651  0.0465 -1.9206
   74CHL1  H27B 7955   3.066   1.712   8.081  0.7766  0.9135 -0.1838
   74CHL1  H27C 7956   3.090   1.762   8.258  0.4890 -1.1110 -0.1364
   75CHL1    C3 7957   4.947   5.209   6.803  0.0902 -0.1355  1.0024
   75CHL1    H3 7958   4.893   5.112   6.806  0.0760 -0.3269 -2.1239
   75CHL1    O3 7959   4.945   5.236   6.665 -0.6279 -0.8553  0.2419
   75CHL1   H3' 7960   5.019   5.185   6.629  1.3051  0.4733  2.0714
   75CHL1    C4 7961   4.866   5.308   6.881 -0.0013 -0.3526 -0.3474
   75CHL1   H4A 7962   4.915   5.402   6.848 -2.0715  0.7678 -0.3672
   75CHL1   H4B 7963   4.762   5.314   6.843 -0.1575  1.8617  0.2996
   75CHL1    C5 7964   4.860   5.280   7.026 -0.0468  0.3221  0.0707
   75CHL1    C6 7965   4.742   5.251   7.087  0.7069  0.3338  0.3499
   75CHL1    H6 7966   4.656   5.263   7.019  1.5733 -0.2342 -0.8882
   75CHL1    C7 7967   4.719   5.208   7.230  0.0135 -0.4361  0.6214
   75CHL1   H7A 7968   4.625   5.248   7.273 -0.9717 -2.6084  0.6079
   75CHL1   H7B 7969   4.719   5.098   7.214 -0.7534 -0.3526 -0.0223
   75CHL1    C8 7970   4.847   5.227   7.319  0.5144 -0.9091  0.0006
   75CHL1    H8 7971   4.848   5.334   7.347 -3.4622 -0.9815  1.0193
   75CHL1   C14 7972   4.842   5.158   7.452  0.8340  0.1249 -0.3681
   75CHL1   H14 7973   4.857   5.052   7.422  1.0758 -0.4278  1.5784
   75CHL1   C15 7974   4.708   5.154   7.534 -0.5099  0.4738  0.4211
   75CHL1  H15A 7975   4.661   5.251   7.506  1.0984  1.0762 -0.2917
   75CHL1  H15B 7976   4.639   5.073   7.501 -0.3227 -0.5514  2.4244
   75CHL1   C16 7977   4.763   5.130   7.677  0.3923 -0.1928 -1.0021
   75CHL1  H16A 7978   4.746   5.219   7.742  1.7796 -2.4314  2.6772
   75CHL1  H16B 7979   4.729   5.037   7.726  3.7194 -0.2870  1.4995
   75CHL1   C17 7980   4.919   5.119   7.667 -0.9875  0.3037  0.3352
   75CHL1   H17 7981   4.938   5.013   7.641  3.3257  1.2620 -1.4111
   75CHL1   C13 7982   4.957   5.203   7.546 -0.2869  0.1525 -0.0552
   75CHL1   C18 7983   4.948   5.358   7.571 -0.6456  0.2606  0.5883
   75CHL1  H18A 7984   4.854   5.402   7.610 -0.2916  1.1708  0.4182
   75CHL1  H18B 7985   5.024   5.383   7.647 -2.1157  0.7908  1.9183
   75CHL1  H18C 7986   4.980   5.412   7.479  0.3055 -0.2402  0.6147
   75CHL1   C12 7987   5.084   5.156   7.470  0.6416  0.2829  0.0379
   75CHL1  H12A 7988   5.179   5.166   7.525  1.7095  1.7393 -1.9624
   75CHL1  H12B 7989   5.066   5.047   7.462 -0.8031  0.3089  2.0927
   75CHL1   C11 7990   5.100   5.210   7.326  0.1172  0.4288 -1.1842
   75CHL1  H11A 7991   5.139   5.309   7.356  1.1792 -0.3536  0.1314
   75CHL1  H11B 7992   5.193   5.166   7.285  0.1401 -1.1187  0.4086
   75CHL1    C9 7993   4.976   5.194   7.235 -0.0915  0.3782  0.2648
   75CHL1    H9 7994   4.963   5.085   7.222 -0.6911  0.4559  0.1608
   75CHL1   C10 7995   4.997   5.259   7.098  0.0390 -0.0166  0.2538
   75CHL1   C19 7996   5.055   5.403   7.114  0.3799  0.3971 -0.2723
   75CHL1  H19A 7997   5.068   5.448   7.014 -2.0625  0.0571 -0.8091
   75CHL1  H19B 7998   4.994   5.464   7.185  1.7819  3.3418 -1.4650
   75CHL1  H19C 7999   5.157   5.407   7.157  0.4220 -4.0170  0.4882
   75CHL1    C1 8000   5.085   5.166   7.015 -0.1076  0.0594  0.6323
   75CHL1   H1A 8001   5.183   5.154   7.066  0.4457  1.1961 -0.1063
   75CHL1   H1B 8002   5.056   5.062   7.038  0.5885  0.0175  1.3766
   75CHL1    C2 8003   5.095   5.195   6.864  0.1668 -0.1797  0.3784
   75CHL1   H2A 8004   5.158   5.118   6.815  0.8649 -0.3718  1.5372
   75CHL1   H2B 8005   5.144   5.292   6.840 -0.0292 -0.5627 -1.7170
   75CHL1   C20 8006   4.977   5.154   7.800 -1.3292  0.0612 -0.0732
   75CHL1   H20 8007   4.953   5.259   7.827  2.0715  0.6776  1.0808
   75CHL1   C21 8008   5.130   5.128   7.806  0.5065  0.2655  0.8664
   75CHL1  H21A 8009   5.158   5.021   7.788  2.1135  0.5787  1.3206
   75CHL1  H21B 8010   5.170   5.168   7.901 -0.9836 -0.7070  1.9392
   75CHL1  H21C 8011   5.195   5.184   7.735  1.5507  0.2072  1.7491
   75CHL1   C22 8012   4.910   5.072   7.920 -0.7154 -0.4744 -0.1122
   75CHL1  H22A 8013   4.811   5.113   7.945  0.2733  1.1892  1.2835
   75CHL1  H22B 8014   4.892   4.966   7.891 -0.4342 -0.2274 -1.2300
   75CHL1   C23 8015   4.979   5.092   8.059 -0.0193 -0.4889  0.0428
   75CHL1  H23A 8016   5.075   5.037   8.052  1.2560  1.3468  1.9004
   75CHL1  H23B 8017   4.997   5.194   8.098 -1.1669 -0.7870  1.4180
   75CHL1   C24 8018   4.897   5.011   8.168 -0.3915  0.1399  0.3325
   75CHL1  H24A 8019   4.796   5.054   8.181 -0.4545  0.0958  0.0025
   75CHL1  H24B 8020   4.876   4.914   8.118  0.3341  0.0643  0.1636
   75CHL1   C25 8021   4.972   4.984   8.298 -0.3194 -0.0918 -0.0051
   75CHL1   H25 8022   5.064   4.926   8.274 -0.0631  0.7083 -1.0520
   75CHL1   C26 8023   5.019   5.118   8.365 -0.2970  0.6685 -0.1995
   75CHL1  H26A 8024   5.058   5.093   8.466 -1.3372  2.0175  0.5703
   75CHL1  H26B 8025   5.096   5.168   8.303 -0.5365 -0.9450 -1.9282
   75CHL1  H26C 8026   4.939   5.193   8.384 -0.3796  0.1279  1.8057
   75CHL1   C27 8027   4.880   4.907   8.401  0.0390  0.7623 -0.1975
   75CHL1  H27A 8028   4.920   4.889   8.503 -1.3951 -1.3360  0.0693
   75CHL1  H27B 8029   4.786   4.964   8.411 -1.2987 -1.5989  1.8329
   75CHL1  H27C 8030   4.857   4.805   8.361  2.8082 -0.9447  2.1185
   76CHL1    C3 8031   3.499   5.964   7.318 -0.1094 -0.2724  0.5192
   76CHL1    H3 8032   3.405   5.949   7.375 -0.2258 -0.9800  0.1488
   76CHL1    O3 8033   3.466   5.914   7.193  0.5700  0.0431 -0.1065
   76CHL1   H3' 8034   3.545   5.891   7.144  0.3365  0.6027 -0.7697
   76CHL1    C4 8035   3.554   6.109   7.314  0.4952  0.0938  0.7378
   76CHL1   H4A 8036   3.650   6.107   7.257  0.6715  0.6223  1.0072
   76CHL1   H4B 8037   3.486   6.167   7.248  0.2274  1.2736  2.0098
   76CHL1    C5 8038   3.584   6.172   7.447 -0.4602  0.1751  0.1834
   76CHL1    C6 8039   3.518   6.286   7.483  0.3503 -0.4412  0.8358
   76CHL1    H6 8040   3.446   6.337   7.416  1.6567  2.8055  1.7262
   76CHL1    C7 8041   3.559   6.356   7.605  0.2598  0.4828 -1.3280
   76CHL1   H7A 8042   3.589   6.458   7.575  2.2381 -0.2974 -2.1643
   76CHL1   H7B 8043   3.477   6.366   7.679  1.4162  0.8170 -0.0528
   76CHL1    C8 8044   3.687   6.305   7.684 -0.0146  0.5972  0.8707
   76CHL1    H8 8045   3.775   6.334   7.622  0.6870 -1.9877  0.5399
   76CHL1   C14 8046   3.692   6.345   7.825 -0.1520 -0.7996 -1.0008
   76CHL1   H14 8047   3.603   6.305   7.878  0.2047  0.7874  0.9096
   76CHL1   C15 8048   3.693   6.497   7.847 -0.0478  0.2192  0.2360
   76CHL1  H15A 8049   3.769   6.540   7.779  1.3221 -3.9743 -1.1971
   76CHL1  H15B 8050   3.593   6.542   7.828  0.3337  0.6926 -0.6740
   76CHL1   C16 8051   3.748   6.524   7.991 -0.1436  0.4184  0.3195
   76CHL1  H16A 8052   3.828   6.600   7.974 -2.4737  3.2386  0.9907
   76CHL1  H16B 8053   3.669   6.559   8.062 -0.6040 -1.9933  1.0632
   76CHL1   C17 8054   3.787   6.387   8.042 -0.2618 -0.0129  0.4726
   76CHL1   H17 8055   3.701   6.346   8.101  0.3363 -2.3727 -0.1830
   76CHL1   C13 8056   3.802   6.297   7.920 -0.1239  0.1592  0.5859
   76CHL1   C18 8057   3.931   6.327   7.844 -0.0302  0.0831 -0.7528
   76CHL1  H18A 8058   3.966   6.433   7.845  1.8194 -0.4377 -2.9870
   76CHL1  H18B 8059   4.016   6.275   7.893 -1.6947 -1.3348  0.7459
   76CHL1  H18C 8060   3.930   6.288   7.740  0.0011  1.2535 -1.2075
   76CHL1   C12 8061   3.780   6.141   7.928  0.5742 -0.1106  0.6450
   76CHL1  H12A 8062   3.858   6.089   7.988  2.5864  1.7154 -0.2701
   76CHL1  H12B 8063   3.680   6.125   7.974 -0.5672  1.0426 -1.2886
   76CHL1   C11 8064   3.785   6.081   7.785  0.4361 -1.3196  0.2457
   76CHL1  H11A 8065   3.890   6.086   7.750  0.5796 -0.3277  0.7651
   76CHL1  H11B 8066   3.755   5.976   7.805  0.0005 -0.6954  3.3516
   76CHL1    C9 8067   3.680   6.150   7.688 -0.8856  0.2566  0.1751
   76CHL1    H9 8068   3.583   6.118   7.732 -1.6455  1.5108 -0.5270
   76CHL1   C10 8069   3.673   6.091   7.538 -0.1101 -0.6647  0.0634
   76CHL1   C19 8070   3.811   6.117   7.470  0.1681 -0.1235  0.4236
   76CHL1  H19A 8071   3.815   6.093   7.361  0.4859 -0.3404  0.4820
   76CHL1  H19B 8072   3.856   6.219   7.472 -1.1692  0.5231 -0.8464
   76CHL1  H19C 8073   3.886   6.048   7.515  1.1085  0.3666 -0.3281
   76CHL1    C1 8074   3.644   5.939   7.535 -0.1863  0.0210  0.4338
   76CHL1   H1A 8075   3.732   5.878   7.564 -0.0383  0.9825  2.1498
   76CHL1   H1B 8076   3.566   5.914   7.609  1.3599  0.0618  2.1528
   76CHL1    C2 8077   3.603   5.881   7.394 -0.8786  0.1018  0.7708
   76CHL1   H2A 8078   3.565   5.778   7.407 -2.9062  0.4651 -1.5593
   76CHL1   H2B 8079   3.700   5.873   7.340 -1.2902  1.3112 -0.1983
   76CHL1   C20 8080   3.908   6.402   8.136 -0.7643  0.7120 -0.1425
   76CHL1   H20 8081   3.999   6.430   8.078 -0.2315 -0.7027 -0.0321
   76CHL1   C21 8082   3.934   6.270   8.217 -0.0911  0.2179 -0.2746
   76CHL1  H21A 8083   3.977   6.204   8.139  2.5724  2.9213 -1.2743
   76CHL1  H21B 8084   3.838   6.233   8.261 -0.3702  1.5751  0.3029
   76CHL1  H21C 8085   4.002   6.275   8.304 -1.1024 -0.5965  0.6005
   76CHL1   C22 8086   3.883   6.521   8.231 -0.1989  0.3166  0.2867
   76CHL1  H22A 8087   3.975   6.512   8.292 -1.6050 -0.3744  2.4596
   76CHL1  H22B 8088   3.880   6.621   8.184 -0.0945  0.6389  0.9477
   76CHL1   C23 8089   3.759   6.502   8.315 -0.4269  0.9447 -0.0165
   76CHL1  H23A 8090   3.670   6.501   8.250  0.0082 -0.7928 -0.6328
   76CHL1  H23B 8091   3.762   6.405   8.369  0.6378  1.1101  0.2493
   76CHL1   C24 8092   3.741   6.604   8.428 -0.2990 -0.0039 -0.1000
   76CHL1  H24A 8093   3.817   6.588   8.508 -1.6787 -0.8022  1.0953
   76CHL1  H24B 8094   3.761   6.707   8.393  0.7795 -0.3037 -0.3909
   76CHL1   C25 8095   3.615   6.610   8.517 -0.1145  0.0174  0.2081
   76CHL1   H25 8096   3.532   6.626   8.444 -1.0557  0.8938  1.4222
   76CHL1   C26 8097   3.583   6.473   8.578  0.0632 -0.4390 -0.9157
   76CHL1  H26A 8098   3.669   6.445   8.643  1.1005  1.3148 -1.4572
   76CHL1  H26B 8099   3.487   6.487   8.631  0.6003 -1.8698  0.5258
   76CHL1  H26C 8100   3.560   6.392   8.507 -1.1389  0.9265 -2.1555
   76CHL1   C27 8101   3.621   6.731   8.610  0.5367 -0.5875  0.1180
   76CHL1  H27A 8102   3.539   6.736   8.684  0.2339  1.4789 -0.2884
   76CHL1  H27B 8103   3.713   6.733   8.672 -0.5384 -4.0663  2.0626
   76CHL1  H27C 8104   3.617   6.822   8.545 -2.1033  0.3218  1.4151
   77CHL1    C3 8105   1.363   2.604   6.962  0.1099 -0.4900  0.0960
   77CHL1    H3 8106   1.273   2.649   7.009  0.2573  0.9374 -0.9279
   77CHL1    O3 8107   1.336   2.570   6.822  0.0528  0.8040  0.1425
   77CHL1   H3' 8108   1.419   2.582   6.775  0.1742 -0.0003  0.1470
   77CHL1    C4 8109   1.465   2.708   6.972  0.2744 -0.8138 -0.7670
   77CHL1   H4A 8110   1.566   2.674   6.941  1.4102 -0.6419  2.3815
   77CHL1   H4B 8111   1.447   2.793   6.902 -1.2335 -0.3304  0.1668
   77CHL1    C5 8112   1.482   2.756   7.111 -0.3429 -0.3990  0.4092
   77CHL1    C6 8113   1.468   2.883   7.149 -0.4964 -0.1564  0.5957
   77CHL1    H6 8114   1.445   2.961   7.075 -0.1821  0.5532  1.2323
   77CHL1    C7 8115   1.494   2.936   7.288  0.1497 -0.2790  0.0154
   77CHL1   H7A 8116   1.580   3.007   7.282 -1.6123  1.9938  0.1785
   77CHL1   H7B 8117   1.405   2.990   7.326  1.2418  0.4092  1.7217
   77CHL1    C8 8118   1.546   2.827   7.387  0.4173 -0.5572 -1.1238
   77CHL1    H8 8119   1.657   2.828   7.375  0.4314 -0.1441 -0.9964
   77CHL1   C14 8120   1.526   2.878   7.531 -0.2476  0.4849 -0.7309
   77CHL1   H14 8121   1.417   2.892   7.546  0.1855  2.3725  1.0572
   77CHL1   C15 8122   1.580   3.023   7.568  0.7694 -0.4353 -0.7050
   77CHL1  H15A 8123   1.687   3.020   7.540  1.5789  1.0491  1.9016
   77CHL1  H15B 8124   1.523   3.106   7.520  0.4939 -1.5976 -2.4971
   77CHL1   C16 8125   1.578   3.018   7.725  0.0157 -0.8971 -0.2184
   77CHL1  H16A 8126   1.679   3.034   7.769  0.4605  0.2935 -1.6116
   77CHL1  H16B 8127   1.503   3.090   7.763 -1.6399 -2.6798  0.0476
   77CHL1   C17 8128   1.529   2.871   7.765  0.0026  0.1430  0.4231
   77CHL1   H17 8129   1.418   2.864   7.762  0.0984 -2.7338  0.0938
   77CHL1   C13 8130   1.574   2.784   7.645 -0.8737  0.4366 -0.2550
   77CHL1   C18 8131   1.730   2.777   7.647  0.5665  0.2264  0.0959
   77CHL1  H18A 8132   1.776   2.877   7.666 -1.1923  1.2843 -0.9603
   77CHL1  H18B 8133   1.757   2.705   7.727 -1.0654 -1.9377 -1.1975
   77CHL1  H18C 8134   1.771   2.729   7.555  2.1414  0.5801  0.5793
   77CHL1   C12 8135   1.513   2.644   7.626 -0.1826  0.0960 -0.3181
   77CHL1  H12A 8136   1.545   2.565   7.697 -0.0133  1.7157  1.5114
   77CHL1  H12B 8137   1.406   2.663   7.646  0.1408  0.9249  0.7193
   77CHL1   C11 8138   1.514   2.591   7.481  0.2567 -0.1786  0.9293
   77CHL1  H11A 8139   1.615   2.549   7.466  0.2160  0.3054 -0.8796
   77CHL1  H11B 8140   1.444   2.506   7.469  1.4388 -1.0679  0.1695
   77CHL1    C9 8141   1.484   2.692   7.362  0.1198 -0.0698 -0.0281
   77CHL1    H9 8142   1.374   2.699   7.368  0.0127 -2.1287  1.3961
   77CHL1   C10 8143   1.506   2.642   7.218  0.0081  0.4422  0.3653
   77CHL1   C19 8144   1.650   2.592   7.215 -0.1849  0.2668  0.0957
   77CHL1  H19A 8145   1.670   2.501   7.275  1.3949  1.0507  0.7986
   77CHL1  H19B 8146   1.683   2.563   7.113 -0.5425  0.6758 -0.1448
   77CHL1  H19C 8147   1.721   2.664   7.261  1.3987 -0.1399 -1.5936
   77CHL1    C1 8148   1.416   2.519   7.188  0.0856  0.4454  0.7184
   77CHL1   H1A 8149   1.443   2.436   7.257  1.3117 -0.2145 -0.5265
   77CHL1   H1B 8150   1.312   2.543   7.221 -0.5154 -0.6425 -0.3117
   77CHL1    C2 8151   1.402   2.483   7.042 -0.1361  0.2345 -0.5856
   77CHL1   H2A 8152   1.326   2.402   7.041  0.4766 -0.4730  1.8634
   77CHL1   H2B 8153   1.500   2.434   7.021 -0.8008 -0.8140 -1.3163
   77CHL1   C20 8154   1.578   2.830   7.906  0.3158  0.5696 -0.1062
   77CHL1   H20 8155   1.689   2.840   7.906  0.3191  0.5416  0.3987
   77CHL1   C21 8156   1.521   2.688   7.930  0.0286  0.0721  0.5923
   77CHL1  H21A 8157   1.593   2.623   7.878  1.2177  2.8482 -1.4842
   77CHL1  H21B 8158   1.415   2.687   7.895  0.4037 -1.8906 -0.6240
   77CHL1  H21C 8159   1.533   2.661   8.037  2.3881 -1.4068  0.0081
   77CHL1   C22 8160   1.539   2.936   8.012 -0.0029  0.4084  0.0269
   77CHL1  H22A 8161   1.605   3.023   7.989  0.3915 -0.0669 -0.6459
   77CHL1  H22B 8162   1.433   2.969   8.011 -0.1362 -0.0260  0.0072
   77CHL1   C23 8163   1.563   2.899   8.167 -0.7639  0.5332  0.3968
   77CHL1  H23A 8164   1.519   2.975   8.236 -0.2779  3.6908 -2.5009
   77CHL1  H23B 8165   1.499   2.809   8.179 -1.2165  0.7734 -0.1579
   77CHL1   C24 8166   1.714   2.887   8.207  0.0075 -0.2332  0.1716
   77CHL1  H24A 8167   1.764   2.822   8.131  0.9176  0.6391  0.0071
   77CHL1  H24B 8168   1.758   2.988   8.218 -1.8484  0.5810  0.5120
   77CHL1   C25 8169   1.730   2.816   8.346  0.1557  0.2561 -0.1890
   77CHL1   H25 8170   1.690   2.714   8.332  0.8985 -0.5123  2.6856
   77CHL1   C26 8171   1.877   2.810   8.392 -0.7103 -0.1055 -0.7189
   77CHL1  H26A 8172   1.938   2.752   8.320 -2.2512 -1.8410 -0.6935
   77CHL1  H26B 8173   1.922   2.911   8.400 -0.7625 -0.1190 -0.2226
   77CHL1  H26C 8174   1.884   2.749   8.485 -2.3116 -0.0495 -0.5263
   77CHL1   C27 8175   1.654   2.874   8.462  0.1826  0.0832 -0.2651
   77CHL1  H27A 8176   1.659   2.807   8.551  0.4627 -0.4093 -0.6438
   77CHL1  H27B 8177   1.689   2.975   8.492 -1.2131  1.3114 -2.4851
   77CHL1  H27C 8178   1.549   2.874   8.426 -0.7644 -0.6729  2.3104
   78CHL1    C3 8179   6.575   5.404   6.940  0.4398  0.4711 -0.4045
   78CHL1    H3 8180   6.662   5.465   6.907 -0.3436 -0.3716 -4.6685
   78CHL1    O3 8181   6.512   5.358   6.818 -0.1901 -0.0998  0.0986
   78CHL1   H3' 8182   6.443   5.298   6.848 -0.3660 -0.6592 -1.3558
   78CHL1    C4 8183   6.633   5.280   7.003  0.3264 -1.1471  0.1751
   78CHL1   H4A 8184   6.555   5.205   7.029 -0.7357  0.5160  2.1228
   78CHL1   H4B 8185   6.703   5.238   6.927  0.2482  0.3995 -0.7980
   78CHL1    C5 8186   6.697   5.316   7.136 -0.1466 -0.5215 -0.0798
   78CHL1    C6 8187   6.819   5.274   7.173  0.0297 -0.1109  0.4976
   78CHL1    H6 8188   6.882   5.216   7.104  0.8373  1.3926 -0.0774
   78CHL1    C7 8189   6.892   5.312   7.301  0.1576 -0.1571 -0.6642
   78CHL1   H7A 8190   6.967   5.242   7.343  0.5827 -0.0057 -1.1573
   78CHL1   H7B 8191   6.956   5.399   7.277  0.9880 -0.5827 -0.0284
   78CHL1    C8 8192   6.786   5.354   7.414 -0.3101 -0.7833  0.0721
   78CHL1    H8 8193   6.738   5.257   7.437 -1.4649  0.1058  1.5483
   78CHL1   C14 8194   6.852   5.405   7.542 -0.4467  0.6668 -0.6967
   78CHL1   H14 8195   6.912   5.496   7.519  1.6243 -0.1689  0.9923
   78CHL1   C15 8196   6.952   5.311   7.608 -0.0120 -0.4868 -0.7178
   78CHL1  H15A 8197   6.906   5.212   7.629 -0.8308  0.4415  2.5176
   78CHL1  H15B 8198   7.046   5.314   7.548  1.0333 -0.7784  0.8449
   78CHL1   C16 8199   6.980   5.391   7.740 -0.3273 -0.1367 -0.2599
   78CHL1  H16A 8200   6.987   5.331   7.834 -1.5777 -1.2298 -0.8239
   78CHL1  H16B 8201   7.082   5.435   7.739  0.0607 -0.9575 -2.2774
   78CHL1   C17 8202   6.855   5.493   7.754  0.2319  0.1918 -0.3185
   78CHL1   H17 8203   6.896   5.591   7.721  0.3768 -0.2756 -1.6298
   78CHL1   C13 8204   6.758   5.456   7.648  0.2833 -0.5048 -0.3212
   78CHL1   C18 8205   6.665   5.340   7.697 -0.5913 -0.1462  0.3484
   78CHL1  H18A 8206   6.594   5.379   7.773 -2.3907  2.6756 -2.5280
   78CHL1  H18B 8207   6.614   5.299   7.607 -1.7037 -0.3903  1.0587
   78CHL1  H18C 8208   6.722   5.266   7.757 -0.1915 -1.3914 -1.4730
   78CHL1   C12 8209   6.674   5.574   7.590 -0.3832 -1.0494  0.0054
   78CHL1  H12A 8210   6.611   5.603   7.677  0.0575 -1.3416  0.4253
   78CHL1  H12B 8211   6.743   5.658   7.571  2.1134 -2.7706  1.0099
   78CHL1   C11 8212   6.600   5.536   7.463 -0.1706  0.1305  0.1300
   78CHL1  H11A 8213   6.508   5.476   7.481 -0.3941  0.0486 -1.1469
   78CHL1  H11B 8214   6.564   5.627   7.410 -0.1155 -0.5872 -1.1802
   78CHL1    C9 8215   6.686   5.460   7.356  0.0288 -0.1544  0.7956
   78CHL1    H9 8216   6.757   5.538   7.322 -0.5874  0.6515  1.3496
   78CHL1   C10 8217   6.612   5.399   7.237  0.5697 -0.4167 -0.2462
   78CHL1   C19 8218   6.493   5.317   7.282  0.1362 -0.3378  0.5530
   78CHL1  H19A 8219   6.526   5.233   7.346  0.7150 -0.5056  0.0473
   78CHL1  H19B 8220   6.415   5.379   7.330 -1.3692  0.8191 -3.0317
   78CHL1  H19C 8221   6.445   5.272   7.193 -0.1266  2.0160 -0.5824
   78CHL1    C1 8222   6.547   5.517   7.162  0.2308 -0.0784  0.7216
   78CHL1   H1A 8223   6.464   5.559   7.223  1.3837  0.4469  1.9786
   78CHL1   H1B 8224   6.617   5.601   7.142 -1.0599  1.1089  0.9785
   78CHL1    C2 8225   6.480   5.481   7.032  0.0322  1.1524  0.5819
   78CHL1   H2A 8226   6.450   5.574   6.978  0.2636 -0.5242 -2.6765
   78CHL1   H2B 8227   6.386   5.423   7.048  0.6236  0.3995  1.3638
   78CHL1   C20 8228   6.815   5.513   7.901  0.0932 -0.1425  0.5573
   78CHL1   H20 8229   6.790   5.413   7.943 -0.5776 -0.4409 -0.5151
   78CHL1   C21 8230   6.700   5.607   7.915  0.3023 -0.7343 -0.1647
   78CHL1  H21A 8231   6.710   5.705   7.863 -2.4048 -0.6563 -0.7127
   78CHL1  H21B 8232   6.680   5.626   8.022  2.5108 -2.0824  0.5476
   78CHL1  H21C 8233   6.614   5.559   7.864  0.9821 -1.2336 -0.8628
   78CHL1   C22 8234   6.941   5.571   7.977  0.3768 -0.1500 -0.0294
   78CHL1  H22A 8235   7.023   5.496   7.965 -0.4391 -1.3158  1.3249
   78CHL1  H22B 8236   6.974   5.662   7.922 -2.4148  1.6661  1.0870
   78CHL1   C23 8237   6.934   5.601   8.132  0.0822  0.0743 -0.3688
   78CHL1  H23A 8238   7.024   5.654   8.168  0.6817 -2.1635  1.6898
   78CHL1  H23B 8239   6.853   5.675   8.152 -0.0112  0.4369 -1.9491
   78CHL1   C24 8240   6.901   5.482   8.222  0.6539 -0.1223 -0.3248
   78CHL1  H24A 8241   6.809   5.432   8.185  1.6498 -1.8921 -0.5121
   78CHL1  H24B 8242   6.980   5.405   8.233  0.8119  0.0036 -0.5814
   78CHL1   C25 8243   6.863   5.525   8.367 -0.0274 -0.0362  0.4113
   78CHL1   H25 8244   6.954   5.574   8.406 -0.1479 -0.4709  1.2649
   78CHL1   C26 8245   6.741   5.619   8.365 -0.0383  0.1555 -0.3785
   78CHL1  H26A 8246   6.653   5.593   8.302 -0.6710  1.0368  0.1131
   78CHL1  H26B 8247   6.699   5.638   8.467 -1.8346 -2.3049 -0.5750
   78CHL1  H26C 8248   6.778   5.720   8.337 -0.7257  1.5513  3.1713
   78CHL1   C27 8249   6.823   5.409   8.447 -0.5212  1.2072  0.1014
   78CHL1  H27A 8250   6.909   5.339   8.437 -0.9228  0.2775  2.4817
   78CHL1  H27B 8251   6.815   5.416   8.557 -1.1561 -0.9203  0.2497
   78CHL1  H27C 8252   6.727   5.369   8.405  0.5617 -0.1215 -1.2313
   79CHL1    C3 8253   3.126   6.051   7.201 -0.5210 -0.4556  0.0161
   79CHL1    H3 8254   3.227   6.008   7.184 -1.3337 -4.5319  3.7216
   79CHL1    O3 8255   3.051   6.083   7.086  0.4112 -0.5743  0.1802
   79CHL1   H3' 8256   3.030   6.177   7.086 -2.7053 -1.1855  0.9174
   79CHL1    C4 8257   3.056   5.940   7.279 -0.8186  1.0655  0.0477
   79CHL1   H4A 8258   2.951   5.962   7.307 -1.7038 -0.9854 -1.4832
   79CHL1   H4B 8259   3.037   5.854   7.212 -1.3338  2.8655 -2.2520
   79CHL1    C5 8260   3.122   5.911   7.411 -0.3042  0.0806 -0.0136
   79CHL1    C6 8261   3.164   5.789   7.455 -0.5083  0.4587  0.1043
   79CHL1    H6 8262   3.155   5.701   7.389  1.6511  1.1847 -1.2606
   79CHL1    C7 8263   3.223   5.762   7.592  0.4389 -0.2589  0.5095
   79CHL1   H7A 8264   3.200   5.658   7.622 -2.1626 -0.2337 -1.0850
   79CHL1   H7B 8265   3.334   5.773   7.583  0.7877 -2.3200  1.6734
   79CHL1    C8 8266   3.186   5.869   7.695 -0.0065  0.2800 -0.2074
   79CHL1    H8 8267   3.076   5.859   7.706 -0.2331  1.9166 -0.6262
   79CHL1   C14 8268   3.264   5.855   7.820 -0.5213  0.7711  0.3001
   79CHL1   H14 8269   3.368   5.858   7.781 -0.8412 -1.6340 -0.9337
   79CHL1   C15 8270   3.239   5.722   7.892 -0.2524  0.4972 -0.1501
   79CHL1  H15A 8271   3.129   5.702   7.899 -0.1976 -0.9153 -2.3981
   79CHL1  H15B 8272   3.272   5.629   7.842 -1.8755 -0.4471  0.4208
   79CHL1   C16 8273   3.284   5.747   8.040 -0.1911 -0.6884  0.2599
   79CHL1  H16A 8274   3.185   5.739   8.091 -0.9135  1.4691 -0.7143
   79CHL1  H16B 8275   3.345   5.671   8.095  2.4776  0.0307 -1.5278
   79CHL1   C17 8276   3.338   5.893   8.044 -0.2510 -0.4743 -0.6799
   79CHL1   H17 8277   3.442   5.893   8.004  0.6536 -1.7664  1.4584
   79CHL1   C13 8278   3.256   5.961   7.927 -0.0852  0.0928  0.1402
   79CHL1   C18 8279   3.117   5.992   7.968 -0.2318 -0.2037 -0.4461
   79CHL1  H18A 8280   3.078   5.919   8.042 -0.2842  1.6263  1.3849
   79CHL1  H18B 8281   3.106   6.087   8.023 -1.4729 -0.2381 -0.6014
   79CHL1  H18C 8282   3.037   5.998   7.890 -1.1996 -1.5249  0.3967
   79CHL1   C12 8283   3.308   6.093   7.859 -0.0080  0.2096  0.2690
   79CHL1  H12A 8284   3.284   6.176   7.928 -0.0478 -0.0247  0.5354
   79CHL1  H12B 8285   3.417   6.082   7.838 -0.3571 -2.3562 -0.5102
   79CHL1   C11 8286   3.224   6.126   7.738  0.2524  0.3422  0.4230
   79CHL1  H11A 8287   3.124   6.160   7.774  0.3895 -0.6292  1.7715
   79CHL1  H11B 8288   3.271   6.209   7.680  0.9882  1.0536  1.9901
   79CHL1    C9 8289   3.215   6.007   7.633 -0.3332 -0.7834 -0.0400
   79CHL1    H9 8290   3.317   6.009   7.589  0.4999 -0.9610  1.8184
   79CHL1   C10 8291   3.132   6.041   7.502  0.2657 -0.0355 -0.0734
   79CHL1   C19 8292   2.986   6.084   7.544 -0.0670 -0.6005  0.3851
   79CHL1  H19A 8293   2.924   6.115   7.458  2.3964 -0.7153 -1.5573
   79CHL1  H19B 8294   2.935   5.999   7.595 -0.7496 -0.4602 -0.0498
   79CHL1  H19C 8295   2.991   6.180   7.600  0.2256  0.1240 -0.8551
   79CHL1    C1 8296   3.196   6.152   7.417 -0.5502 -0.8232  0.4425
   79CHL1   H1A 8297   3.203   6.248   7.473 -2.2381 -0.0313 -0.6199
   79CHL1   H1B 8298   3.301   6.122   7.398 -0.0528  0.8935  0.3171
   79CHL1    C2 8299   3.137   6.180   7.276  0.4119 -0.4535  0.3946
   79CHL1   H2A 8300   3.214   6.238   7.220  1.0658 -1.2688  0.4381
   79CHL1   H2B 8301   3.042   6.235   7.292 -0.5642 -1.1650 -2.3927
   79CHL1   C20 8302   3.332   5.959   8.182  0.1848  0.4621 -0.0117
   79CHL1   H20 8303   3.231   5.998   8.205  0.4838 -0.5679  3.8439
   79CHL1   C21 8304   3.428   6.082   8.183 -0.1344  0.1293 -0.3746
   79CHL1  H21A 8305   3.380   6.160   8.120  1.7599  1.5680 -0.1264
   79CHL1  H21B 8306   3.519   6.050   8.128  2.3470  2.6813  1.9100
   79CHL1  H21C 8307   3.456   6.106   8.288 -1.4897  0.8978 -0.1658
   79CHL1   C22 8308   3.366   5.856   8.288  0.2144 -0.3878  0.0859
   79CHL1  H22A 8309   3.277   5.789   8.294 -1.3026  1.6767  3.5489
   79CHL1  H22B 8310   3.460   5.805   8.259  0.4583 -1.0019  1.8251
   79CHL1   C23 8311   3.364   5.907   8.438 -0.1053  0.4999  1.1638
   79CHL1  H23A 8312   3.436   5.991   8.445  0.7934 -0.2781  1.6219
   79CHL1  H23B 8313   3.260   5.942   8.455 -0.7536 -0.9569  0.4337
   79CHL1   C24 8314   3.414   5.799   8.534  0.3454 -0.0397  0.1501
   79CHL1  H24A 8315   3.325   5.735   8.552 -1.0540  1.7402 -0.2079
   79CHL1  H24B 8316   3.493   5.738   8.485  0.7326  0.4141  0.1992
   79CHL1   C25 8317   3.460   5.836   8.673 -0.0527  0.4467  0.4964
   79CHL1   H25 8318   3.540   5.912   8.661 -0.9449  1.4972  1.0150
   79CHL1   C26 8319   3.343   5.894   8.757 -0.7679 -0.1380 -0.0404
   79CHL1  H26A 8320   3.260   5.820   8.750  0.1141 -1.0897 -0.7533
   79CHL1  H26B 8321   3.370   5.905   8.864 -0.9288 -0.4624  0.0358
   79CHL1  H26C 8322   3.316   5.994   8.719 -0.6548 -0.1454 -0.1424
   79CHL1   C27 8323   3.528   5.714   8.744  0.6917 -0.1172 -0.4678
   79CHL1  H27A 8324   3.576   5.750   8.837  2.1461  3.0257 -2.2753
   79CHL1  H27B 8325   3.452   5.644   8.785  0.2307  1.3024  1.2285
   79CHL1  H27C 8326   3.605   5.668   8.679  1.5865  1.3022 -0.4487
   80CHL1    C3 8327   1.270   1.884   6.946  0.8562 -0.0172  0.1166
   80CHL1    H3 8328   1.339   1.968   6.970 -0.4652  0.9929  0.4814
   80CHL1    O3 8329   1.231   1.879   6.807  0.5893 -0.2285 -0.2868
   80CHL1   H3' 8330   1.304   1.914   6.754  1.3802 -2.5823 -0.9107
   80CHL1    C4 8331   1.325   1.746   6.983  0.2128 -0.3161  0.4320
   80CHL1   H4A 8332   1.249   1.669   6.957 -0.9037 -0.2600  3.1322
   80CHL1   H4B 8333   1.409   1.725   6.914 -4.8909 -0.1172 -6.9558
   80CHL1    C5 8334   1.344   1.734   7.133 -0.3217  0.1526 -0.4554
   80CHL1    C6 8335   1.466   1.707   7.177 -0.1589  0.3313 -0.3514
   80CHL1    H6 8336   1.552   1.688   7.110 -0.6407  0.9621 -1.1779
   80CHL1    C7 8337   1.498   1.703   7.327 -0.0444 -0.0824  0.2201
   80CHL1   H7A 8338   1.573   1.623   7.344  0.5214 -0.0432 -1.8295
   80CHL1   H7B 8339   1.559   1.794   7.349  0.4709 -0.1410 -0.8625
   80CHL1    C8 8340   1.367   1.670   7.409 -0.1554 -0.0938 -0.2988
   80CHL1    H8 8341   1.337   1.565   7.391  0.3227 -0.4519  0.9154
   80CHL1   C14 8342   1.406   1.705   7.557  0.1628  0.4709  0.2545
   80CHL1   H14 8343   1.430   1.812   7.570 -1.3099  1.0887 -1.6099
   80CHL1   C15 8344   1.529   1.634   7.625  0.3684 -0.4677 -0.3031
   80CHL1  H15A 8345   1.538   1.526   7.599  1.6318 -0.6575  0.8147
   80CHL1  H15B 8346   1.621   1.689   7.596 -0.2070  0.3610 -0.6106
   80CHL1   C16 8347   1.506   1.649   7.776 -0.4992  0.1489  0.3595
   80CHL1  H16A 8348   1.487   1.546   7.815 -2.8540  1.3549  2.7162
   80CHL1  H16B 8349   1.585   1.705   7.829 -1.6900  1.5758  0.6839
   80CHL1   C17 8350   1.369   1.718   7.793 -0.1701  0.0617 -0.8008
   80CHL1   H17 8351   1.386   1.828   7.790  0.4600 -0.0427 -2.2653
   80CHL1   C13 8352   1.292   1.690   7.662  1.1756 -1.0914 -0.2133
   80CHL1   C18 8353   1.241   1.549   7.663  0.4775  0.0699 -0.1912
   80CHL1  H18A 8354   1.159   1.515   7.729 -1.6150  0.2248 -2.5751
   80CHL1  H18B 8355   1.206   1.516   7.563  0.0997 -2.6201  0.7373
   80CHL1  H18C 8356   1.323   1.474   7.669  1.6985  1.4970  2.7088
   80CHL1   C12 8357   1.177   1.778   7.612 -0.4496 -0.3033  0.4435
   80CHL1  H12A 8358   1.092   1.764   7.682 -0.2157  0.2432  0.8448
   80CHL1  H12B 8359   1.206   1.885   7.620  3.2059 -1.0841 -0.2810
   80CHL1   C11 8360   1.129   1.748   7.467  0.2038 -0.2373 -0.2763
   80CHL1  H11A 8361   1.082   1.648   7.452 -1.0135  0.4442 -1.2282
   80CHL1  H11B 8362   1.061   1.831   7.441 -0.7324  0.0314  2.6032
   80CHL1    C9 8363   1.252   1.766   7.373 -0.4132  0.9804  0.1614
   80CHL1    H9 8364   1.297   1.866   7.393 -1.0560  1.6666 -1.6987
   80CHL1   C10 8365   1.222   1.772   7.223 -0.4377 -0.2815  0.0472
   80CHL1   C19 8366   1.121   1.655   7.205 -0.4068 -0.0984 -0.5045
   80CHL1  H19A 8367   1.017   1.681   7.236 -0.5781 -2.2293  0.9340
   80CHL1  H19B 8368   1.120   1.622   7.099 -1.6164  0.6359 -0.7449
   80CHL1  H19C 8369   1.156   1.567   7.263 -0.9385 -1.3454 -1.9972
   80CHL1    C1 8370   1.170   1.911   7.178 -0.3341  0.2146 -0.4299
   80CHL1   H1A 8371   1.091   1.947   7.248 -0.1800 -0.6887  0.2209
   80CHL1   H1B 8372   1.254   1.980   7.198  0.6876 -1.1629  0.1632
   80CHL1    C2 8373   1.138   1.921   7.029 -0.0447  0.5913 -0.3025
   80CHL1   H2A 8374   1.097   2.018   6.992  0.3299  0.3706 -1.3267
   80CHL1   H2B 8375   1.063   1.842   7.005  0.8984 -0.5205  0.3086
   80CHL1   C20 8376   1.301   1.688   7.928  0.2393 -0.8430 -0.4530
   80CHL1   H20 8377   1.282   1.579   7.928 -0.0774 -0.7953 -1.2360
   80CHL1   C21 8378   1.168   1.771   7.941  0.2418  0.4791  0.1710
   80CHL1  H21A 8379   1.187   1.877   7.914 -0.4176  0.0469 -2.2538
   80CHL1  H21B 8380   1.124   1.758   8.042  1.6449 -1.4001  0.6025
   80CHL1  H21C 8381   1.092   1.721   7.877  0.0102  0.4484  0.4654
   80CHL1   C22 8382   1.393   1.724   8.054  0.4741 -0.1409  1.0547
   80CHL1  H22A 8383   1.350   1.668   8.139 -1.1139  1.2546  1.2217
   80CHL1  H22B 8384   1.498   1.687   8.048  0.2735 -1.1578  3.1975
   80CHL1   C23 8385   1.414   1.873   8.073  0.2313 -0.0359  0.7011
   80CHL1  H23A 8386   1.437   1.930   7.981 -1.6784 -0.6953 -0.2275
   80CHL1  H23B 8387   1.323   1.923   8.112 -0.9614 -0.1614 -1.7567
   80CHL1   C24 8388   1.513   1.923   8.186 -0.2140 -0.4168 -0.0960
   80CHL1  H24A 8389   1.618   1.901   8.158  1.1230  2.7298  1.8789
   80CHL1  H24B 8390   1.503   2.034   8.191 -0.2099 -0.4687  2.2221
   80CHL1   C25 8391   1.492   1.860   8.321  0.3130  0.0633 -0.3160
   80CHL1   H25 8392   1.484   1.750   8.314 -0.1765  0.1066 -0.4793
   80CHL1   C26 8393   1.619   1.879   8.413  0.4937 -0.1966  0.9979
   80CHL1  H26A 8394   1.714   1.859   8.358 -1.3733  1.2782 -3.1625
   80CHL1  H26B 8395   1.627   1.986   8.439 -0.3510 -0.5345  2.7777
   80CHL1  H26C 8396   1.608   1.828   8.511 -0.9476 -0.2311  0.8375
   80CHL1   C27 8397   1.367   1.921   8.386 -0.4888  0.1216  0.0126
   80CHL1  H27A 8398   1.358   1.871   8.485 -2.7123 -1.4675 -0.9096
   80CHL1  H27B 8399   1.393   2.029   8.386  0.2745 -0.0528  0.8424
   80CHL1  H27C 8400   1.274   1.906   8.326 -1.2448  1.7471  0.7259
   81CHL1    C3 8401   1.415   6.670   6.886 -0.0960  0.6036  0.5114
   81CHL1    H3 8402   1.360   6.766   6.891 -1.1787  0.1103 -0.9448
   81CHL1    O3 8403   1.434   6.620   6.755 -0.4572  0.3824 -0.5160
   81CHL1   H3' 8404   1.460   6.695   6.700  0.8998  0.7055  0.5076
   81CHL1    C4 8405   1.556   6.694   6.943  0.2882 -0.1946  0.0911
   81CHL1   H4A 8406   1.623   6.607   6.923  2.4136  0.3707  3.9473
   81CHL1   H4B 8407   1.589   6.778   6.879 -3.4416  2.0054  0.7770
   81CHL1    C5 8408   1.567   6.711   7.092  0.5274 -0.2748 -0.4535
   81CHL1    C6 8409   1.613   6.821   7.155  0.2963  0.8408  0.3361
   81CHL1    H6 8410   1.658   6.895   7.087  1.0914 -1.2277 -1.5243
   81CHL1    C7 8411   1.632   6.840   7.298 -0.7046 -0.6399  0.2718
   81CHL1   H7A 8412   1.736   6.869   7.325 -0.4021 -2.6597  1.5184
   81CHL1   H7B 8413   1.567   6.925   7.330 -1.0639 -0.9837  0.4596
   81CHL1    C8 8414   1.595   6.712   7.377 -0.3571 -0.4904  0.3438
   81CHL1    H8 8415   1.690   6.654   7.378  0.0486  0.1728  0.2480
   81CHL1   C14 8416   1.559   6.748   7.519  0.6970  0.4047  0.0490
   81CHL1   H14 8417   1.462   6.800   7.505  0.4907 -0.0937 -0.3597
   81CHL1   C15 8418   1.644   6.851   7.588 -0.4556  0.5644 -0.1543
   81CHL1  H15A 8419   1.749   6.822   7.567 -0.4821  0.9414 -0.8553
   81CHL1  H15B 8420   1.628   6.952   7.544  2.9143  0.5995 -1.6286
   81CHL1   C16 8421   1.594   6.849   7.730  0.1948  0.0702 -0.3579
   81CHL1  H16A 8422   1.682   6.824   7.793  0.2792  0.7471 -0.1975
   81CHL1  H16B 8423   1.551   6.946   7.763  1.3280 -0.2702  2.4456
   81CHL1   C17 8424   1.499   6.721   7.746  0.3080  0.5711  0.0679
   81CHL1   H17 8425   1.397   6.767   7.753  0.7513  1.5589  0.2317
   81CHL1   C13 8426   1.526   6.642   7.614  0.0903  0.5851  0.0170
   81CHL1   C18 8427   1.639   6.543   7.639  0.1625  0.2559  0.2940
   81CHL1  H18A 8428   1.718   6.602   7.690 -0.0588  2.4033 -1.6815
   81CHL1  H18B 8429   1.598   6.456   7.695 -0.2535 -0.3830 -0.9671
   81CHL1  H18C 8430   1.683   6.498   7.547  1.0229 -1.1139  1.3441
   81CHL1   C12 8431   1.401   6.573   7.560 -0.0968  0.4709 -0.0528
   81CHL1  H12A 8432   1.364   6.491   7.627 -0.3297 -0.3618 -1.1667
   81CHL1  H12B 8433   1.322   6.650   7.575 -0.6137  0.4395 -2.3518
   81CHL1   C11 8434   1.421   6.529   7.412 -0.1661  0.8513 -1.0660
   81CHL1  H11A 8435   1.480   6.435   7.420 -0.4474  0.8449  2.0879
   81CHL1  H11B 8436   1.313   6.515   7.389 -1.1831  3.5916  1.4189
   81CHL1    C9 8437   1.474   6.642   7.319  0.3904  0.2992  0.5931
   81CHL1    H9 8438   1.391   6.716   7.324 -0.0236  0.0478 -1.6855
   81CHL1   C10 8439   1.495   6.606   7.171  0.3756 -0.6214 -0.6074
   81CHL1   C19 8440   1.570   6.467   7.173 -0.4068  0.4551 -0.3031
   81CHL1  H19A 8441   1.609   6.427   7.077  1.0197  0.1499  0.3747
   81CHL1  H19B 8442   1.659   6.480   7.239 -1.6792 -0.1794  1.6365
   81CHL1  H19C 8443   1.507   6.386   7.216 -1.5688  1.5024  0.0177
   81CHL1    C1 8444   1.352   6.593   7.112 -0.9119  0.1287 -0.0362
   81CHL1   H1A 8445   1.293   6.520   7.172 -1.3099  0.1913 -0.3487
   81CHL1   H1B 8446   1.308   6.693   7.127 -2.6342 -0.4901 -0.6600
   81CHL1    C2 8447   1.348   6.562   6.964 -0.4420  0.5002  0.3284
   81CHL1   H2A 8448   1.239   6.559   6.939 -0.5131  1.8737  0.4048
   81CHL1   H2B 8449   1.396   6.463   6.952 -2.0178 -0.2507 -0.1384
   81CHL1   C20 8450   1.512   6.647   7.883  0.1226 -0.1005  0.4870
   81CHL1   H20 8451   1.613   6.602   7.891  0.4948  1.0099  3.4768
   81CHL1   C21 8452   1.399   6.543   7.897  0.3351  0.1020 -0.2287
   81CHL1  H21A 8453   1.305   6.601   7.889  0.0208 -0.3606  0.0884
   81CHL1  H21B 8454   1.400   6.499   7.999 -2.3925 -1.5274 -0.8095
   81CHL1  H21C 8455   1.400   6.457   7.827 -0.3962 -0.5560  0.5415
   81CHL1   C22 8456   1.496   6.744   8.002  0.1616 -0.2545  0.1779
   81CHL1  H22A 8457   1.534   6.847   7.984 -1.7509  0.8712  2.0475
   81CHL1  H22B 8458   1.388   6.763   8.018  0.0790  1.2174 -1.7158
   81CHL1   C23 8459   1.567   6.701   8.136  0.5241 -0.2482  0.8935
   81CHL1  H23A 8460   1.561   6.591   8.151  0.9618 -0.3509  0.3529
   81CHL1  H23B 8461   1.673   6.729   8.121  0.5876 -1.7469 -2.1107
   81CHL1   C24 8462   1.517   6.767   8.269  0.1787  0.0327  0.0132
   81CHL1  H24A 8463   1.555   6.871   8.265 -0.4357  0.4329  2.6415
   81CHL1  H24B 8464   1.406   6.762   8.269  0.0029  2.3861 -1.4354
   81CHL1   C25 8465   1.561   6.690   8.402  0.6422  0.0679  0.3008
   81CHL1   H25 8466   1.671   6.686   8.388  0.3377 -0.1931 -2.6744
   81CHL1   C26 8467   1.519   6.763   8.530  0.2681 -0.3206  0.1227
   81CHL1  H26A 8468   1.575   6.858   8.543 -1.2966  0.8626 -1.2774
   81CHL1  H26B 8469   1.408   6.775   8.529  0.2023 -0.9605 -0.5073
   81CHL1  H26C 8470   1.527   6.699   8.620 -0.4894 -0.3848  0.1509
   81CHL1   C27 8471   1.512   6.542   8.399 -0.1725 -0.2947  0.1250
   81CHL1  H27A 8472   1.565   6.471   8.332  0.1879 -0.3262  0.4416
   81CHL1  H27B 8473   1.524   6.488   8.495 -1.0712  0.3855  0.6411
   81CHL1  H27C 8474   1.404   6.540   8.372 -0.1355 -1.5129  0.0285
   82CHL1    C3 8475   6.613   3.320   6.885  0.6475  0.3386 -0.5053
   82CHL1    H3 8476   6.546   3.407   6.897  3.1428  2.3836 -0.4185
   82CHL1    O3 8477   6.679   3.329   6.758  0.7950 -0.0202  0.8427
   82CHL1   H3' 8478   6.690   3.422   6.734 -0.4490  0.1178  0.7228
   82CHL1    C4 8479   6.718   3.312   7.009  0.5248 -0.7515  0.7086
   82CHL1   H4A 8480   6.791   3.233   6.983  3.2411  2.1165 -1.1890
   82CHL1   H4B 8481   6.789   3.397   7.000 -2.2537  1.6302 -0.4325
   82CHL1    C5 8482   6.645   3.293   7.139 -0.2932  0.3691  0.7574
   82CHL1    C6 8483   6.670   3.386   7.232  0.4457 -0.5182  0.2850
   82CHL1    H6 8484   6.750   3.459   7.212 -0.4492  0.1788 -0.8566
   82CHL1    C7 8485   6.602   3.393   7.362  0.0458 -0.2137 -0.6753
   82CHL1   H7A 8486   6.671   3.410   7.447  1.8184  0.7401 -2.2561
   82CHL1   H7B 8487   6.528   3.474   7.379  0.4703 -0.4210  3.2228
   82CHL1    C8 8488   6.527   3.266   7.397  0.4011  0.7069 -0.0004
   82CHL1    H8 8489   6.602   3.193   7.434 -1.1966 -1.8589 -1.5143
   82CHL1   C14 8490   6.439   3.274   7.520 -0.6757 -0.0707  0.3957
   82CHL1   H14 8491   6.359   3.349   7.498 -0.9764 -0.4204  0.2841
   82CHL1   C15 8492   6.501   3.331   7.650  0.0958 -0.3366 -0.0748
   82CHL1  H15A 8493   6.589   3.273   7.684  1.1268  1.2694  0.1208
   82CHL1  H15B 8494   6.518   3.437   7.621 -2.7003 -0.2376 -1.6713
   82CHL1   C16 8495   6.393   3.308   7.760  0.2718 -0.6018  0.0820
   82CHL1  H16A 8496   6.441   3.281   7.856  1.2258  0.9800  0.0840
   82CHL1  H16B 8497   6.340   3.402   7.785  2.1163  1.0780 -1.8696
   82CHL1   C17 8498   6.301   3.197   7.700  0.7449 -0.8237  0.2763
   82CHL1   H17 8499   6.221   3.268   7.667  1.1845  0.6859  2.3062
   82CHL1   C13 8500   6.368   3.147   7.565 -0.1826 -0.0128 -0.4220
   82CHL1   C18 8501   6.460   3.039   7.611 -0.5357  0.1786  0.3173
   82CHL1  H18A 8502   6.518   3.074   7.700 -0.9938 -4.0530  2.5316
   82CHL1  H18B 8503   6.404   2.948   7.642 -1.0941 -0.4512 -2.3383
   82CHL1  H18C 8504   6.535   3.021   7.531 -0.8603  0.4161 -0.0416
   82CHL1   C12 8505   6.273   3.096   7.446  0.5527  0.6668 -0.2019
   82CHL1  H12A 8506   6.223   2.998   7.464 -3.2804  1.6827 -3.8671
   82CHL1  H12B 8507   6.191   3.171   7.450 -1.3740 -1.3711  1.7619
   82CHL1   C11 8508   6.357   3.089   7.320  0.5173 -0.9614  0.0321
   82CHL1  H11A 8509   6.420   2.999   7.334  0.1166 -1.1131  0.8849
   82CHL1  H11B 8510   6.282   3.073   7.239 -0.4825  1.3455  0.3959
   82CHL1    C9 8511   6.452   3.208   7.277 -0.0209 -0.4722 -0.0646
   82CHL1    H9 8512   6.389   3.296   7.251  0.4873 -0.2975 -0.7250
   82CHL1   C10 8513   6.541   3.182   7.153  0.1937  0.2257  0.3518
   82CHL1   C19 8514   6.598   3.038   7.149 -0.5985 -0.3641  0.1405
   82CHL1  H19A 8515   6.534   2.951   7.125  1.1160 -1.6810  0.1547
   82CHL1  H19B 8516   6.671   3.042   7.065  1.3575  0.9636  1.7914
   82CHL1  H19C 8517   6.659   3.032   7.242 -1.4868  1.7837  0.9133
   82CHL1    C1 8518   6.445   3.186   7.028 -0.2671 -0.1598 -0.5294
   82CHL1   H1A 8519   6.365   3.109   7.035  0.2893 -0.7420 -0.4377
   82CHL1   H1B 8520   6.389   3.282   7.027 -2.0572 -1.1550 -1.2112
   82CHL1    C2 8521   6.522   3.192   6.895  0.0145  0.7457  0.0434
   82CHL1   H2A 8522   6.471   3.188   6.797  1.5852 -1.6624 -0.7806
   82CHL1   H2B 8523   6.580   3.097   6.894 -1.5138 -0.2699 -2.8401
   82CHL1   C20 8524   6.246   3.096   7.797 -0.8127  0.8136  0.0824
   82CHL1   H20 8525   6.327   3.041   7.849 -0.6870  1.2895  0.4011
   82CHL1   C21 8526   6.163   2.992   7.741  0.6022  0.2422  0.4226
   82CHL1  H21A 8527   6.210   2.911   7.682 -0.9552  0.8378 -1.7570
   82CHL1  H21B 8528   6.089   3.032   7.669 -0.2669  0.3996  1.3873
   82CHL1  H21C 8529   6.116   2.936   7.824 -0.6569  2.3803  1.2174
   82CHL1   C22 8530   6.170   3.168   7.910 -0.8578  0.2008 -0.4080
   82CHL1  H22A 8531   6.152   3.081   7.977  1.9911  0.0330  0.2671
   82CHL1  H22B 8532   6.239   3.241   7.958  0.1080 -0.6553 -0.4547
   82CHL1   C23 8533   6.030   3.213   7.883  0.2086  0.1274 -0.0923
   82CHL1  H23A 8534   6.021   3.257   7.782  0.4151 -1.2549 -0.7360
   82CHL1  H23B 8535   5.950   3.135   7.879 -0.2350  0.4559  1.5591
   82CHL1   C24 8536   5.978   3.303   7.999 -0.4544 -0.3144  0.3264
   82CHL1  H24A 8537   5.968   3.234   8.086  0.9626 -1.9346 -0.7100
   82CHL1  H24B 8538   6.062   3.370   8.027 -1.5496 -0.5575  4.9445
   82CHL1   C25 8539   5.848   3.372   7.957  1.1620 -0.0383  0.8160
   82CHL1   H25 8540   5.777   3.307   7.902  2.3599  0.0733 -0.9555
   82CHL1   C26 8541   5.774   3.435   8.071 -0.1186 -0.0311 -1.3946
   82CHL1  H26A 8542   5.683   3.486   8.034 -0.7589 -1.1002 -1.3281
   82CHL1  H26B 8543   5.756   3.373   8.162  0.2082  2.0268  0.1653
   82CHL1  H26C 8544   5.836   3.520   8.108 -1.3482  0.4114 -0.2963
   82CHL1   C27 8545   5.881   3.484   7.851  0.3104 -0.8915 -0.9537
   82CHL1  H27A 8546   5.913   3.438   7.754  1.6242 -0.4898 -0.7376
   82CHL1  H27B 8547   5.791   3.543   7.825 -0.8286 -0.7602  2.7820
   82CHL1  H27C 8548   5.950   3.560   7.892 -1.6358  1.2709 -1.5168
   83CHL1    C3 8549   1.867   5.610   7.119  0.7990 -0.3969  0.2451
   83CHL1    H3 8550   1.976   5.601   7.136  0.9456  2.4320  1.3650
   83CHL1    O3 8551   1.831   5.564   6.987  0.7299  0.1880  0.0650
   83CHL1   H3' 8552   1.799   5.637   6.933  0.8986 -1.2064 -2.0438
   83CHL1    C4 8553   1.787   5.526   7.212  0.1039 -0.1106  0.7329
   83CHL1   H4A 8554   1.679   5.547   7.195  0.3639  1.4062  0.7848
   83CHL1   H4B 8555   1.810   5.420   7.192  1.2577  0.2690 -0.0682
   83CHL1    C5 8556   1.831   5.553   7.355  0.6311  0.3261 -0.9583
   83CHL1    C6 8557   1.889   5.461   7.429  0.6994 -0.3867 -0.0414
   83CHL1    H6 8558   1.890   5.356   7.397  1.5788 -0.5398  0.4520
   83CHL1    C7 8559   1.913   5.481   7.580 -0.4545 -0.0990 -0.6733
   83CHL1   H7A 8560   1.890   5.388   7.636  1.6937 -0.6723 -0.6849
   83CHL1   H7B 8561   2.023   5.488   7.578 -0.3250 -1.6618 -0.3676
   83CHL1    C8 8562   1.845   5.611   7.634 -0.1993  0.3463  0.6063
   83CHL1    H8 8563   1.735   5.597   7.639 -0.5372  1.7236 -1.7048
   83CHL1   C14 8564   1.902   5.646   7.773 -0.1689 -0.1664  0.1436
   83CHL1   H14 8565   2.009   5.670   7.757 -0.6724  1.3485 -1.2827
   83CHL1   C15 8566   1.897   5.533   7.870  0.2908 -0.7700 -0.3026
   83CHL1  H15A 8567   1.797   5.486   7.882 -1.1347  2.1796  0.4657
   83CHL1  H15B 8568   1.967   5.452   7.842  1.6453  0.4647 -0.6420
   83CHL1   C16 8569   1.930   5.605   8.005  0.6513 -0.3020 -0.0865
   83CHL1  H16A 8570   1.853   5.569   8.077 -0.0875 -1.2705 -1.3362
   83CHL1  H16B 8571   2.030   5.574   8.040  0.5343 -0.7592 -0.1569
   83CHL1   C17 8572   1.920   5.756   7.982  0.1592 -0.1472 -0.4076
   83CHL1   H17 8573   2.020   5.800   7.962 -0.1587  0.3022 -1.0472
   83CHL1   C13 8574   1.840   5.768   7.844  0.5299 -0.3257 -0.0654
   83CHL1   C18 8575   1.689   5.744   7.871 -0.4129  0.2063  0.0531
   83CHL1  H18A 8576   1.646   5.707   7.775 -0.9805 -0.6478  0.6293
   83CHL1  H18B 8577   1.677   5.677   7.958  1.1604 -0.2255 -0.0398
   83CHL1  H18C 8578   1.645   5.844   7.894  2.0211  1.5715 -0.8857
   83CHL1   C12 8579   1.857   5.891   7.751  0.8167  0.1440  0.7288
   83CHL1  H12A 8580   1.789   5.966   7.797  1.1366  0.4052  0.7796
   83CHL1  H12B 8581   1.960   5.932   7.742  0.5878  0.6328  0.2971
   83CHL1   C11 8582   1.803   5.867   7.607  0.3340 -0.2968 -0.5365
   83CHL1  H11A 8583   1.694   5.853   7.614  0.5458 -1.1426  3.9337
   83CHL1  H11B 8584   1.821   5.957   7.544 -0.4947  0.7388  0.6653
   83CHL1    C9 8585   1.864   5.734   7.541 -0.0281  0.0697  0.4966
   83CHL1    H9 8586   1.973   5.753   7.542 -0.1683  1.0325  2.5685
   83CHL1   C10 8587   1.804   5.699   7.401 -0.2109 -1.1701 -0.0861
   83CHL1   C19 8588   1.650   5.701   7.410 -0.7275  0.4858  0.6273
   83CHL1  H19A 8589   1.612   5.621   7.476  1.6167  1.2546  3.0658
   83CHL1  H19B 8590   1.592   5.783   7.459 -2.9353 -1.5978  1.6985
   83CHL1  H19C 8591   1.601   5.704   7.310  0.4112  0.1834  0.0524
   83CHL1    C1 8592   1.860   5.799   7.287  0.1337  0.5025  0.1111
   83CHL1   H1A 8593   1.830   5.904   7.307  1.6946  0.7687  1.2912
   83CHL1   H1B 8594   1.970   5.814   7.294  0.1008  0.7899  0.0252
   83CHL1    C2 8595   1.824   5.758   7.138 -0.1071 -0.2813  1.0486
   83CHL1   H2A 8596   1.867   5.821   7.056 -1.0126 -0.7295  0.2069
   83CHL1   H2B 8597   1.715   5.768   7.122 -0.0610 -0.7418  0.3585
   83CHL1   C20 8598   1.868   5.833   8.113 -0.1480  0.0345 -0.6192
   83CHL1   H20 8599   1.776   5.776   8.139  0.4609 -0.6594  0.0764
   83CHL1   C21 8600   1.838   5.977   8.084  0.4402 -0.5954  0.7226
   83CHL1  H21A 8601   1.806   6.031   8.175 -1.2862 -0.3172 -0.0130
   83CHL1  H21B 8602   1.751   5.984   8.015  0.4610  0.1449  0.7739
   83CHL1  H21C 8603   1.919   6.030   8.030 -0.7910  0.5071 -0.0967
   83CHL1   C22 8604   1.969   5.824   8.237  0.3311 -0.1413 -0.2889
   83CHL1  H22A 8605   1.989   5.715   8.245 -0.8701 -0.3080  0.6012
   83CHL1  H22B 8606   2.054   5.881   8.191 -0.0302  0.5476 -0.1147
   83CHL1   C23 8607   1.912   5.871   8.372  0.3546  0.4669 -0.1379
   83CHL1  H23A 8608   1.859   5.968   8.360  0.8470  1.0135  1.6421
   83CHL1  H23B 8609   1.827   5.809   8.408 -0.9826  1.0469 -2.1213
   83CHL1   C24 8610   2.022   5.896   8.482 -0.4051 -0.0381  0.2649
   83CHL1  H24A 8611   2.099   5.970   8.451  0.2453 -0.4247  0.9180
   83CHL1  H24B 8612   1.969   5.947   8.565 -0.4818  1.2387 -0.5379
   83CHL1   C25 8613   2.098   5.768   8.547 -0.0755 -0.2000 -0.4205
   83CHL1   H25 8614   2.171   5.737   8.470 -1.3517  0.0485 -1.7636
   83CHL1   C26 8615   2.174   5.804   8.672  0.0340 -0.4517 -0.2965
   83CHL1  H26A 8616   2.245   5.725   8.703  0.5761  0.3542  0.5885
   83CHL1  H26B 8617   2.232   5.898   8.661 -0.4155 -0.1566 -0.1759
   83CHL1  H26C 8618   2.104   5.825   8.755  0.9327  1.6962 -0.0063
   83CHL1   C27 8619   2.006   5.651   8.577 -0.5949  0.0936 -0.5051
   83CHL1  H27A 8620   1.954   5.610   8.488  0.1915  1.0058 -1.3962
   83CHL1  H27B 8621   2.069   5.572   8.624  0.3276  0.8920 -0.3763
   83CHL1  H27C 8622   1.931   5.683   8.653 -1.1911 -2.7083  0.2051
   84CHL1    C3 8623   5.374   1.421   6.796 -0.2169 -0.7508  0.1732
   84CHL1    H3 8624   5.476   1.465   6.796 -0.4955 -0.0734 -0.6514
   84CHL1    O3 8625   5.329   1.424   6.660 -0.1575  0.6440 -0.3277
   84CHL1   H3' 8626   5.253   1.366   6.653  1.0442 -1.1126  0.4585
   84CHL1    C4 8627   5.385   1.277   6.842 -0.2899  0.0497  0.0149
   84CHL1   H4A 8628   5.288   1.227   6.825 -1.3022  1.5140  1.2148
   84CHL1   H4B 8629   5.456   1.220   6.779  1.2271  1.6329  0.2031
   84CHL1    C5 8630   5.435   1.271   6.990 -0.4933 -0.0507 -0.0638
   84CHL1    C6 8631   5.550   1.217   7.030 -0.9716 -0.2434 -0.3333
   84CHL1    H6 8632   5.618   1.152   6.972 -0.1781 -2.6019  2.9445
   84CHL1    C7 8633   5.600   1.220   7.177  0.0322 -0.6926  0.1909
   84CHL1   H7A 8634   5.629   1.115   7.199 -1.5607 -1.3606 -0.6871
   84CHL1   H7B 8635   5.682   1.293   7.193 -1.2344  0.5001  1.4995
   84CHL1    C8 8636   5.492   1.271   7.274 -0.3810  0.3569 -0.8436
   84CHL1    H8 8637   5.431   1.182   7.299  0.7231 -0.3597 -0.6231
   84CHL1   C14 8638   5.560   1.300   7.405 -0.8550 -0.4261 -0.0798
   84CHL1   H14 8639   5.626   1.386   7.382 -1.6093  0.4135  0.8429
   84CHL1   C15 8640   5.645   1.189   7.466  0.5073  0.3000  0.1402
   84CHL1  H15A 8641   5.592   1.092   7.468 -3.0273  2.0531  0.4671
   84CHL1  H15B 8642   5.739   1.182   7.406 -0.3727 -4.9092 -1.0728
   84CHL1   C16 8643   5.666   1.226   7.611  0.2948  0.6740 -0.6641
   84CHL1  H16A 8644   5.638   1.142   7.678  1.0429  1.1716  0.3043
   84CHL1  H16B 8645   5.769   1.257   7.639  0.2088 -0.7226  1.3886
   84CHL1   C17 8646   5.563   1.344   7.640  0.4997 -0.7280 -0.3627
   84CHL1   H17 8647   5.623   1.438   7.635  1.9547 -1.5201  1.3759
   84CHL1   C13 8648   5.470   1.345   7.515  0.6427 -0.3981  0.0945
   84CHL1   C18 8649   5.356   1.238   7.548 -0.1448  0.0921  0.5517
   84CHL1  H18A 8650   5.395   1.139   7.576  0.1911  0.1351  0.2521
   84CHL1  H18B 8651   5.295   1.287   7.627  1.2295  2.7997  0.0747
   84CHL1  H18C 8652   5.286   1.224   7.462  0.0713  3.5170 -0.3349
   84CHL1   C12 8653   5.418   1.479   7.469 -0.4545 -0.0556 -0.4759
   84CHL1  H12A 8654   5.336   1.516   7.535  0.0051  0.5526 -0.2332
   84CHL1  H12B 8655   5.494   1.560   7.471  0.4202 -0.8723  0.9370
   84CHL1   C11 8656   5.349   1.472   7.330  0.2376 -0.5033 -0.5873
   84CHL1  H11A 8657   5.255   1.419   7.354  1.2602 -1.2389  2.0879
   84CHL1  H11B 8658   5.331   1.580   7.306  2.7227 -0.0028 -0.4396
   84CHL1    C9 8659   5.423   1.392   7.224  0.1236 -0.3269 -0.4061
   84CHL1    H9 8660   5.502   1.464   7.194  0.9951 -0.8597  0.5752
   84CHL1   C10 8661   5.353   1.365   7.085 -0.9458  0.1334  0.2414
   84CHL1   C19 8662   5.224   1.295   7.129 -0.3791  0.1551  0.5546
   84CHL1  H19A 8663   5.156   1.373   7.170 -0.2314  0.0002  1.0958
   84CHL1  H19B 8664   5.182   1.255   7.034 -0.5114  1.9351 -0.1795
   84CHL1  H19C 8665   5.242   1.210   7.198 -0.0536 -0.0193  0.2648
   84CHL1    C1 8666   5.316   1.502   7.023  0.2413 -0.3765  0.5234
   84CHL1   H1A 8667   5.240   1.562   7.078  0.2471  1.4414 -1.3166
   84CHL1   H1B 8668   5.407   1.566   7.022  0.8230 -1.1401 -1.7813
   84CHL1    C2 8669   5.270   1.496   6.872 -0.4566  0.2286 -0.5676
   84CHL1   H2A 8670   5.249   1.600   6.841 -1.6952  0.1137 -0.1455
   84CHL1   H2B 8671   5.171   1.446   6.862 -0.6355  0.7516 -1.4876
   84CHL1   C20 8672   5.512   1.344   7.784 -0.5471  0.0900  0.0325
   84CHL1   H20 8673   5.460   1.247   7.796  0.7602 -0.6433 -0.0966
   84CHL1   C21 8674   5.424   1.461   7.804 -0.0206  0.1905  0.4708
   84CHL1  H21A 8675   5.328   1.454   7.747  1.4607 -2.2686 -1.9528
   84CHL1  H21B 8676   5.472   1.559   7.781  2.5063 -0.3091  3.1061
   84CHL1  H21C 8677   5.390   1.460   7.910 -0.0908  3.4041  0.5963
   84CHL1   C22 8678   5.630   1.362   7.881  0.9582 -0.3309 -0.1652
   84CHL1  H22A 8679   5.724   1.307   7.856  0.9199 -1.4198  1.8857
   84CHL1  H22B 8680   5.651   1.471   7.883 -1.0348  0.1752 -2.2385
   84CHL1   C23 8681   5.596   1.327   8.023 -0.1873 -0.1214 -0.1067
   84CHL1  H23A 8682   5.512   1.388   8.062 -0.1455 -0.7079  0.9432
   84CHL1  H23B 8683   5.565   1.220   8.022  0.8839 -0.4565  0.7459
   84CHL1   C24 8684   5.711   1.348   8.127  0.6007 -0.8382 -0.0629
   84CHL1  H24A 8685   5.799   1.292   8.089  0.8470  1.0426 -2.4974
   84CHL1  H24B 8686   5.739   1.456   8.128 -0.4608 -0.4699 -2.5438
   84CHL1   C25 8687   5.665   1.310   8.272 -0.5922  0.4440 -0.2310
   84CHL1   H25 8688   5.579   1.380   8.286 -1.0276  0.0663 -0.9766
   84CHL1   C26 8689   5.614   1.171   8.307 -0.5000  0.0640 -0.4522
   84CHL1  H26A 8690   5.627   1.108   8.216 -0.3458 -0.8427  0.1904
   84CHL1  H26B 8691   5.662   1.112   8.388  0.5856  2.0441  0.4287
   84CHL1  H26C 8692   5.510   1.180   8.345  0.7555 -1.6327  3.9796
   84CHL1   C27 8693   5.768   1.353   8.376 -0.1528  0.0553  0.1222
   84CHL1  H27A 8694   5.736   1.330   8.480  0.1764  1.0371  0.4556
   84CHL1  H27B 8695   5.872   1.313   8.370  0.4775  1.6762 -0.5108
   84CHL1  H27C 8696   5.793   1.462   8.379  0.4143 -0.0715  0.1062
   85CHL1    C3 8697   5.483   0.771   6.972  0.5531 -0.0969 -0.7473
   85CHL1    H3 8698   5.584   0.816   6.967  0.9905 -1.0063 -0.3091
   85CHL1    O3 8699   5.429   0.771   6.839 -0.0942  0.0623  0.1336
   85CHL1   H3' 8700   5.465   0.845   6.789  2.8894 -0.7124  0.8974
   85CHL1    C4 8701   5.495   0.639   7.032  0.6747  0.6586  0.1163
   85CHL1   H4A 8702   5.407   0.576   7.010 -0.1092  1.7396  0.0367
   85CHL1   H4B 8703   5.580   0.594   6.977  0.3326  0.6106 -0.3714
   85CHL1    C5 8704   5.526   0.626   7.182 -0.1247 -0.0910 -0.1834
   85CHL1    C6 8705   5.622   0.549   7.245 -0.1286  0.2741  0.1539
   85CHL1    H6 8706   5.686   0.487   7.181  1.2254  0.3631  1.3715
   85CHL1    C7 8707   5.642   0.538   7.394  0.0426 -0.1888 -0.7360
   85CHL1   H7A 8708   5.643   0.431   7.423  2.6082 -0.0696 -0.1641
   85CHL1   H7B 8709   5.741   0.578   7.424  0.9741 -2.3017 -0.8063
   85CHL1    C8 8710   5.527   0.611   7.475 -0.7043  0.3543 -0.1213
   85CHL1    H8 8711   5.435   0.549   7.482 -0.6315  0.3384  0.7044
   85CHL1   C14 8712   5.571   0.632   7.616 -0.5636  0.0136  0.0417
   85CHL1   H14 8713   5.656   0.704   7.607 -0.7705  0.0416 -2.1512
   85CHL1   C15 8714   5.626   0.501   7.689 -0.2520 -0.2902 -0.5383
   85CHL1  H15A 8715   5.551   0.418   7.684 -0.9243  0.2404  0.3669
   85CHL1  H15B 8716   5.713   0.455   7.639  0.9196  1.0793  0.1835
   85CHL1   C16 8717   5.628   0.539   7.841 -0.3677  0.5883  0.3396
   85CHL1  H16A 8718   5.583   0.467   7.912  0.4700  1.1295  1.4435
   85CHL1  H16B 8719   5.735   0.536   7.868 -0.4955  1.7475  1.0490
   85CHL1   C17 8720   5.564   0.685   7.847  0.2510  0.1087  0.2348
   85CHL1   H17 8721   5.648   0.757   7.839  0.0328  0.5826  1.8859
   85CHL1   C13 8722   5.481   0.698   7.716  0.6824 -0.4461  0.4584
   85CHL1   C18 8723   5.355   0.611   7.740  0.5616  0.1476  0.1880
   85CHL1  H18A 8724   5.288   0.661   7.813  1.3856  0.4365  0.7688
   85CHL1  H18B 8725   5.298   0.606   7.644 -1.3072  0.2320  1.2511
   85CHL1  H18C 8726   5.373   0.512   7.786 -4.2208 -0.3947  1.3932
   85CHL1   C12 8727   5.451   0.842   7.650 -0.2884 -0.3074 -0.6914
   85CHL1  H12A 8728   5.390   0.914   7.707  0.3948  2.2015 -2.9148
   85CHL1  H12B 8729   5.550   0.890   7.637 -0.4040 -0.0798 -0.7365
   85CHL1   C11 8730   5.391   0.831   7.509 -0.5196 -0.1759  0.5324
   85CHL1  H11A 8731   5.285   0.798   7.509 -0.2019 -1.3698 -1.6999
   85CHL1  H11B 8732   5.399   0.933   7.465  1.5714 -0.9522 -1.0923
   85CHL1    C9 8733   5.485   0.739   7.414 -0.3058  0.0173 -0.3838
   85CHL1    H9 8734   5.585   0.788   7.405  0.1350 -0.7345  0.2911
   85CHL1   C10 8735   5.436   0.726   7.262 -0.3362  0.5821 -0.2087
   85CHL1   C19 8736   5.301   0.654   7.264 -0.4750  0.5098 -0.3811
   85CHL1  H19A 8737   5.260   0.648   7.161 -2.0651  1.3937  0.1630
   85CHL1  H19B 8738   5.315   0.549   7.295  0.8365 -0.0546 -2.6745
   85CHL1  H19C 8739   5.227   0.711   7.325 -0.8197 -0.7439  0.4207
   85CHL1    C1 8740   5.428   0.866   7.199 -0.0784 -0.2711 -0.1258
   85CHL1   H1A 8741   5.355   0.923   7.261  0.5075  0.9723 -0.5344
   85CHL1   H1B 8742   5.529   0.910   7.218 -0.1024 -1.1268  2.4091
   85CHL1    C2 8743   5.391   0.864   7.052  0.2353 -0.1101  0.0753
   85CHL1   H2A 8744   5.396   0.968   7.015 -1.9913 -0.0277 -0.1180
   85CHL1   H2B 8745   5.284   0.839   7.036  0.3474 -0.3931 -0.2581
   85CHL1   C20 8746   5.509   0.717   7.986 -0.4010 -0.8580  0.3347
   85CHL1   H20 8747   5.432   0.642   8.015 -2.1233  0.1469 -1.4064
   85CHL1   C21 8748   5.451   0.867   7.977 -0.0805  0.0364  0.3155
   85CHL1  H21A 8749   5.495   0.935   7.902 -0.0857  1.5088  1.5931
   85CHL1  H21B 8750   5.459   0.927   8.071  1.1741 -2.9027  2.2533
   85CHL1  H21C 8751   5.347   0.855   7.941  0.0299 -1.9866  0.5066
   85CHL1   C22 8752   5.605   0.714   8.101  0.2748  0.0173 -0.6246
   85CHL1  H22A 8753   5.640   0.609   8.107 -0.3858 -0.1886 -0.3581
   85CHL1  H22B 8754   5.696   0.778   8.102 -0.1608  0.6399 -0.0497
   85CHL1   C23 8755   5.529   0.733   8.236  0.3530  0.3545  1.0359
   85CHL1  H23A 8756   5.483   0.833   8.252 -0.6700 -0.0359  0.6060
   85CHL1  H23B 8757   5.445   0.661   8.222  1.4721 -0.9262  0.6913
   85CHL1   C24 8758   5.615   0.681   8.360  0.0008 -0.2391  0.8007
   85CHL1  H24A 8759   5.614   0.574   8.333 -0.1881  0.4290 -2.1464
   85CHL1  H24B 8760   5.718   0.724   8.364 -0.0559  0.1049 -0.7215
   85CHL1   C25 8761   5.543   0.693   8.498  0.1146  0.0366  0.6705
   85CHL1   H25 8762   5.547   0.801   8.521  0.0930  0.0602  0.5621
   85CHL1   C26 8763   5.399   0.649   8.499  0.2220 -0.2445  0.7583
   85CHL1  H26A 8764   5.339   0.707   8.425  0.7042 -0.3926  0.2411
   85CHL1  H26B 8765   5.388   0.544   8.465  0.9334  0.5410 -2.2221
   85CHL1  H26C 8766   5.356   0.661   8.600  1.4045  2.1253  1.0377
   85CHL1   C27 8767   5.622   0.626   8.616 -0.0346 -0.2930 -0.4459
   85CHL1  H27A 8768   5.638   0.517   8.603 -1.7070 -0.3637 -2.5175
   85CHL1  H27B 8769   5.716   0.682   8.636  0.0233  0.0991 -1.7366
   85CHL1  H27C 8770   5.560   0.643   8.707 -0.1759  1.9553 -0.9012
   86CHL1    C3 8771   1.695   0.812   7.042 -0.7276  0.7064 -0.1302
   86CHL1    H3 8772   1.800   0.816   7.078 -0.8557  0.1861  0.3242
   86CHL1    O3 8773   1.694   0.838   6.903  0.2897 -0.1027  0.3610
   86CHL1   H3' 8774   1.618   0.891   6.877  0.3446  0.0435  0.5006
   86CHL1    C4 8775   1.636   0.673   7.069 -0.6992 -0.5252 -0.2761
   86CHL1   H4A 8776   1.532   0.669   7.030 -0.9375  2.4037 -0.1242
   86CHL1   H4B 8777   1.693   0.604   7.003  0.7865 -1.8209  2.2086
   86CHL1    C5 8778   1.654   0.635   7.217  0.1965  0.6880 -0.6036
   86CHL1    C6 8779   1.729   0.529   7.262  0.0501 -0.4106 -0.4422
   86CHL1    H6 8780   1.775   0.455   7.195  1.9696 -1.0394  1.4605
   86CHL1    C7 8781   1.743   0.491   7.406 -0.1051  0.0686 -0.7776
   86CHL1   H7A 8782   1.707   0.386   7.416  0.4227 -0.0360  0.0869
   86CHL1   H7B 8783   1.848   0.490   7.442  0.7488 -2.4073 -2.9330
   86CHL1    C8 8784   1.640   0.562   7.502  0.1995 -0.0202 -0.3363
   86CHL1    H8 8785   1.535   0.531   7.479  0.0391  1.5153 -1.8649
   86CHL1   C14 8786   1.677   0.555   7.648 -0.0589  0.5518  0.2230
   86CHL1   H14 8787   1.782   0.592   7.650 -0.3755  1.4729  2.0459
   86CHL1   C15 8788   1.698   0.411   7.703 -0.3070 -0.5089  0.5665
   86CHL1  H15A 8789   1.617   0.335   7.693 -0.5180 -0.1394 -0.6901
   86CHL1  H15B 8790   1.788   0.360   7.663  0.2074  0.2436  0.7659
   86CHL1   C16 8791   1.711   0.441   7.855  0.4533  0.4800  0.0177
   86CHL1  H16A 8792   1.634   0.372   7.897  0.3657 -1.5236 -3.0894
   86CHL1  H16B 8793   1.808   0.433   7.908 -0.3583 -1.0679  1.3617
   86CHL1   C17 8794   1.672   0.591   7.875  0.4303  0.2624 -0.0475
   86CHL1   H17 8795   1.762   0.655   7.862 -1.5771  3.1011 -1.0727
   86CHL1   C13 8796   1.591   0.626   7.744  0.2852  0.0875  0.0272
   86CHL1   C18 8797   1.447   0.568   7.756 -0.1768  0.1912 -0.1550
   86CHL1  H18A 8798   1.447   0.469   7.806  2.6554 -0.2829 -0.9422
   86CHL1  H18B 8799   1.386   0.635   7.821  2.1252  2.4441 -0.1444
   86CHL1  H18C 8800   1.396   0.566   7.657 -0.8622 -0.1199  0.1956
   86CHL1   C12 8801   1.591   0.776   7.704  0.2016  0.6116  0.2759
   86CHL1  H12A 8802   1.519   0.831   7.768  0.1941  1.5199 -0.4834
   86CHL1  H12B 8803   1.689   0.828   7.710  0.8007 -0.0013 -2.6978
   86CHL1   C11 8804   1.541   0.791   7.563  0.4923  0.2705 -0.4166
   86CHL1  H11A 8805   1.439   0.749   7.567  1.2309 -1.5154  2.4990
   86CHL1  H11B 8806   1.529   0.895   7.526 -1.2811  1.0877  2.1853
   86CHL1    C9 8807   1.629   0.713   7.463 -0.6641  0.4400  0.2095
   86CHL1    H9 8808   1.734   0.743   7.480 -0.3709  0.5378 -1.6027
   86CHL1   C10 8809   1.590   0.743   7.314 -0.4433  0.4514 -0.7209
   86CHL1   C19 8810   1.436   0.727   7.298  0.8027  0.1957 -0.4525
   86CHL1  H19A 8811   1.399   0.626   7.326  0.6465  0.0412 -1.1970
   86CHL1  H19B 8812   1.385   0.801   7.364  1.3075  0.4179 -0.3131
   86CHL1  H19C 8813   1.395   0.745   7.197  1.5238  1.4824 -0.5224
   86CHL1    C1 8814   1.636   0.888   7.270  0.2455 -0.0715 -0.2918
   86CHL1   H1A 8815   1.590   0.962   7.339  0.3439  2.1673 -2.4926
   86CHL1   H1B 8816   1.743   0.897   7.299  0.7902 -1.6764 -1.5993
   86CHL1    C2 8817   1.620   0.919   7.119 -0.7207 -0.2418  0.1472
   86CHL1   H2A 8818   1.651   1.025   7.103 -1.7239  0.3865  1.9815
   86CHL1   H2B 8819   1.513   0.910   7.088 -1.1767 -0.3309  1.6596
   86CHL1   C20 8820   1.600   0.635   8.003  0.2046 -0.3458 -0.2860
   86CHL1   H20 8821   1.492   0.647   7.982 -0.1526 -1.7783  0.5432
   86CHL1   C21 8822   1.637   0.782   8.050  0.3879  0.3487  0.5776
   86CHL1  H21A 8823   1.579   0.822   8.135 -0.1961  0.3640  0.1739
   86CHL1  H21B 8824   1.629   0.850   7.963 -0.5713  0.2665  0.5933
   86CHL1  H21C 8825   1.746   0.781   8.074  1.0571 -1.8662 -2.1052
   86CHL1   C22 8826   1.617   0.538   8.121 -0.0455 -0.6457 -0.6407
   86CHL1  H22A 8827   1.580   0.438   8.090 -1.7148 -0.5964  1.0318
   86CHL1  H22B 8828   1.725   0.535   8.149  0.4049 -0.9946 -2.3127
   86CHL1   C23 8829   1.540   0.572   8.249  1.1483 -0.5197 -0.9521
   86CHL1  H23A 8830   1.579   0.666   8.294  2.5963 -1.3279 -0.4708
   86CHL1  H23B 8831   1.433   0.570   8.218 -0.1681 -0.4932  3.0196
   86CHL1   C24 8832   1.551   0.467   8.353 -0.1046 -0.5471 -0.2214
   86CHL1  H24A 8833   1.549   0.365   8.308 -0.7948 -0.8209  0.4034
   86CHL1  H24B 8834   1.639   0.464   8.421 -0.3391 -1.4306  0.0658
   86CHL1   C25 8835   1.432   0.467   8.456 -0.3453  0.1212 -0.5027
   86CHL1   H25 8836   1.327   0.457   8.420 -0.1814 -0.6407 -0.7793
   86CHL1   C26 8837   1.436   0.333   8.539  0.3623 -0.4606  0.3706
   86CHL1  H26A 8838   1.540   0.298   8.561 -0.1147 -0.8679  2.1172
   86CHL1  H26B 8839   1.382   0.344   8.636 -0.2268 -0.0541 -0.0013
   86CHL1  H26C 8840   1.398   0.243   8.488 -0.9448  0.7109 -0.7957
   86CHL1   C27 8841   1.427   0.585   8.545 -0.4439  0.2042  0.8215
   86CHL1  H27A 8842   1.337   0.590   8.610 -1.2066  1.6101 -0.2668
   86CHL1  H27B 8843   1.515   0.591   8.612 -0.5730 -0.2816  1.0387
   86CHL1  H27C 8844   1.422   0.679   8.486  0.3005 -0.7466 -0.8389
   87CHL1    C3 8845   1.287   0.190   7.035  0.1101 -0.4728 -0.0772
   87CHL1    H3 8846   1.379   0.142   7.075 -1.4246 -1.2075  2.9380
   87CHL1    O3 8847   1.296   0.195   6.887 -0.2657 -0.4800  0.1833
   87CHL1   H3' 8848   1.321   0.287   6.872 -0.0016 -0.5082  0.4313
   87CHL1    C4 8849   1.160   0.124   7.075  0.0217 -0.4808 -0.1105
   87CHL1   H4A 8850   1.084   0.185   7.020 -0.7345  0.2280  1.6513
   87CHL1   H4B 8851   1.156   0.017   7.045 -0.0466 -1.1015  1.9725
   87CHL1    C5 8852   1.137   0.126   7.223 -0.5713  0.6415  0.1535
   87CHL1    C6 8853   1.108   0.008   7.287  0.2638  0.2185 -0.4353
   87CHL1    H6 8854   1.086  -0.077   7.220  0.7925  1.3901 -2.1696
   87CHL1    C7 8855   1.080  -0.012   7.434  0.0145 -0.4061  0.2108
   87CHL1   H7A 8856   0.981  -0.058   7.458  0.0512 -0.6794 -0.1633
   87CHL1   H7B 8857   1.161  -0.077   7.474  0.9136 -0.1883 -1.2071
   87CHL1    C8 8858   1.084   0.122   7.510  0.1363  0.6194 -0.0483
   87CHL1    H8 8859   0.981   0.164   7.502 -1.1189 -1.8207  1.7297
   87CHL1   C14 8860   1.115   0.099   7.663 -0.7953 -0.4000 -0.5484
   87CHL1   H14 8861   1.216   0.053   7.661 -0.5080  0.1887  0.0036
   87CHL1   C15 8862   1.027   0.003   7.748 -0.6959  0.0228  0.6344
   87CHL1  H15A 8863   0.919   0.028   7.739 -0.4949  0.5979 -0.3828
   87CHL1  H15B 8864   1.049  -0.101   7.713 -2.5978  0.3642 -1.8643
   87CHL1   C16 8865   1.077   0.038   7.888 -0.4247 -0.3624  0.3618
   87CHL1  H16A 8866   0.983   0.050   7.946 -0.8805 -0.2228 -0.3946
   87CHL1  H16B 8867   1.137  -0.050   7.920 -0.2911 -0.6693 -0.7033
   87CHL1   C17 8868   1.171   0.158   7.888  0.0609  0.0645  0.7529
   87CHL1   H17 8869   1.275   0.129   7.862 -0.2930 -1.1108  0.5659
   87CHL1   C13 8870   1.130   0.224   7.756  0.1516 -0.3935  0.6572
   87CHL1   C18 8871   0.988   0.284   7.764  0.4582  0.2328 -0.1725
   87CHL1  H18A 8872   0.989   0.395   7.773 -1.3537  0.3015 -0.3317
   87CHL1  H18B 8873   0.939   0.263   7.667  2.2753  0.2751 -1.1254
   87CHL1  H18C 8874   0.919   0.248   7.844  1.3812  1.5299  1.2713
   87CHL1   C12 8875   1.226   0.327   7.690 -0.1057  0.5521 -0.1969
   87CHL1  H12A 8876   1.203   0.418   7.750 -0.8035 -0.4695  1.1490
   87CHL1  H12B 8877   1.332   0.294   7.701  0.2781  1.5156 -0.9065
   87CHL1   C11 8878   1.185   0.346   7.543  0.0849 -0.1422 -0.5788
   87CHL1  H11A 8879   1.079   0.377   7.547  0.4696  1.3198 -0.9826
   87CHL1  H11B 8880   1.246   0.427   7.497 -0.9773 -0.0710 -1.9079
   87CHL1    C9 8881   1.185   0.223   7.451  0.3321  1.0050  0.6261
   87CHL1    H9 8882   1.289   0.185   7.457 -0.6338 -1.9820  0.3156
   87CHL1   C10 8883   1.169   0.255   7.297  0.6847 -0.7697  0.1878
   87CHL1   C19 8884   1.048   0.348   7.280 -0.1322 -0.2593 -0.7940
   87CHL1  H19A 8885   0.961   0.292   7.321  0.7050  1.0623  3.3063
   87CHL1  H19B 8886   1.053   0.444   7.336 -0.4617 -0.5598 -0.2444
   87CHL1  H19C 8887   1.040   0.369   7.171 -1.1043 -3.6669 -1.4778
   87CHL1    C1 8888   1.293   0.335   7.245 -0.4477  0.7842 -0.3982
   87CHL1   H1A 8889   1.285   0.441   7.277 -0.0500  0.2846  1.4524
   87CHL1   H1B 8890   1.386   0.293   7.288 -1.0744 -0.3593 -0.1254
   87CHL1    C2 8891   1.298   0.329   7.089 -0.3668 -0.3693  0.3239
   87CHL1   H2A 8892   1.397   0.368   7.058  0.7882 -1.4029  2.4472
   87CHL1   H2B 8893   1.230   0.404   7.044 -0.6791 -1.2962 -0.8171
   87CHL1   C20 8894   1.184   0.233   8.017  0.2854  0.5924 -0.5522
   87CHL1   H20 8895   1.090   0.282   8.049 -1.5523 -1.8853 -1.8890
   87CHL1   C21 8896   1.294   0.339   8.021 -0.3894 -0.2256 -0.5163
   87CHL1  H21A 8897   1.282   0.429   7.958 -1.4948  0.1297  0.1700
   87CHL1  H21B 8898   1.389   0.296   7.982 -0.6366 -0.5148 -0.8133
   87CHL1  H21C 8899   1.317   0.379   8.122 -0.4487  2.0072 -1.3401
   87CHL1   C22 8900   1.200   0.128   8.139 -0.5420 -0.0036 -0.5031
   87CHL1  H22A 8901   1.156   0.032   8.105  1.5640 -1.3214  0.2807
   87CHL1  H22B 8902   1.304   0.107   8.172 -0.9554 -0.3023  0.6811
   87CHL1   C23 8903   1.124   0.173   8.268  0.9483  0.6457  0.2868
   87CHL1  H23A 8904   1.181   0.254   8.319  2.0993 -1.4496  2.5536
   87CHL1  H23B 8905   1.023   0.216   8.254 -0.1194 -0.9333  2.5095
   87CHL1   C24 8906   1.104   0.062   8.374 -0.0369 -0.1187  0.2741
   87CHL1  H24A 8907   1.028  -0.005   8.328 -1.0767  2.1678 -1.5892
   87CHL1  H24B 8908   1.192   0.001   8.401  0.7339  0.8485  0.0199
   87CHL1   C25 8909   1.032   0.114   8.505  0.5881 -0.0854  0.3583
   87CHL1   H25 8910   0.938   0.162   8.470  0.7497  0.4568  0.6454
   87CHL1   C26 8911   0.997  -0.006   8.586  0.8465  0.2571 -1.3390
   87CHL1  H26A 8912   0.934   0.024   8.672 -0.2151  2.1230 -2.7069
   87CHL1  H26B 8913   0.933  -0.075   8.527  0.1410 -2.5063  2.3407
   87CHL1  H26C 8914   1.075  -0.082   8.611 -1.8682 -2.1820  0.3179
   87CHL1   C27 8915   1.106   0.222   8.575  0.4952 -0.2473  0.1055
   87CHL1  H27A 8916   1.051   0.253   8.667 -0.5515 -0.6183 -0.3822
   87CHL1  H27B 8917   1.208   0.190   8.607  0.3400 -0.5295  0.3193
   87CHL1  H27C 8918   1.123   0.307   8.506 -0.6609 -1.2796 -1.5015
   88CHL1    C3 8919   5.136   6.444   6.940 -0.0422 -0.8502 -0.4265
   88CHL1    H3 8920   5.245   6.422   6.945  0.0971  0.1068  1.2435
   88CHL1    O3 8921   5.100   6.438   6.800 -0.0917 -0.0319 -0.2241
   88CHL1   H3' 8922   5.005   6.436   6.788 -0.0268 -1.3012 -0.7166
   88CHL1    C4 8923   5.062   6.326   7.009 -0.2405  0.1476 -0.4197
   88CHL1   H4A 8924   4.951   6.326   7.000 -0.4186 -4.2367 -0.3988
   88CHL1   H4B 8925   5.092   6.232   6.957  1.9924  0.8856 -0.5561
   88CHL1    C5 8926   5.093   6.320   7.155 -0.4660  0.2008 -0.6575
   88CHL1    C6 8927   5.159   6.214   7.210  0.4326  0.6338  0.0181
   88CHL1    H6 8928   5.160   6.118   7.157 -4.2009 -0.3874  1.3220
   88CHL1    C7 8929   5.186   6.209   7.356  0.3117 -0.7991 -1.1086
   88CHL1   H7A 8930   5.151   6.113   7.400  2.5333 -0.5697  1.4187
   88CHL1   H7B 8931   5.296   6.218   7.371  0.2692 -2.8969  1.2934
   88CHL1    C8 8932   5.123   6.318   7.447  0.0509  0.0764  0.4760
   88CHL1    H8 8933   5.017   6.286   7.454 -0.3629  0.6426 -1.9952
   88CHL1   C14 8934   5.181   6.328   7.589  0.9776 -0.1224  1.0284
   88CHL1   H14 8935   5.288   6.358   7.582  1.6325 -1.7525  3.0689
   88CHL1   C15 8936   5.190   6.195   7.666 -0.2012 -0.1079 -0.4588
   88CHL1  H15A 8937   5.098   6.139   7.638  0.3428 -1.1633 -0.1793
   88CHL1  H15B 8938   5.274   6.130   7.636 -1.2427 -1.3063 -0.8827
   88CHL1   C16 8939   5.202   6.231   7.811 -0.8956 -0.3433 -0.5440
   88CHL1  H16A 8940   5.121   6.187   7.874 -1.0037  1.3491  0.5437
   88CHL1  H16B 8941   5.300   6.197   7.850 -1.1370 -0.8570 -0.3728
   88CHL1   C17 8942   5.178   6.386   7.812  0.6799  0.5133 -0.2845
   88CHL1   H17 8943   5.281   6.427   7.818  0.9709 -0.4137  1.8903
   88CHL1   C13 8944   5.109   6.430   7.678 -0.4305  0.0000 -0.7347
   88CHL1   C18 8945   4.954   6.408   7.703  0.3297 -0.1759 -0.0119
   88CHL1  H18A 8946   4.915   6.491   7.766  2.3401  1.4700 -0.8325
   88CHL1  H18B 8947   4.898   6.416   7.607  0.5170  1.4858 -0.0146
   88CHL1  H18C 8948   4.924   6.311   7.749 -1.6969  1.2783  1.9404
   88CHL1   C12 8949   5.137   6.563   7.611  0.0318  0.5126 -0.3460
   88CHL1  H12A 8950   5.089   6.637   7.678 -1.2478 -1.3152  0.8646
   88CHL1  H12B 8951   5.247   6.583   7.608  0.1068  0.0357 -2.5140
   88CHL1   C11 8952   5.084   6.574   7.467  0.3524  0.2800 -0.1891
   88CHL1  H11A 8953   4.973   6.570   7.468  0.3315  0.8076  0.7377
   88CHL1  H11B 8954   5.115   6.675   7.433 -0.1771  0.5396  0.0886
   88CHL1    C9 8955   5.131   6.458   7.379  0.0627 -0.0350 -0.3287
   88CHL1    H9 8956   5.237   6.486   7.361 -0.6216  3.1515  0.0176
   88CHL1   C10 8957   5.066   6.456   7.231 -0.1368 -0.2553 -0.6840
   88CHL1   C19 8958   4.912   6.464   7.239  0.3849 -0.2124 -0.8305
   88CHL1  H19A 8959   4.867   6.459   7.137 -0.9475  0.9370 -0.3384
   88CHL1  H19B 8960   4.861   6.382   7.294  3.3938 -1.8727 -0.2992
   88CHL1  H19C 8961   4.881   6.563   7.278  2.1219 -0.4500  1.3215
   88CHL1    C1 8962   5.120   6.577   7.147  0.0668  0.0789  0.5745
   88CHL1   H1A 8963   5.077   6.671   7.186  0.3020 -0.2052  1.5537
   88CHL1   H1B 8964   5.230   6.589   7.159  0.1195  0.1190  0.0546
   88CHL1    C2 8965   5.087   6.581   7.000  0.1523 -0.0883 -0.6701
   88CHL1   H2A 8966   5.139   6.664   6.948  0.8477 -0.8327 -1.1787
   88CHL1   H2B 8967   4.978   6.590   6.978 -0.2784  0.5447  1.4807
   88CHL1   C20 8968   5.108   6.429   7.943  0.5069  0.2223 -0.5379
   88CHL1   H20 8969   5.002   6.396   7.952  0.9638 -0.8094  2.5738
   88CHL1   C21 8970   5.110   6.581   7.951 -0.1494 -0.4949 -0.1050
   88CHL1  H21A 8971   5.051   6.628   7.869 -0.1383 -1.3958 -0.6407
   88CHL1  H21B 8972   5.217   6.611   7.947  0.4050 -2.3582 -0.4477
   88CHL1  H21C 8973   5.058   6.627   8.038 -1.2954  2.0358 -1.9783
   88CHL1   C22 8974   5.182   6.369   8.071  0.0312 -0.1466 -0.4499
   88CHL1  H22A 8975   5.180   6.259   8.086  0.9478 -0.0158  0.7583
   88CHL1  H22B 8976   5.288   6.399   8.063  0.4762 -0.4124  3.0291
   88CHL1   C23 8977   5.127   6.410   8.201 -0.2798  0.1040  0.3703
   88CHL1  H23A 8978   5.137   6.520   8.202  1.8183 -0.0313 -0.3669
   88CHL1  H23B 8979   5.019   6.385   8.194 -0.2889 -0.4361  1.9312
   88CHL1   C24 8980   5.205   6.347   8.322  0.0170 -0.6426 -0.0123
   88CHL1  H24A 8981   5.162   6.245   8.317 -1.9648  0.1356  0.1004
   88CHL1  H24B 8982   5.314   6.343   8.300  0.5657  4.4474  0.6510
   88CHL1   C25 8983   5.177   6.410   8.467 -0.2380  1.2018 -0.3749
   88CHL1   H25 8984   5.067   6.404   8.476 -0.2704 -3.2432 -1.6195
   88CHL1   C26 8985   5.233   6.331   8.582  0.7828 -0.1678 -0.5318
   88CHL1  H26A 8986   5.201   6.225   8.576 -0.6965  0.3180 -2.1785
   88CHL1  H26B 8987   5.344   6.342   8.583  0.6066  2.2713  0.6491
   88CHL1  H26C 8988   5.190   6.370   8.676  2.7212  2.5046 -0.6390
   88CHL1   C27 8989   5.222   6.556   8.473  0.3796 -0.1577 -0.0020
   88CHL1  H27A 8990   5.323   6.585   8.437  0.7877 -0.6223  0.7378
   88CHL1  H27B 8991   5.145   6.606   8.410 -0.0309 -1.3204 -0.4420
   88CHL1  H27C 8992   5.199   6.595   8.575 -0.2593  0.7891 -0.4984
   89CHL1    C3 8993   2.121   0.560   6.948  0.1669  1.0844 -0.2651
   89CHL1    H3 8994   2.010   0.550   6.942  0.3038  0.1819 -4.1814
   89CHL1    O3 8995   2.155   0.555   6.815  0.2496  0.0143 -0.0937
   89CHL1   H3' 8996   2.251   0.551   6.816  0.2288 -0.5029  1.0209
   89CHL1    C4 8997   2.160   0.696   6.999  0.9852 -0.8285  0.2460
   89CHL1   H4A 8998   2.268   0.699   6.974  1.0190 -2.2134  0.1640
   89CHL1   H4B 8999   2.099   0.771   6.943  1.2750 -1.5548 -1.0890
   89CHL1    C5 9000   2.141   0.700   7.150 -0.3453 -0.0220 -0.0064
   89CHL1    C6 9001   2.072   0.803   7.205 -1.0681  0.3648  0.0877
   89CHL1    H6 9002   2.048   0.883   7.134  0.2242 -0.9192 -1.9133
   89CHL1    C7 9003   2.048   0.825   7.354  0.0053 -0.1230 -0.1542
   89CHL1   H7A 9004   2.077   0.928   7.380  0.9828 -0.9387  2.2065
   89CHL1   H7B 9005   1.938   0.817   7.370  0.2568 -0.5142  1.4969
   89CHL1    C8 9006   2.132   0.734   7.439  0.1446 -0.1019  0.1456
   89CHL1    H8 9007   2.233   0.780   7.445  0.4678 -0.7793 -0.0974
   89CHL1   C14 9008   2.067   0.724   7.582 -0.7366 -0.4583  0.0417
   89CHL1   H14 9009   1.965   0.682   7.568 -0.3768 -0.8931 -1.3862
   89CHL1   C15 9010   2.048   0.849   7.662 -0.4191  0.1244 -0.1805
   89CHL1  H15A 9011   2.146   0.902   7.652 -0.8077  0.9458  0.2356
   89CHL1  H15B 9012   1.971   0.917   7.620 -1.0096  1.0676  2.2405
   89CHL1   C16 9013   2.038   0.804   7.810  0.2133  0.0813 -0.8688
   89CHL1  H16A 9014   2.124   0.846   7.867 -0.1107 -1.3370  0.7444
   89CHL1  H16B 9015   1.932   0.824   7.838 -0.0510  0.5702 -2.1437
   89CHL1   C17 9016   2.061   0.650   7.803  0.4628 -0.3232 -0.0231
   89CHL1   H17 9017   1.966   0.593   7.800  0.0781  0.3110  0.0233
   89CHL1   C13 9018   2.145   0.627   7.673 -0.0847  0.0950 -0.0666
   89CHL1   C18 9019   2.292   0.664   7.699 -0.6763 -0.0651  0.5097
   89CHL1  H18A 9020   2.345   0.578   7.745 -3.5607 -2.0446  0.4373
   89CHL1  H18B 9021   2.331   0.689   7.598 -0.9070 -0.3582  0.3465
   89CHL1  H18C 9022   2.301   0.754   7.765 -0.2684 -0.5509  1.1280
   89CHL1   C12 9023   2.146   0.484   7.616 -0.3589 -0.1509 -0.1824
   89CHL1  H12A 9024   2.195   0.406   7.677  0.4234 -0.5172 -1.2557
   89CHL1  H12B 9025   2.037   0.461   7.611 -0.8180  1.4480  1.2534
   89CHL1   C11 9026   2.203   0.488   7.472  0.6875  0.1151 -0.3217
   89CHL1  H11A 9027   2.312   0.503   7.487  0.6335  1.1140 -0.8714
   89CHL1  H11B 9028   2.184   0.389   7.426  0.6720 -0.5903  1.1191
   89CHL1    C9 9029   2.144   0.591   7.376 -0.2519  0.1826 -0.0908
   89CHL1    H9 9030   2.036   0.566   7.362  0.0106 -1.2367  0.2340
   89CHL1   C10 9031   2.196   0.583   7.228 -0.3125  0.2395  0.0035
   89CHL1   C19 9032   2.351   0.584   7.229  0.7804 -0.2040 -1.1137
   89CHL1  H19A 9033   2.379   0.678   7.282 -0.7179 -1.2817  1.8330
   89CHL1  H19B 9034   2.383   0.490   7.280  0.0689 -0.3388 -0.8971
   89CHL1  H19C 9035   2.386   0.579   7.124  2.0617 -2.0438 -0.6451
   89CHL1    C1 9036   2.135   0.450   7.160  0.2125 -0.1557 -0.8435
   89CHL1   H1A 9037   2.181   0.363   7.213  1.1931  2.4868  3.1124
   89CHL1   H1B 9038   2.025   0.442   7.175  0.0213  0.9860 -1.5569
   89CHL1    C2 9039   2.177   0.433   7.019 -0.2962  0.6597  0.3815
   89CHL1   H2A 9040   2.139   0.337   6.977  0.1940  0.3495  0.6405
   89CHL1   H2B 9041   2.288   0.435   7.010 -0.3378  0.9098 -0.0705
   89CHL1   C20 9042   2.124   0.592   7.935  0.8515 -0.4410 -0.4402
   89CHL1   H20 9043   2.220   0.644   7.955  1.0755 -1.2208  0.5643
   89CHL1   C21 9044   2.157   0.442   7.931 -0.1092 -0.3939 -0.4456
   89CHL1  H21A 9045   2.250   0.425   7.873  1.5975 -1.1050  2.2914
   89CHL1  H21B 9046   2.065   0.389   7.898 -1.3612  1.3132  0.1529
   89CHL1  H21C 9047   2.193   0.414   8.033  1.8699 -1.4419 -1.3842
   89CHL1   C22 9048   2.029   0.611   8.065  0.4031 -0.6061  0.2654
   89CHL1  H22A 9049   1.957   0.693   8.045  0.2473 -0.8375 -0.1438
   89CHL1  H22B 9050   1.969   0.518   8.079 -0.9777  0.2089 -0.0931
   89CHL1   C23 9051   2.091   0.630   8.208  0.1162  0.1127  0.0079
   89CHL1  H23A 9052   2.148   0.538   8.233 -0.8383 -0.4587  0.1087
   89CHL1  H23B 9053   2.159   0.718   8.207 -0.4834  0.6009  1.1015
   89CHL1   C24 9054   1.976   0.627   8.311  0.4351 -0.5232 -0.2585
   89CHL1  H24A 9055   1.914   0.718   8.298 -0.9130 -1.5640 -1.3167
   89CHL1  H24B 9056   1.910   0.542   8.288  0.7205 -0.4295 -1.4935
   89CHL1   C25 9057   2.009   0.620   8.465  0.1818  0.2822  0.7193
   89CHL1   H25 9058   2.083   0.540   8.483  0.9130  1.1491  1.7124
   89CHL1   C26 9059   2.087   0.747   8.516  0.1446  0.3892  0.1984
   89CHL1  H26A 9060   2.018   0.833   8.526 -0.5062 -0.2081  0.9649
   89CHL1  H26B 9061   2.132   0.719   8.613  2.7475  1.2047 -0.6883
   89CHL1  H26C 9062   2.174   0.767   8.450  0.0774 -1.0481 -0.3616
   89CHL1   C27 9063   1.886   0.605   8.557  0.2050 -0.1943  0.0078
   89CHL1  H27A 9064   1.822   0.694   8.536  1.1209  0.2916 -0.8034
   89CHL1  H27B 9065   1.835   0.514   8.521 -0.0101  0.7168 -2.1037
   89CHL1  H27C 9066   1.921   0.604   8.663 -1.0524  0.3309  0.4533
   90CHL1    C3 9067   4.654   4.816   6.852  0.2107  0.2900 -0.6284
   90CHL1    H3 9068   4.548   4.784   6.835  0.7960 -2.5143  0.3686
   90CHL1    O3 9069   4.708   4.873   6.736 -0.3503  0.3530 -0.3454
   90CHL1   H3' 9070   4.803   4.865   6.751 -0.5450 -4.4305 -0.1341
   90CHL1    C4 9071   4.653   4.922   6.964 -0.1627 -0.7180 -0.2238
   90CHL1   H4A 9072   4.754   4.967   6.980 -1.1931  0.4916  3.9742
   90CHL1   H4B 9073   4.599   5.015   6.935  0.6753 -0.2378 -0.2678
   90CHL1    C5 9074   4.609   4.863   7.099 -0.5604 -0.3219 -0.0697
   90CHL1    C6 9075   4.508   4.923   7.169  0.1700  0.2019  0.5200
   90CHL1    H6 9076   4.455   5.008   7.123  2.6739  1.6752  0.2296
   90CHL1    C7 9077   4.463   4.879   7.299  0.2659 -0.1735 -0.4001
   90CHL1   H7A 9078   4.449   4.967   7.364 -0.9775 -0.7158  0.0900
   90CHL1   H7B 9079   4.369   4.819   7.293  0.5730 -0.5631 -1.9982
   90CHL1    C8 9080   4.573   4.788   7.366 -0.6772 -0.0894 -0.2472
   90CHL1    H8 9081   4.655   4.854   7.402 -1.5065 -1.0669  3.8779
   90CHL1   C14 9082   4.514   4.726   7.496 -0.0033  0.2943  0.7862
   90CHL1   H14 9083   4.421   4.673   7.465  0.4777 -1.3047  1.9077
   90CHL1   C15 9084   4.474   4.826   7.603 -0.4353  0.3798 -0.4859
   90CHL1  H15A 9085   4.544   4.912   7.615 -0.7237  0.4935  0.4248
   90CHL1  H15B 9086   4.374   4.865   7.575 -0.7642  0.1336  0.3258
   90CHL1   C16 9087   4.474   4.736   7.735  0.4895  1.0846  0.3414
   90CHL1  H16A 9088   4.555   4.777   7.798  0.5626  0.3720  0.7142
   90CHL1  H16B 9089   4.376   4.735   7.787 -0.8097 -1.4995 -1.8945
   90CHL1   C17 9090   4.517   4.595   7.691 -0.0076 -0.7613 -0.5135
   90CHL1   H17 9091   4.428   4.544   7.649  0.1979 -1.0622 -0.5889
   90CHL1   C13 9092   4.604   4.622   7.570  0.0598 -0.5041 -0.3412
   90CHL1   C18 9093   4.729   4.691   7.614 -1.4484 -0.3103  0.3383
   90CHL1  H18A 9094   4.769   4.739   7.522 -1.9991 -2.8908 -1.3597
   90CHL1  H18B 9095   4.736   4.749   7.708  1.6789  0.7706 -0.4417
   90CHL1  H18C 9096   4.806   4.612   7.631 -0.6647  0.8056  2.2633
   90CHL1   C12 9097   4.633   4.511   7.468 -0.1161 -0.8268  0.0431
   90CHL1  H12A 9098   4.698   4.427   7.500 -2.5092 -2.7850  0.0385
   90CHL1  H12B 9099   4.535   4.472   7.433 -0.6043  1.6931 -1.6538
   90CHL1   C11 9100   4.690   4.562   7.340 -0.1736 -0.3421  0.3073
   90CHL1  H11A 9101   4.788   4.610   7.361  0.0770 -0.5130 -0.4537
   90CHL1  H11B 9102   4.719   4.486   7.265  1.3697  0.7625 -0.2727
   90CHL1    C9 9103   4.610   4.675   7.268  0.3284 -0.0504 -0.4661
   90CHL1    H9 9104   4.517   4.626   7.234  1.1738  0.1276 -3.3432
   90CHL1   C10 9105   4.690   4.738   7.146 -1.1817 -0.5510 -0.2859
   90CHL1   C19 9106   4.829   4.783   7.184  0.0931 -0.0741  0.1936
   90CHL1  H19A 9107   4.886   4.822   7.097 -2.6627  2.4512 -0.6842
   90CHL1  H19B 9108   4.831   4.859   7.264  0.6693  0.7046 -0.5462
   90CHL1  H19C 9109   4.890   4.698   7.220  2.0137 -0.0935 -2.7225
   90CHL1    C1 9110   4.696   4.630   7.040 -0.0404  0.2581  0.0279
   90CHL1   H1A 9111   4.770   4.556   7.077 -0.4176 -0.6416 -0.9575
   90CHL1   H1B 9112   4.597   4.582   7.027  0.1087  0.1110 -0.6119
   90CHL1    C2 9113   4.735   4.687   6.899 -0.8930  1.0359  0.8251
   90CHL1   H2A 9114   4.717   4.604   6.828  0.9775  1.2493  0.0451
   90CHL1   H2B 9115   4.846   4.697   6.901 -0.6912 -0.9028  0.6363
   90CHL1   C20 9116   4.573   4.514   7.808 -0.7249 -0.0736  0.3009
   90CHL1   H20 9117   4.682   4.527   7.821 -0.6084 -0.5449 -0.2021
   90CHL1   C21 9118   4.543   4.371   7.769  0.4113 -0.5366  0.5500
   90CHL1  H21A 9119   4.575   4.348   7.666  2.6343 -1.0677  1.3027
   90CHL1  H21B 9120   4.434   4.358   7.781  0.3999 -1.4222 -0.3919
   90CHL1  H21C 9121   4.579   4.297   7.844 -2.7049 -2.1770  0.5601
   90CHL1   C22 9122   4.514   4.544   7.949 -0.0367 -0.1847 -0.4861
   90CHL1  H22A 9123   4.533   4.651   7.976  0.5715  0.3586 -2.8390
   90CHL1  H22B 9124   4.404   4.536   7.935  0.1501  1.6223 -3.9334
   90CHL1   C23 9125   4.571   4.450   8.060  0.1214  0.2695 -0.3721
   90CHL1  H23A 9126   4.529   4.348   8.045  2.6417 -0.3695 -4.5235
   90CHL1  H23B 9127   4.679   4.429   8.046 -0.3772 -2.9329 -0.2420
   90CHL1   C24 9128   4.553   4.499   8.207  0.3000 -0.2728  0.1093
   90CHL1  H24A 9129   4.606   4.437   8.282  0.3976 -1.6099 -1.0130
   90CHL1  H24B 9130   4.620   4.588   8.204  0.7016 -0.5896 -0.6728
   90CHL1   C25 9131   4.409   4.526   8.241 -0.0996  0.2008 -0.1377
   90CHL1   H25 9132   4.353   4.575   8.158 -1.7076 -0.6158  0.4314
   90CHL1   C26 9133   4.349   4.401   8.298 -0.8168  0.1647  0.0031
   90CHL1  H26A 9134   4.417   4.366   8.378 -0.8011  0.0286 -0.0700
   90CHL1  H26B 9135   4.254   4.420   8.354 -0.3851 -0.7665  1.0891
   90CHL1  H26C 9136   4.326   4.318   8.229  3.1890 -1.4482  0.3978
   90CHL1   C27 9137   4.403   4.637   8.352  0.5608  0.1046 -0.6106
   90CHL1  H27A 9138   4.442   4.732   8.310 -0.0967 -0.7482 -3.3566
   90CHL1  H27B 9139   4.298   4.660   8.382  1.2185  3.8704 -0.6550
   90CHL1  H27C 9140   4.465   4.605   8.439  3.2306  0.8856 -2.1172
   91CHL1    C3 9141   3.243   6.604   7.189  0.1382 -0.6544  0.3632
   91CHL1    H3 9142   3.256   6.497   7.163 -1.4839 -0.1546 -3.1119
   91CHL1    O3 9143   3.255   6.656   7.056 -0.0166  0.0558  0.4535
   91CHL1   H3' 9144   3.346   6.632   7.037  0.7181  1.9258  1.3789
   91CHL1    C4 9145   3.106   6.647   7.251 -0.4740 -0.5647 -0.1464
   91CHL1   H4A 9146   3.098   6.758   7.241 -1.3437 -0.4972  1.0820
   91CHL1   H4B 9147   3.020   6.600   7.199  0.4022 -1.7452 -0.5553
   91CHL1    C5 9148   3.097   6.617   7.394  0.0660  0.0082 -0.7075
   91CHL1    C6 9149   2.993   6.544   7.438  0.2017  0.1924 -0.1092
   91CHL1    H6 9150   2.914   6.516   7.366  2.0815  0.6617 -2.5112
   91CHL1    C7 9151   2.977   6.497   7.583  0.2367 -0.0436 -0.4181
   91CHL1   H7A 9152   2.870   6.512   7.609  0.7201  0.7034  1.2885
   91CHL1   H7B 9153   2.996   6.388   7.596  0.8434  0.3936  3.6603
   91CHL1    C8 9154   3.069   6.567   7.682 -0.2420 -0.1767  0.1763
   91CHL1    H8 9155   3.019   6.664   7.703  1.4232  0.9632 -0.8648
   91CHL1   C14 9156   3.088   6.494   7.814 -0.0801 -0.5852 -0.0628
   91CHL1   H14 9157   3.151   6.407   7.787 -0.4986 -1.4426  1.5732
   91CHL1   C15 9158   2.966   6.428   7.875  0.6693 -0.2111 -0.3642
   91CHL1  H15A 9159   2.875   6.491   7.864  0.6281 -0.0044  0.9311
   91CHL1  H15B 9160   2.942   6.327   7.835  1.8995 -0.2437 -1.0730
   91CHL1   C16 9161   2.997   6.425   8.022 -0.1571  0.1238 -0.2183
   91CHL1  H16A 9162   2.932   6.507   8.058 -1.2226 -0.7474 -0.1117
   91CHL1  H16B 9163   2.960   6.335   8.075 -0.4163  0.6621  0.5263
   91CHL1   C17 9164   3.144   6.469   8.046 -0.2244  0.1974  0.6311
   91CHL1   H17 9165   3.206   6.378   8.031 -0.3598  0.0037  1.2071
   91CHL1   C13 9166   3.167   6.567   7.923  0.1897 -0.3960  0.3528
   91CHL1   C18 9167   3.102   6.707   7.956 -0.3352 -0.1809 -0.6740
   91CHL1  H18A 9168   3.105   6.782   7.874  0.1823  3.3213  2.2984
   91CHL1  H18B 9169   2.994   6.694   7.981  0.2720 -0.2406  2.2642
   91CHL1  H18C 9170   3.146   6.750   8.048  0.6344 -2.8223  0.1900
   91CHL1   C12 9171   3.306   6.585   7.874 -0.6479  0.5757 -0.1971
   91CHL1  H12A 9172   3.377   6.629   7.947  0.7093 -1.1641 -0.4144
   91CHL1  H12B 9173   3.351   6.484   7.874  0.1051  0.8925 -1.2619
   91CHL1   C11 9174   3.312   6.652   7.733 -1.1480  0.5060  0.6026
   91CHL1  H11A 9175   3.279   6.758   7.735 -1.0628  0.5791 -0.8298
   91CHL1  H11B 9176   3.414   6.657   7.691 -0.5076 -1.8020  1.7024
   91CHL1    C9 9177   3.209   6.591   7.628  0.1063  0.3746 -0.4954
   91CHL1    H9 9178   3.254   6.492   7.605  1.3896  0.7075  0.4398
   91CHL1   C10 9179   3.213   6.664   7.490  0.1309 -0.0087  0.1537
   91CHL1   C19 9180   3.184   6.815   7.502  0.1563 -0.1092  0.0825
   91CHL1  H19A 9181   3.183   6.862   7.401 -0.7785  0.9905  0.5830
   91CHL1  H19B 9182   3.084   6.823   7.550  1.3034 -3.2380  3.4049
   91CHL1  H19C 9183   3.265   6.866   7.559  0.0041  1.5055 -1.0742
   91CHL1    C1 9184   3.357   6.639   7.421 -0.2667  0.3482  0.5409
   91CHL1   H1A 9185   3.422   6.713   7.473  0.0848  0.7025 -0.3913
   91CHL1   H1B 9186   3.405   6.542   7.444  1.3436  1.5506  2.7707
   91CHL1    C2 9187   3.360   6.666   7.272 -0.2428  0.6607 -0.1231
   91CHL1   H2A 9188   3.449   6.643   7.210 -2.5064 -0.7249 -3.0746
   91CHL1   H2B 9189   3.346   6.775   7.257  0.1493  0.6483 -0.5839
   91CHL1   C20 9190   3.182   6.521   8.184  0.0623 -0.5158 -0.3080
   91CHL1   H20 9191   3.136   6.622   8.190  0.6643 -0.2881  0.5503
   91CHL1   C21 9192   3.335   6.546   8.204 -0.1550 -0.5397 -0.0541
   91CHL1  H21A 9193   3.361   6.570   8.309 -1.2434  0.3590  0.0203
   91CHL1  H21B 9194   3.374   6.637   8.154  2.7200 -1.1147  0.9453
   91CHL1  H21C 9195   3.399   6.458   8.179  2.3046  1.0883  0.0980
   91CHL1   C22 9196   3.118   6.458   8.311 -0.6736 -0.0203  0.1536
   91CHL1  H22A 9197   3.146   6.522   8.397  0.5969  2.2506 -1.8246
   91CHL1  H22B 9198   3.009   6.462   8.292 -0.4973  2.6544 -0.6671
   91CHL1   C23 9199   3.161   6.309   8.328 -0.2704 -0.5959  0.3709
   91CHL1  H23A 9200   3.125   6.254   8.239 -1.4835  2.2230 -0.9972
   91CHL1  H23B 9201   3.272   6.302   8.332 -0.2658 -1.6127 -0.9758
   91CHL1   C24 9202   3.107   6.238   8.453 -0.8556  0.2771 -0.0530
   91CHL1  H24A 9203   2.997   6.217   8.450 -0.5171 -1.8635  0.5616
   91CHL1  H24B 9204   3.147   6.135   8.465  0.1537  0.5149 -1.2598
   91CHL1   C25 9205   3.140   6.313   8.585 -0.0966  0.1980  0.2607
   91CHL1   H25 9206   3.104   6.417   8.573 -2.7249 -0.6097  0.6405
   91CHL1   C26 9207   3.077   6.236   8.705  0.8368 -1.1103 -0.1032
   91CHL1  H26A 9208   3.092   6.288   8.802 -0.2916 -1.7874  0.4580
   91CHL1  H26B 9209   2.968   6.232   8.681  0.2392  1.8129  1.5749
   91CHL1  H26C 9210   3.119   6.134   8.699  1.9786 -0.7302  1.0119
   91CHL1   C27 9211   3.293   6.309   8.603  0.3128 -0.3912 -0.0962
   91CHL1  H27A 9212   3.355   6.321   8.511  1.9861 -0.0676  1.0354
   91CHL1  H27B 9213   3.309   6.387   8.680  1.8528 -2.4207  1.7760
   91CHL1  H27C 9214   3.325   6.213   8.650 -1.6593 -0.5102  1.0726
   92CHL1    C3 9215   5.413   0.259   6.978 -0.0266 -0.6881 -0.1736
   92CHL1    H3 9216   5.483   0.341   7.006 -2.6822  1.4570  0.7352
   92CHL1    O3 9217   5.397   0.266   6.840  0.1768  0.0994  0.8565
   92CHL1   H3' 9218   5.459   0.199   6.809  1.0475  1.4755 -0.5198
   92CHL1    C4 9219   5.463   0.124   7.027  0.0256 -0.0027  0.6965
   92CHL1   H4A 9220   5.385   0.051   6.997  0.2105  1.2099 -3.3425
   92CHL1   H4B 9221   5.554   0.101   6.969 -0.5180  1.8427 -0.9672
   92CHL1    C5 9222   5.496   0.133   7.170 -0.4426  0.5153 -1.1416
   92CHL1    C6 9223   5.625   0.105   7.220  0.5651  0.4062 -0.5569
   92CHL1    H6 9224   5.712   0.085   7.155  2.7140  2.1668  1.5822
   92CHL1    C7 9225   5.661   0.097   7.371  0.4570  0.1697  0.3807
   92CHL1   H7A 9226   5.719   0.003   7.384 -0.8676 -0.6229  0.8626
   92CHL1   H7B 9227   5.707   0.194   7.398 -0.2384  0.0248  2.2330
   92CHL1    C8 9228   5.530   0.079   7.450  0.1862  0.1627  0.0038
   92CHL1    H8 9229   5.482  -0.020   7.435  0.3071 -0.3031  2.3579
   92CHL1   C14 9230   5.561   0.105   7.595 -0.5572  0.6881 -0.2195
   92CHL1   H14 9231   5.605   0.206   7.608  1.5710 -0.3518  1.1007
   92CHL1   C15 9232   5.678   0.019   7.663 -0.4392  0.0413  0.0857
   92CHL1  H15A 9233   5.655  -0.085   7.633 -2.2504  0.1939  0.8299
   92CHL1  H15B 9234   5.777   0.054   7.624 -1.0914  0.2162 -1.5060
   92CHL1   C16 9235   5.658   0.030   7.814  0.0623 -0.3296  0.6114
   92CHL1  H16A 9236   5.646  -0.067   7.867 -2.2408  0.8555  2.4125
   92CHL1  H16B 9237   5.739   0.079   7.871  0.4182 -1.1753  0.8522
   92CHL1   C17 9238   5.522   0.107   7.832 -0.0042  0.1327  0.3087
   92CHL1   H17 9239   5.545   0.215   7.830 -0.5833  0.2512 -1.4230
   92CHL1   C13 9240   5.448   0.088   7.694 -0.1957 -0.5552 -0.3102
   92CHL1   C18 9241   5.400  -0.059   7.691 -0.7984  0.2659 -1.1067
   92CHL1  H18A 9242   5.316  -0.057   7.762  0.2043  2.7295  0.1454
   92CHL1  H18B 9243   5.362  -0.076   7.588 -1.2806 -0.0501 -0.8765
   92CHL1  H18C 9244   5.481  -0.134   7.703  0.1571  1.5553  1.1589
   92CHL1   C12 9245   5.336   0.190   7.662  0.2817 -0.2454  0.1991
   92CHL1  H12A 9246   5.242   0.153   7.709 -0.5388 -1.2018 -2.0238
   92CHL1  H12B 9247   5.351   0.296   7.693  1.8609 -0.7922  1.4431
   92CHL1   C11 9248   5.299   0.185   7.517 -0.1753 -0.9377  0.2435
   92CHL1  H11A 9249   5.249   0.089   7.492 -2.2523 -0.6414  2.8843
   92CHL1  H11B 9250   5.222   0.258   7.484  1.6237  0.5881 -0.8199
   92CHL1    C9 9251   5.417   0.184   7.416  0.2581 -0.0868 -0.3810
   92CHL1    H9 9252   5.456   0.288   7.424  0.7098 -0.4003  2.1738
   92CHL1   C10 9253   5.379   0.165   7.269  0.6986  0.8604  0.4832
   92CHL1   C19 9254   5.273   0.053   7.257  0.1993 -0.5300  0.0425
   92CHL1  H19A 9255   5.233   0.024   7.157  0.8653 -0.6375 -0.1968
   92CHL1  H19B 9256   5.323  -0.036   7.300 -0.4181 -1.0109 -0.2104
   92CHL1  H19C 9257   5.174   0.071   7.305 -0.8540  0.6592 -2.3643
   92CHL1    C1 9258   5.314   0.286   7.205  0.1295 -0.5487  0.6946
   92CHL1   H1A 9259   5.219   0.297   7.261 -0.3339 -0.9972  0.0023
   92CHL1   H1B 9260   5.367   0.383   7.220 -0.1581  0.2158 -2.4974
   92CHL1    C2 9261   5.287   0.287   7.056  0.0436 -0.8664  0.4119
   92CHL1   H2A 9262   5.238   0.384   7.033 -0.9756 -1.1731  1.1959
   92CHL1   H2B 9263   5.218   0.204   7.029 -0.5359 -0.7467  1.4788
   92CHL1   C20 9264   5.457   0.099   7.969 -0.1673  0.9756  0.9210
   92CHL1   H20 9265   5.407   0.000   7.981  1.6253 -0.1375 -0.1970
   92CHL1   C21 9266   5.369   0.215   8.001  1.0881  0.1759 -0.3103
   92CHL1  H21A 9267   5.434   0.304   7.988  2.6206 -0.6801  1.0157
   92CHL1  H21B 9268   5.336   0.208   8.107  1.4453 -2.3903 -0.2977
   92CHL1  H21C 9269   5.279   0.209   7.937  0.0295  2.0934  0.9065
   92CHL1   C22 9270   5.573   0.099   8.079 -0.0357 -0.0124  0.2744
   92CHL1  H22A 9271   5.514   0.076   8.171  2.3499 -2.9111  1.2149
   92CHL1  H22B 9272   5.640   0.014   8.055 -1.9520 -0.9129 -2.3190
   92CHL1   C23 9273   5.653   0.223   8.105 -0.5585  0.8791  0.3130
   92CHL1  H23A 9274   5.710   0.242   8.011  0.4621  0.2342  0.7832
   92CHL1  H23B 9275   5.585   0.310   8.116  1.7618  3.0770 -1.3977
   92CHL1   C24 9276   5.752   0.208   8.220 -0.4039  0.5202  0.1278
   92CHL1  H24A 9277   5.827   0.127   8.207  0.8111  1.9952 -3.2169
   92CHL1  H24B 9278   5.809   0.303   8.223  0.2271  0.1447  2.4090
   92CHL1   C25 9279   5.697   0.196   8.367  0.1884 -0.7169 -0.2192
   92CHL1   H25 9280   5.670   0.090   8.386 -0.0962 -0.4487  0.9479
   92CHL1   C26 9281   5.817   0.243   8.464  1.1991 -0.1859  0.1522
   92CHL1  H26A 9282   5.840   0.351   8.454  0.3699 -0.1026 -1.1172
   92CHL1  H26B 9283   5.790   0.227   8.571  1.5053 -0.6952  0.1590
   92CHL1  H26C 9284   5.895   0.168   8.437 -1.7807 -3.5712  0.0907
   92CHL1   C27 9285   5.571   0.274   8.395  0.0826 -0.4977 -0.5624
   92CHL1  H27A 9286   5.541   0.262   8.501  1.7989 -1.0392 -0.1009
   92CHL1  H27B 9287   5.599   0.381   8.386  0.9158 -0.3862  2.4184
   92CHL1  H27C 9288   5.490   0.254   8.322 -0.1330  2.1440 -1.1482
   93CHL1    C3 9289   4.028   5.055   7.129  0.1344  0.2420  0.3834
   93CHL1    H3 9290   4.071   4.954   7.144 -0.8575 -0.3446 -0.5745
   93CHL1    O3 9291   3.964   5.047   7.002  0.2195 -0.5316  1.0247
   93CHL1   H3' 9292   3.908   5.125   6.999  0.5018 -0.3454  0.2232
   93CHL1    C4 9293   3.914   5.082   7.232  0.2439  0.3235  0.0774
   93CHL1   H4A 9294   3.860   5.170   7.191 -1.4143  0.1712  1.7959
   93CHL1   H4B 9295   3.845   4.995   7.231 -0.4710  0.8436 -2.3743
   93CHL1    C5 9296   3.969   5.090   7.373  0.7374 -0.4536 -0.3173
   93CHL1    C6 9297   3.915   5.018   7.473  0.4244 -0.2826  0.2824
   93CHL1    H6 9298   3.832   4.949   7.452 -0.9139  1.5599 -0.8451
   93CHL1    C7 9299   3.961   5.017   7.613 -0.2959  0.1903 -0.2674
   93CHL1   H7A 9300   3.884   5.026   7.691  0.8008 -2.1627  1.1946
   93CHL1   H7B 9301   4.004   4.919   7.641 -2.0868 -0.6033 -0.2025
   93CHL1    C8 9302   4.068   5.126   7.641 -0.3839 -0.3842  0.2536
   93CHL1    H8 9303   4.011   5.221   7.653 -0.6601 -0.4842 -0.2234
   93CHL1   C14 9304   4.152   5.086   7.760  0.4131 -0.0880 -0.2335
   93CHL1   H14 9305   4.194   4.987   7.733 -1.6980 -1.5741  1.5841
   93CHL1   C15 9306   4.081   5.064   7.889  0.1525  0.0179 -0.2041
   93CHL1  H15A 9307   4.012   5.149   7.910  1.7666  1.0676  1.0840
   93CHL1  H15B 9308   4.016   4.974   7.884 -0.0265  0.1640 -0.5244
   93CHL1   C16 9309   4.190   5.068   7.997 -0.1660  0.5658  0.5418
   93CHL1  H16A 9310   4.163   5.135   8.082  0.1798  1.4516 -0.0271
   93CHL1  H16B 9311   4.218   4.969   8.037  3.1987  0.9306 -0.6141
   93CHL1   C17 9312   4.315   5.117   7.918 -0.1722  0.5071  0.6630
   93CHL1   H17 9313   4.369   5.030   7.874 -0.8436  1.5014 -2.3731
   93CHL1   C13 9314   4.260   5.185   7.789 -0.1317  0.8168 -0.5165
   93CHL1   C18 9315   4.204   5.328   7.820 -0.1318 -0.1638 -0.0390
   93CHL1  H18A 9316   4.153   5.391   7.744 -1.2634 -1.9141 -0.7764
   93CHL1  H18B 9317   4.127   5.324   7.900 -1.6613 -0.9849 -1.4869
   93CHL1  H18C 9318   4.286   5.389   7.863 -0.2800  0.6218 -0.8461
   93CHL1   C12 9319   4.368   5.190   7.679 -0.4436  0.3457 -0.3119
   93CHL1  H12A 9320   4.433   5.279   7.699  0.5852 -0.0832 -1.5526
   93CHL1  H12B 9321   4.431   5.100   7.660  1.0903  1.6408 -1.7301
   93CHL1   C11 9322   4.295   5.235   7.555 -0.5113  0.0883 -0.7495
   93CHL1  H11A 9323   4.247   5.335   7.567 -3.8927 -1.5604  0.9306
   93CHL1  H11B 9324   4.374   5.231   7.478  0.4599  2.2220  0.0318
   93CHL1    C9 9325   4.175   5.143   7.526 -0.5939  0.6913  0.4314
   93CHL1    H9 9326   4.217   5.041   7.510  2.0907  2.0842 -2.8799
   93CHL1   C10 9327   4.101   5.178   7.393  0.6687 -0.3063  0.0532
   93CHL1   C19 9328   4.047   5.323   7.396 -0.5403 -0.0212 -1.3597
   93CHL1  H19A 9329   3.995   5.338   7.494 -0.9380 -1.4327 -1.3318
   93CHL1  H19B 9330   4.134   5.391   7.403  0.6063 -1.5443  0.0307
   93CHL1  H19C 9331   3.982   5.347   7.310 -2.0924 -2.9213 -1.1469
   93CHL1    C1 9332   4.195   5.153   7.273  0.0357  0.2187  1.1997
   93CHL1   H1A 9333   4.273   5.231   7.280 -1.5243  2.3134 -2.1863
   93CHL1   H1B 9334   4.245   5.055   7.290  1.4122  0.5519 -0.6982
   93CHL1    C2 9335   4.132   5.163   7.134 -0.8635  0.3721 -0.2236
   93CHL1   H2A 9336   4.213   5.157   7.059  1.4357 -0.5487  2.1989
   93CHL1   H2B 9337   4.086   5.264   7.128 -0.2810  0.6235 -0.4552
   93CHL1   C20 9338   4.426   5.203   7.984 -0.0088 -0.1043  1.4209
   93CHL1   H20 9339   4.475   5.273   7.913  2.0136 -2.5044  0.2816
   93CHL1   C21 9340   4.541   5.092   7.997 -0.3986 -1.4147 -0.2857
   93CHL1  H21A 9341   4.625   5.136   8.055 -1.3089 -1.2031  0.9182
   93CHL1  H21B 9342   4.581   5.064   7.898  1.7953  0.0187  0.1376
   93CHL1  H21C 9343   4.503   5.003   8.053  0.3503 -0.6949  1.4257
   93CHL1   C22 9344   4.379   5.273   8.110 -1.0227 -1.1387  0.5037
   93CHL1  H22A 9345   4.290   5.339   8.102 -0.5672 -0.3542  1.5929
   93CHL1  H22B 9346   4.355   5.194   8.184 -2.5656 -2.1482 -0.9903
   93CHL1   C23 9347   4.507   5.363   8.168  0.4517 -0.0267  0.6887
   93CHL1  H23A 9348   4.595   5.296   8.179  1.8089  1.9440  2.9934
   93CHL1  H23B 9349   4.513   5.441   8.089 -1.1166 -3.2261 -2.8717
   93CHL1   C24 9350   4.486   5.411   8.315  0.7077 -0.4589  0.5688
   93CHL1  H24A 9351   4.554   5.496   8.338  1.9089 -1.4177  0.6424
   93CHL1  H24B 9352   4.384   5.452   8.299  0.1618 -1.7790  0.5736
   93CHL1   C25 9353   4.488   5.311   8.431  0.0107  0.3229 -0.5311
   93CHL1   H25 9354   4.404   5.239   8.416  0.5499 -0.4053 -0.1586
   93CHL1   C26 9355   4.620   5.237   8.433 -0.3716 -0.5418  0.2223
   93CHL1  H26A 9356   4.639   5.171   8.345 -1.3511  0.0951 -0.4794
   93CHL1  H26B 9357   4.705   5.308   8.428 -1.1828  0.4396  0.1901
   93CHL1  H26C 9358   4.636   5.178   8.526  1.2602 -0.5264 -0.0226
   93CHL1   C27 9359   4.456   5.393   8.549  0.1281  0.3929 -0.8403
   93CHL1  H27A 9360   4.548   5.439   8.591  0.6275 -0.2057 -1.2641
   93CHL1  H27B 9361   4.393   5.480   8.518 -1.0822  0.1865  0.8622
   93CHL1  H27C 9362   4.403   5.345   8.634  0.6565  1.4182  0.0953
   94CHL1    C3 9363   1.115   6.021   6.935 -0.7607  0.5982  0.4015
   94CHL1    H3 9364   1.120   5.925   6.990  0.2210  0.6785  0.4646
   94CHL1    O3 9365   1.143   5.994   6.797  0.1353  0.1079 -0.4387
   94CHL1   H3' 9366   1.089   5.917   6.776 -0.2902 -0.2521  1.7240
   94CHL1    C4 9367   0.982   6.086   6.955  0.7660 -0.4816 -0.2739
   94CHL1   H4A 9368   0.995   6.178   6.894 -0.3810 -0.0613  0.0862
   94CHL1   H4B 9369   0.914   6.010   6.910  0.3974 -0.1836 -0.2304
   94CHL1    C5 9370   0.956   6.122   7.098  0.4752  0.2343 -0.5107
   94CHL1    C6 9371   0.858   6.056   7.166  0.4646  0.1798  0.3608
   94CHL1    H6 9372   0.796   5.983   7.112 -0.1853  1.1496 -0.2343
   94CHL1    C7 9373   0.822   6.081   7.309  0.7107 -0.3139 -0.6402
   94CHL1   H7A 9374   0.712   6.065   7.316  0.8128 -1.2327 -1.0429
   94CHL1   H7B 9375   0.861   6.000   7.375 -1.0859 -1.1722 -0.5633
   94CHL1    C8 9376   0.873   6.218   7.362  0.2111  0.1627 -0.3554
   94CHL1    H8 9377   0.819   6.301   7.311  0.0466 -1.1185 -2.3842
   94CHL1   C14 9378   0.861   6.219   7.517  0.1006  0.5655 -0.1166
   94CHL1   H14 9379   0.923   6.130   7.543 -3.5233 -2.3643 -0.6964
   94CHL1   C15 9380   0.730   6.197   7.594  0.3981 -0.1404  0.4571
   94CHL1  H15A 9381   0.646   6.254   7.551 -0.4679 -0.5717  1.5389
   94CHL1  H15B 9382   0.697   6.092   7.609 -1.3364  0.6192  2.5290
   94CHL1   C16 9383   0.761   6.250   7.734  0.4636 -0.6610  0.0020
   94CHL1  H16A 9384   0.684   6.323   7.768  1.3634  0.7257 -0.8572
   94CHL1  H16B 9385   0.754   6.163   7.802 -0.9269 -0.6514 -0.0958
   94CHL1   C17 9386   0.904   6.318   7.731  0.3231 -0.2778  0.1297
   94CHL1   H17 9387   0.967   6.230   7.755  0.6277 -0.1772 -0.2917
   94CHL1   C13 9388   0.925   6.344   7.577 -1.1159  0.2125  0.0085
   94CHL1   C18 9389   0.847   6.470   7.528  0.0577  0.0410 -0.1015
   94CHL1  H18A 9390   0.851   6.474   7.417  1.7022  3.3975 -0.0449
   94CHL1  H18B 9391   0.737   6.460   7.538 -0.4089 -0.0599 -3.8901
   94CHL1  H18C 9392   0.888   6.565   7.569 -2.6691  0.0725  2.9775
   94CHL1   C12 9393   1.076   6.352   7.542 -0.1783  0.5451 -0.8422
   94CHL1  H12A 9394   1.112   6.449   7.581  0.8395 -0.2802  0.3664
   94CHL1  H12B 9395   1.138   6.271   7.587  0.2864  1.2336 -0.2167
   94CHL1   C11 9396   1.098   6.354   7.387 -0.0647 -0.3200  0.2529
   94CHL1  H11A 9397   1.072   6.452   7.341 -0.6895 -0.2156  0.8080
   94CHL1  H11B 9398   1.208   6.348   7.372 -0.1690  1.5915 -1.7485
   94CHL1    C9 9399   1.021   6.238   7.323  0.3353 -0.1762 -0.7013
   94CHL1    H9 9400   1.062   6.145   7.365 -1.5471 -0.1651  1.3411
   94CHL1   C10 9401   1.047   6.225   7.166 -0.1061 -0.0978 -0.4472
   94CHL1   C19 9402   1.038   6.365   7.097  0.6342 -0.3632 -0.6011
   94CHL1  H19A 9403   1.070   6.355   6.991 -2.0480 -2.5562 -1.3176
   94CHL1  H19B 9404   0.934   6.403   7.103 -1.3244 -5.0530 -0.6696
   94CHL1  H19C 9405   1.103   6.448   7.132 -2.0376  1.5696  0.0411
   94CHL1    C1 9406   1.184   6.168   7.139 -0.3691 -0.2985 -0.6632
   94CHL1   H1A 9407   1.258   6.242   7.178  0.4184 -1.3139 -0.1900
   94CHL1   H1B 9408   1.186   6.074   7.198 -0.2923 -0.4990 -0.9774
   94CHL1    C2 9409   1.226   6.109   6.995  0.0149  0.0421  0.3801
   94CHL1   H2A 9410   1.324   6.058   6.990 -0.3129 -0.5201 -0.4934
   94CHL1   H2B 9411   1.239   6.198   6.929  1.6644  0.8896  1.7778
   94CHL1   C20 9412   0.916   6.424   7.840  0.2122 -0.2147 -0.4077
   94CHL1   H20 9413   0.878   6.523   7.807  0.9340  1.3542  3.0093
   94CHL1   C21 9414   1.068   6.433   7.872 -0.2280  0.1720 -0.2365
   94CHL1  H21A 9415   1.112   6.342   7.917 -1.1966  0.4900  1.4322
   94CHL1  H21B 9416   1.082   6.510   7.951 -0.1518 -2.3266  2.3359
   94CHL1  H21C 9417   1.116   6.476   7.781 -1.0308  1.7075  0.0244
   94CHL1   C22 9418   0.829   6.400   7.973 -0.1406 -0.0897  0.3344
   94CHL1  H22A 9419   0.849   6.491   8.034 -2.1932  2.6429 -2.7290
   94CHL1  H22B 9420   0.723   6.399   7.942  0.7339  1.0224 -3.0761
   94CHL1   C23 9421   0.890   6.281   8.057 -0.0660 -0.4885 -0.3836
   94CHL1  H23A 9422   0.881   6.188   7.996  0.2739 -0.0820 -1.0611
   94CHL1  H23B 9423   0.998   6.299   8.078 -0.1530 -0.2844 -0.1140
   94CHL1   C24 9424   0.811   6.257   8.185 -0.2738  0.3819  0.7791
   94CHL1  H24A 9425   0.801   6.355   8.237  2.4090  0.4370  1.3162
   94CHL1  H24B 9426   0.714   6.206   8.163  0.8025 -0.8824 -1.3588
   94CHL1   C25 9427   0.899   6.166   8.287  0.2325 -0.4901  0.5977
   94CHL1   H25 9428   0.998   6.212   8.311 -0.3780  0.4697  1.3535
   94CHL1   C26 9429   0.826   6.142   8.419  0.1911  0.0932 -0.5600
   94CHL1  H26A 9430   0.877   6.069   8.485 -1.0083 -2.3432 -2.2073
   94CHL1  H26B 9431   0.796   6.238   8.468  2.4677  0.4496  0.2478
   94CHL1  H26C 9432   0.735   6.083   8.396  0.6140 -1.2307  0.9930
   94CHL1   C27 9433   0.929   6.033   8.223  0.8496 -0.2396 -0.3147
   94CHL1  H27A 9434   0.971   6.046   8.121  2.4880 -0.8656  0.2406
   94CHL1  H27B 9435   1.010   5.974   8.272  0.9967 -0.3006 -0.6240
   94CHL1  H27C 9436   0.834   5.977   8.217  0.7786 -0.2870  1.0447
   95CHL1    C3 9437   0.758   5.211   6.703 -0.0463  0.6048  0.1933
   95CHL1    H3 9438   0.660   5.263   6.711  0.0098  0.8946 -0.8376
   95CHL1    O3 9439   0.779   5.197   6.561  0.2616 -0.6778  0.5083
   95CHL1   H3' 9440   0.827   5.114   6.551  1.7765 -0.0747  2.0752
   95CHL1    C4 9441   0.878   5.290   6.756 -0.3740 -0.0386 -0.4871
   95CHL1   H4A 9442   0.981   5.255   6.733 -0.6418 -0.0562 -1.7334
   95CHL1   H4B 9443   0.853   5.389   6.714 -1.3978 -0.7830 -1.7338
   95CHL1    C5 9444   0.883   5.293   6.914  0.3125 -0.5435 -0.3621
   95CHL1    C6 9445   0.890   5.405   6.987 -0.7650  0.2731  0.2944
   95CHL1    H6 9446   0.876   5.500   6.932 -0.0576 -0.5900 -1.4272
   95CHL1    C7 9447   0.905   5.419   7.140 -0.0897  0.8627  0.9033
   95CHL1   H7A 9448   0.974   5.503   7.162 -1.0328  2.5151 -1.8950
   95CHL1   H7B 9449   0.806   5.452   7.179 -1.6800 -1.2530 -1.0304
   95CHL1    C8 9450   0.934   5.278   7.204  0.3178  0.0811 -0.4292
   95CHL1    H8 9451   1.045   5.276   7.195  0.2095 -0.1416 -2.0234
   95CHL1   C14 9452   0.899   5.284   7.347 -0.2657 -0.1520 -0.4972
   95CHL1   H14 9453   0.794   5.304   7.375 -0.2149 -0.6994  0.1124
   95CHL1   C15 9454   0.956   5.400   7.426 -0.4974  0.8453 -0.2411
   95CHL1  H15A 9455   1.064   5.413   7.406 -0.1896 -1.3920 -0.2539
   95CHL1  H15B 9456   0.901   5.497   7.417 -0.7662  1.0013  2.2988
   95CHL1   C16 9457   0.949   5.350   7.574 -0.0888  0.2940  0.0350
   95CHL1  H16A 9458   1.052   5.346   7.614 -0.3173 -3.3939  0.6273
   95CHL1  H16B 9459   0.887   5.408   7.646 -0.9981 -0.4084 -0.1614
   95CHL1   C17 9460   0.910   5.198   7.572 -0.4484  0.4421  0.0904
   95CHL1   H17 9461   0.800   5.187   7.584 -0.4479  0.4121  0.0668
   95CHL1   C13 9462   0.939   5.153   7.425  0.4016 -0.2787 -0.2129
   95CHL1   C18 9463   1.089   5.124   7.414  0.3578 -0.5474 -0.5628
   95CHL1  H18A 9464   1.111   5.132   7.306 -0.6490 -0.4885 -0.7654
   95CHL1  H18B 9465   1.155   5.185   7.480 -0.4219  0.6554 -0.8631
   95CHL1  H18C 9466   1.103   5.018   7.444 -0.2916 -0.4468  0.1060
   95CHL1   C12 9467   0.851   5.039   7.363  0.2781  0.1435 -0.0437
   95CHL1  H12A 9468   0.879   4.943   7.412  0.6370  0.8744  1.2456
   95CHL1  H12B 9469   0.742   5.056   7.377  0.3465 -1.2344  3.0452
   95CHL1   C11 9470   0.859   5.023   7.210  0.2875  0.2378  0.5729
   95CHL1  H11A 9471   0.961   4.982   7.194  0.4388  0.6750  0.3906
   95CHL1  H11B 9472   0.786   4.951   7.165  0.8585  0.4220 -0.6966
   95CHL1    C9 9473   0.860   5.159   7.136 -0.2174 -0.4704  0.1550
   95CHL1    H9 9474   0.754   5.190   7.147  0.1379  0.3295  1.6223
   95CHL1   C10 9475   0.879   5.155   6.981 -0.3874  0.2116  0.0995
   95CHL1   C19 9476   1.009   5.071   6.947  0.4550  0.0566  0.0693
   95CHL1  H19A 9477   1.027   5.054   6.839 -1.7630 -2.3375 -0.0332
   95CHL1  H19B 9478   1.090   5.137   6.986  0.2595 -1.1910  2.8061
   95CHL1  H19C 9479   1.004   4.970   6.993  1.2783 -0.5199 -1.0629
   95CHL1    C1 9480   0.750   5.091   6.924 -0.0153  0.2625 -0.0899
   95CHL1   H1A 9481   0.739   4.985   6.954  0.2228  0.2701  0.0233
   95CHL1   H1B 9482   0.664   5.151   6.962  0.0769  1.1183 -1.1686
   95CHL1    C2 9483   0.750   5.077   6.768  0.2108  0.6528 -0.2043
   95CHL1   H2A 9484   0.651   5.033   6.747  0.2224  0.3425  0.3768
   95CHL1   H2B 9485   0.832   5.007   6.743  1.2065  1.9850 -0.7770
   95CHL1   C20 9486   0.977   5.113   7.688 -0.4008  0.6102  0.3141
   95CHL1   H20 9487   1.087   5.127   7.677 -0.2528  1.7632  2.6341
   95CHL1   C21 9488   0.930   4.961   7.676 -0.6397 -0.7290 -0.0542
   95CHL1  H21A 9489   1.015   4.900   7.640 -0.3802 -1.0198  1.0018
   95CHL1  H21B 9490   0.833   4.954   7.621 -0.1579 -2.4181 -0.7341
   95CHL1  H21C 9491   0.909   4.926   7.779 -0.3824  2.5682  1.2329
   95CHL1   C22 9492   0.945   5.156   7.831 -0.2691 -0.4157 -0.6462
   95CHL1  H22A 9493   0.938   5.267   7.830  0.0738 -0.3861  0.0814
   95CHL1  H22B 9494   0.841   5.120   7.844  0.0602 -1.4875 -0.8679
   95CHL1   C23 9495   1.034   5.104   7.938  0.0162 -0.5167 -0.1493
   95CHL1  H23A 9496   1.074   5.003   7.919 -1.1842 -0.8959 -0.7544
   95CHL1  H23B 9497   1.111   5.183   7.927 -1.4349  1.2093  1.3500
   95CHL1   C24 9498   0.967   5.121   8.076 -0.1198  0.5810  0.5890
   95CHL1  H24A 9499   0.941   5.228   8.093  1.7457  1.2883 -0.6532
   95CHL1  H24B 9500   0.871   5.066   8.084  0.8453 -1.0377  1.7797
   95CHL1   C25 9501   1.059   5.077   8.187 -0.2834  0.8195 -0.7230
   95CHL1   H25 9502   1.102   4.980   8.155  0.9659  0.6926  1.1633
   95CHL1   C26 9503   1.187   5.163   8.208  0.4689 -0.4243  0.3045
   95CHL1  H26A 9504   1.165   5.271   8.221  2.5983  0.2425 -1.1134
   95CHL1  H26B 9505   1.254   5.125   8.288  0.5573  0.0573  0.4618
   95CHL1  H26C 9506   1.243   5.160   8.113  1.5228 -1.6681  0.9441
   95CHL1   C27 9507   0.984   5.059   8.321 -0.5449  0.5203 -0.5654
   95CHL1  H27A 9508   0.922   4.967   8.318 -0.2384  0.2640  0.5849
   95CHL1  H27B 9509   1.059   5.039   8.400  0.5007  2.3635 -1.0154
   95CHL1  H27C 9510   0.936   5.149   8.365 -0.7843 -0.5558  1.5200
   96CHL1    C3 9511   0.581   0.348   6.662  0.3273  0.2951 -0.2340
   96CHL1    H3 9512   0.648   0.436   6.656 -0.0492  0.7366  1.4823
   96CHL1    O3 9513   0.579   0.293   6.530 -0.5249  0.3454 -0.6229
   96CHL1   H3' 9514   0.628   0.211   6.542  0.2957  1.2632  3.5470
   96CHL1    C4 9515   0.633   0.243   6.759 -0.2699 -0.0517  0.4176
   96CHL1   H4A 9516   0.569   0.152   6.758 -0.4191  0.0375  1.1284
   96CHL1   H4B 9517   0.735   0.211   6.728  0.4452  1.5132  1.0656
   96CHL1    C5 9518   0.623   0.297   6.900 -0.4863  0.1145 -0.3794
   96CHL1    C6 9519   0.734   0.299   6.979 -0.6617  0.3944  0.0667
   96CHL1    H6 9520   0.828   0.255   6.943 -0.1288  1.9951 -0.5960
   96CHL1    C7 9521   0.736   0.334   7.119  0.2068  0.3539 -0.3988
   96CHL1   H7A 9522   0.787   0.254   7.176  0.4456 -1.0269 -2.4573
   96CHL1   H7B 9523   0.789   0.430   7.137  0.6065  0.0874 -0.1456
   96CHL1    C8 9524   0.591   0.345   7.184  0.6618 -0.1844  0.2949
   96CHL1    H8 9525   0.549   0.243   7.200 -0.0475  0.2120  1.0812
   96CHL1   C14 9526   0.589   0.419   7.318 -0.6966  0.0065  0.4140
   96CHL1   H14 9527   0.619   0.523   7.289 -3.6229  1.0182  0.6926
   96CHL1   C15 9528   0.691   0.382   7.433 -0.2246  0.1467 -0.5004
   96CHL1  H15A 9529   0.679   0.272   7.436  0.7340  0.0434  0.1422
   96CHL1  H15B 9530   0.793   0.414   7.404 -0.4094 -0.1760 -1.5337
   96CHL1   C16 9531   0.624   0.431   7.562  0.0014  0.0082 -0.2150
   96CHL1  H16A 9532   0.602   0.350   7.634 -2.0220 -1.2857 -2.1950
   96CHL1  H16B 9533   0.693   0.507   7.607 -0.9324  0.9388 -0.3116
   96CHL1   C17 9534   0.493   0.503   7.521 -0.3279  0.1661  0.6831
   96CHL1   H17 9535   0.520   0.609   7.500  1.1058 -0.2775  0.1216
   96CHL1   C13 9536   0.457   0.433   7.387  0.8201  0.1376 -0.2767
   96CHL1   C18 9537   0.392   0.296   7.413  0.3419  0.5017 -0.2307
   96CHL1  H18A 9538   0.401   0.229   7.325 -1.2782  0.1228 -0.1376
   96CHL1  H18B 9539   0.441   0.244   7.499 -2.0130  1.9300  2.1350
   96CHL1  H18C 9540   0.285   0.306   7.440  0.6216  1.9260  0.4299
   96CHL1   C12 9541   0.369   0.517   7.296  0.2125 -0.7541  0.2074
   96CHL1  H12A 9542   0.265   0.523   7.334 -0.5960 -1.7405 -1.7192
   96CHL1  H12B 9543   0.415   0.617   7.310  1.2159 -1.4425  2.4195
   96CHL1   C11 9544   0.358   0.464   7.154  0.1395  0.3313  0.4889
   96CHL1  H11A 9545   0.287   0.379   7.160  1.8067 -1.0118  3.0617
   96CHL1  H11B 9546   0.311   0.544   7.094  1.1384 -0.4363 -1.3909
   96CHL1    C9 9547   0.494   0.417   7.087  0.2727  0.0268 -0.4303
   96CHL1    H9 9548   0.541   0.516   7.067  3.0686  0.1412  4.8081
   96CHL1   C10 9549   0.483   0.341   6.949  0.8385 -0.1625 -0.4730
   96CHL1   C19 9550   0.391   0.223   6.964  0.7230 -0.4683 -0.1907
   96CHL1  H19A 9551   0.287   0.253   6.937  0.5416 -0.9431 -0.0399
   96CHL1  H19B 9552   0.411   0.133   6.901 -1.5005 -2.0392  1.1706
   96CHL1  H19C 9553   0.384   0.187   7.070 -0.9596  0.1103 -0.0739
   96CHL1    C1 9554   0.438   0.444   6.841  0.5514 -0.5871  0.5101
   96CHL1   H1A 9555   0.333   0.469   6.869 -0.0128 -1.7908 -0.4255
   96CHL1   H1B 9556   0.496   0.538   6.840  1.6915 -1.2782 -0.9368
   96CHL1    C2 9557   0.447   0.392   6.696  0.1818 -0.3210  0.1336
   96CHL1   H2A 9558   0.403   0.462   6.622 -0.6258  0.9724  1.7820
   96CHL1   H2B 9559   0.392   0.296   6.690  1.7883 -1.2124 -1.1635
   96CHL1   C20 9560   0.397   0.497   7.637  0.2091  0.2262  0.5185
   96CHL1   H20 9561   0.364   0.392   7.651 -1.0877  0.6523  0.7723
   96CHL1   C21 9562   0.268   0.583   7.606 -0.2686  0.4415  0.1573
   96CHL1  H21A 9563   0.201   0.529   7.536 -1.8410 -2.1523  3.3904
   96CHL1  H21B 9564   0.290   0.688   7.577  0.5823  0.9873  2.5736
   96CHL1  H21C 9565   0.201   0.591   7.694 -0.5614  0.1486 -0.0366
   96CHL1   C22 9566   0.452   0.548   7.770  0.1669 -0.2866  0.2271
   96CHL1  H22A 9567   0.560   0.530   7.789 -0.1409 -1.1231  1.3385
   96CHL1  H22B 9568   0.422   0.652   7.795 -0.9845 -1.6870  6.3802
   96CHL1   C23 9569   0.375   0.473   7.883 -0.4110 -0.0754  0.6343
   96CHL1  H23A 9570   0.269   0.480   7.852  0.3945  1.1745 -2.2309
   96CHL1  H23B 9571   0.407   0.367   7.870  1.4417  0.3326  1.4521
   96CHL1   C24 9572   0.397   0.523   8.023 -0.3954  0.0386  0.3146
   96CHL1  H24A 9573   0.336   0.615   8.031 -1.5030 -0.5357 -1.0509
   96CHL1  H24B 9574   0.349   0.462   8.103  0.1191 -0.6567  0.1043
   96CHL1   C25 9575   0.543   0.550   8.065 -0.4941  0.0454 -0.7348
   96CHL1   H25 9576   0.600   0.594   7.980  0.1485  3.0714  1.1180
   96CHL1   C26 9577   0.547   0.643   8.184  0.8677  0.2989 -0.5876
   96CHL1  H26A 9578   0.486   0.734   8.166  0.3491  0.4213  1.4917
   96CHL1  H26B 9579   0.493   0.596   8.269  0.2593  1.0182 -0.5670
   96CHL1  H26C 9580   0.649   0.663   8.223  1.1612 -0.5665 -0.8634
   96CHL1   C27 9581   0.607   0.424   8.104 -0.1460  0.8611 -0.0155
   96CHL1  H27A 9582   0.707   0.460   8.136 -0.2431  2.7767 -1.6837
   96CHL1  H27B 9583   0.547   0.369   8.180 -1.2354  1.4070 -0.4572
   96CHL1  H27C 9584   0.612   0.352   8.019  1.0488 -1.1173  1.6286
   97OSM      N 9585   3.601   0.779  11.173  0.0662  0.4588 -0.6664
   97OSM    C15 9586   3.542   0.647  11.132 -0.3015 -0.2519 -0.0612
   97OSM   H15A 9587   3.622   0.586  11.094  1.6777  1.5426  0.9771
   97OSM   H15B 9588   3.456   0.648  11.067  0.1301  1.2408 -0.6553
   97OSM   H15C 9589   3.506   0.589  11.216  0.5645 -1.8269 -0.7371
   97OSM    C14 9590   3.492   0.850  11.242 -0.2040  0.5360  0.1928
   97OSM   H14A 9591   3.470   0.819  11.343 -0.8568  0.4173  0.0204
   97OSM   H14B 9592   3.405   0.845  11.178  1.4383  0.4148 -2.1532
   97OSM   H14C 9593   3.527   0.952  11.252  2.0213 -0.2603  1.0864
   97OSM    C13 9594   3.707   0.758  11.276 -0.2433 -0.5347  0.1541
   97OSM   H13A 9595   3.665   0.721  11.368 -3.0076  0.0660 -0.7609
   97OSM   H13B 9596   3.740   0.860  11.290 -1.4111  0.2148 -2.0488
   97OSM   H13C 9597   3.781   0.690  11.237  1.0817  1.4550 -0.9713
   97OSM    C12 9598   3.668   0.848  11.055 -0.4417  0.4784  0.7106
   97OSM   H12A 9599   3.722   0.937  11.081  0.7645 -0.2524  0.8025
   97OSM   H12B 9600   3.584   0.877  10.994  0.3436  1.4248  0.0551
   97OSM    C11 9601   3.770   0.755  10.973 -0.2101 -0.2098 -0.5123
   97OSM   H11A 9602   3.812   0.827  10.899  0.8435  1.7745  1.8881
   97OSM   H11B 9603   3.707   0.673  10.932 -0.5313  0.2983 -1.0543
   97OSM      P 9604   3.942   0.571  11.044  0.0504  0.0479  0.2616
   97OSM    O13 9605   4.076   0.576  11.096  0.5820 -0.2395  0.1416
   97OSM    O14 9606   3.840   0.479  11.091 -0.4134  1.3432 -0.0459
   97OSM    O11 9607   3.949   0.535  10.891 -0.1884 -0.0967 -0.4550
   97OSM    O12 9608   3.877   0.709  11.053 -0.2221 -0.0955 -0.1568
   97OSM    C1S 9609   4.024   0.621  10.805  0.1644  0.6674 -0.2277
   97OSM    H1S 9610   4.131   0.595  10.818 -0.1565 -0.7897 -0.3362
   97OSM    H1T 9611   4.001   0.729  10.818 -0.0611  0.8549 -1.9632
   97OSM     NF 9612   4.072   0.655  10.570 -0.4225 -0.0714  0.7653
   97OSM    HNF 9613   4.024   0.737  10.541 -1.4105 -0.4169  1.3850
   97OSM    C2S 9614   3.989   0.579  10.661  0.0594  0.8710  0.3046
   97OSM    H2S 9615   4.010   0.472  10.641  0.9288  0.6589  2.1192
   97OSM    C3S 9616   3.833   0.597  10.639 -0.9091 -0.5537 -0.2638
   97OSM    H3S 9617   3.824   0.697  10.687  2.7066 -0.8804  1.4472
   97OSM     O3 9618   3.738   0.511  10.703 -0.0818  0.8547 -0.0970
   97OSM    HO3 9619   3.784   0.485  10.784 -2.5849  1.2581  1.5821
   97OSM    C4S 9620   3.818   0.602  10.491  0.2587  0.4790 -0.5453
   97OSM    H4S 9621   3.834   0.704  10.451  0.9241  0.9973  0.9553
   97OSM    C5S 9622   3.807   0.498  10.413 -0.0326  0.8228  0.2529
   97OSM    H5S 9623   3.806   0.396  10.456  0.9402  0.2977 -0.8866
   97OSM    C6S 9624   3.795   0.490  10.262  0.5887  0.0381 -0.2628
   97OSM    H6S 9625   3.714   0.417  10.238 -0.1221 -0.1451  2.3561
   97OSM    H6T 9626   3.888   0.447  10.220  0.0735  0.5559 -2.0003
   97OSM    C7S 9627   3.753   0.621  10.194  0.1610  0.3341  0.3081
   97OSM    H7S 9628   3.834   0.696  10.207 -1.0612  2.0710 -1.5316
   97OSM    H7T 9629   3.662   0.663  10.241 -0.0967 -0.4424  0.5123
   97OSM    C8S 9630   3.732   0.589  10.046 -0.1993  0.5204  0.7012
   97OSM    H8S 9631   3.655   0.512  10.027 -2.3009  2.4557  0.9675
   97OSM    H8T 9632   3.829   0.545  10.015  1.3205  1.9867  3.0893
   97OSM    C9S 9633   3.709   0.714   9.951 -0.4933  0.0163  0.3398
   97OSM    H9S 9634   3.791   0.789   9.950 -0.4917  0.1356  2.7556
   97OSM    H9T 9635   3.627   0.770   9.999 -0.0988  0.3285  0.6582
   97OSM   C10S 9636   3.684   0.667   9.804 -0.0795 -0.1690  0.0955
   97OSM   H10S 9637   3.596   0.600   9.811  1.0536 -1.9142 -1.4090
   97OSM   H10T 9638   3.770   0.611   9.762 -0.8151 -0.6608 -0.8211
   97OSM   C11S 9639   3.649   0.781   9.708 -0.3878 -0.0966 -0.2063
   97OSM   H11S 9640   3.746   0.832   9.691  0.3705 -0.8625  1.6140
   97OSM   H11T 9641   3.569   0.840   9.758  0.8633  0.3793  1.3333
   97OSM   C12S 9642   3.600   0.718   9.579  0.0195 -0.7138  0.3917
   97OSM   H12S 9643   3.520   0.647   9.610  0.3572 -1.5569 -0.6222
   97OSM   H12T 9644   3.683   0.664   9.529  2.2481  1.3932  1.6213
   97OSM   C13S 9645   3.547   0.823   9.475  0.4225 -0.2139  0.2179
   97OSM   H13S 9646   3.618   0.909   9.474 -0.3674  0.4734  1.1804
   97OSM   H13T 9647   3.451   0.862   9.515  0.8837  0.9394  0.2440
   97OSM   C14S 9648   3.531   0.760   9.329 -0.6678  0.6590 -0.1645
   97OSM   H14S 9649   3.449   0.686   9.326 -0.9900  1.0085 -0.1199
   97OSM   H14T 9650   3.621   0.713   9.285 -0.9417  1.9185 -2.2058
   97OSM   C15S 9651   3.497   0.858   9.218  0.4860 -0.4265  1.0907
   97OSM   H15S 9652   3.397   0.903   9.233 -0.8246 -1.7524 -2.5049
   97OSM   H15T 9653   3.498   0.800   9.123  2.6045  1.5556 -0.1987
   97OSM   C16S 9654   3.598   0.971   9.183 -0.0685  0.1413  0.3144
   97OSM   H16S 9655   3.698   0.924   9.170  0.7318  2.0054 -0.7175
   97OSM   H16T 9656   3.619   1.046   9.263  0.9160 -1.3071  1.4701
   97OSM   C17S 9657   3.560   1.038   9.056 -1.1700  0.9790 -0.3193
   97OSM   H17S 9658   3.485   1.119   9.067  0.6228  2.4743  2.1240
   97OSM   H17T 9659   3.522   0.960   8.986  0.5975 -0.1648 -0.0720
   97OSM   C18S 9660   3.680   1.103   8.978  0.8796 -0.0682 -1.1157
   97OSM   H18S 9661   3.689   1.208   9.014  1.3476 -0.6337  0.4836
   97OSM   H18T 9662   3.656   1.089   8.871 -0.6185 -2.0567 -0.5822
   97OSM   H18U 9663   3.775   1.051   9.002  0.5277 -0.7470 -1.1824
   97OSM    C1F 9664   4.205   0.629  10.552 -0.5135 -0.8531  0.1055
   97OSM     OF 9665   4.258   0.528  10.597  0.2573 -0.1326  0.7190
   97OSM    C2F 9666   4.286   0.726  10.474  0.2687  0.4370 -0.6233
   97OSM    H2F 9667   4.393   0.731  10.503 -0.1443  2.1662  0.7722
   97OSM    H2G 9668   4.255   0.833  10.473  0.3124  0.4990  1.5514
   97OSM    C3F 9669   4.269   0.677  10.333  0.3568  0.5771 -0.5414
   97OSM    H3F 9670   4.161   0.693  10.313 -0.1251 -1.0480  0.5407
   97OSM    H3G 9671   4.289   0.568  10.326 -0.2408  0.1793  2.5388
   97OSM    C4F 9672   4.359   0.755  10.234 -0.3605 -0.4267 -0.4194
   97OSM    H4F 9673   4.464   0.738  10.264 -0.7057 -3.2243 -0.4503
   97OSM    H4G 9674   4.346   0.863  10.253 -1.1114 -0.7288  0.8825
   97OSM    C5F 9675   4.342   0.721  10.083 -0.1217 -0.0988  0.4416
   97OSM    H5F 9676   4.321   0.613  10.070 -2.0291  0.3084 -0.1684
   97OSM    H5G 9677   4.433   0.754  10.027 -0.4205  3.4230  1.7475
   97OSM    C6F 9678   4.220   0.805  10.029 -0.3011 -0.6907  0.5039
   97OSM    H6F 9679   4.258   0.909  10.017  0.7947 -1.2312 -1.1148
   97OSM    H6G 9680   4.136   0.810  10.102 -0.4251  1.6938  0.3015
   97OSM    C7F 9681   4.158   0.762   9.896  0.3703  0.4101  0.6664
   97OSM    H7F 9682   4.120   0.658   9.910  0.1644  0.3491 -0.3277
   97OSM    H7G 9683   4.223   0.757   9.806 -0.0681 -0.3968  0.3906
   97OSM    C8F 9684   4.036   0.848   9.855  0.0386 -0.1963 -0.2933
   97OSM    H8F 9685   3.974   0.874   9.943  1.5070  0.4416  0.5987
   97OSM    H8G 9686   3.984   0.778   9.786  0.0844 -0.2303 -0.2934
   97OSM    C9F 9687   4.060   0.973   9.773  0.5392  0.3247 -0.5692
   97OSM    H9F 9688   4.127   1.045   9.822  0.6435  0.5773 -1.0799
   97OSM   C10F 9689   4.030   0.987   9.645 -0.7100  0.2493  0.6476
   97OSM   H10F 9690   4.049   1.086   9.600  0.3344 -0.0718  0.3785
   97OSM   C11F 9691   3.952   0.895   9.547 -0.8116 -0.1478  0.2621
   97OSM   H11F 9692   3.851   0.938   9.528  0.0265  1.1524 -1.5508
   97OSM   H11G 9693   3.940   0.792   9.587  0.3056 -1.5583 -2.7646
   97OSM   C12F 9694   4.040   0.879   9.417  0.2916  0.0788  0.0921
   97OSM   H12F 9695   4.131   0.821   9.445  1.0287 -0.0114 -2.3057
   97OSM   H12G 9696   4.068   0.979   9.377  0.2032 -0.4943 -1.4412
   97OSM   C13F 9697   3.976   0.806   9.301  0.7067 -0.7763  0.3987
   97OSM   H13F 9698   3.888   0.867   9.272  0.3814 -0.9282  1.0223
   97OSM   H13G 9699   3.941   0.705   9.333  2.0607 -0.7338  2.1823
   97OSM   C14F 9700   4.070   0.796   9.173  0.5598 -0.2129  0.3711
   97OSM   H14F 9701   4.041   0.705   9.116  1.3505 -0.8401  0.9259
   97OSM   H14G 9702   4.173   0.769   9.206 -0.1719 -1.2793  1.9503
   97OSM   C15F 9703   4.078   0.917   9.076 -0.1625 -0.4569  0.4208
   97OSM   H15F 9704   4.125   0.996   9.137  0.0594 -1.1162  1.1220
   97OSM   H15G 9705   3.978   0.958   9.052  0.3057 -0.7957 -2.3824
   97OSM   C16F 9706   4.164   0.893   8.948  0.8461  0.4698  0.7727
   97OSM   H16F 9707   4.266   0.857   8.974  0.5670 -0.1097  1.1060
   97OSM   H16G 9708   4.173   0.990   8.894 -1.5720  1.6109  2.2424
   97OSM   C17F 9709   4.114   0.788   8.851 -0.3010  0.4658 -0.8867
   97OSM   H17F 9710   4.010   0.811   8.819  0.0994  0.4709 -2.2358
   97OSM   H17G 9711   4.097   0.695   8.911 -3.6018  1.5723  0.1195
   97OSM   C18F 9712   4.201   0.763   8.728 -0.2719  0.2584 -0.3182
   97OSM   H18F 9713   4.142   0.730   8.640  0.3791  1.1639 -1.1127
   97OSM   H18G 9714   4.282   0.688   8.739  0.3557  0.9063 -0.4625
   97OSM   H18H 9715   4.251   0.861   8.713  2.3139 -0.7292  1.2990
   98OSM      N 9716   3.049   1.259  11.062 -0.2144 -0.1285  0.2883
   98OSM    C15 9717   2.927   1.321  11.128  0.3271  0.8484  0.2292
   98OSM   H15A 9718   2.959   1.339  11.229 -1.1873 -0.3689  0.9585
   98OSM   H15B 9719   2.851   1.245  11.125  1.6663 -0.5254 -0.8880
   98OSM   H15C 9720   2.897   1.410  11.075  1.7054 -0.0779 -2.3303
   98OSM    C14 9721   3.012   1.243  10.912  0.1911 -0.0751  0.0099
   98OSM   H14A 9722   2.947   1.325  10.888  0.5644  0.3608  0.4414
   98OSM   H14B 9723   2.959   1.150  10.899  0.0677 -0.1782  1.1454
   98OSM   H14C 9724   3.102   1.232  10.853  0.2750  0.9610 -0.0780
   98OSM    C13 9725   3.169   1.352  11.074  0.5767 -0.5485 -0.6083
   98OSM   H13A 9726   3.260   1.306  11.039  1.1483 -0.7272  1.0441
   98OSM   H13B 9727   3.198   1.391  11.171 -0.6494 -1.1398  0.0183
   98OSM   H13C 9728   3.157   1.441  11.014  1.7880  0.3425  0.4059
   98OSM    C12 9729   3.084   1.129  11.131  0.4483 -0.8703 -0.2476
   98OSM   H12A 9730   2.995   1.070  11.149  1.3402 -1.6972  1.8603
   98OSM   H12B 9731   3.107   1.149  11.235 -0.6959  0.5182 -0.2312
   98OSM    C11 9732   3.184   1.032  11.072  0.3350  0.4664  0.3180
   98OSM   H11A 9733   3.141   0.983  10.982 -2.4066 -2.8501  3.1017
   98OSM   H11B 9734   3.183   0.941  11.137 -1.4975  2.8781  4.0315
   98OSM      P 9735   3.391   1.107  10.919 -0.5891 -0.0947 -0.0599
   98OSM    O13 9736   3.284   1.131  10.820  0.4412 -0.1093  0.0665
   98OSM    O14 9737   3.481   1.228  10.929  0.1493  0.3356  0.8826
   98OSM    O11 9738   3.465   0.971  10.882  0.1001 -0.1660 -0.0428
   98OSM    O12 9739   3.315   1.087  11.061  0.2468  0.3099  0.1087
   98OSM    C1S 9740   3.395   0.879  10.800  0.0483  0.0606 -0.0128
   98OSM    H1S 9741   3.288   0.864  10.825 -0.1182  1.9101  0.5147
   98OSM    H1T 9742   3.438   0.777  10.814  0.7997  0.4574  0.6815
   98OSM     NF 9743   3.321   0.800  10.573 -0.5222  0.2873  0.2464
   98OSM    HNF 9744   3.370   0.731  10.520 -1.1224 -2.4208  2.9852
   98OSM    C2S 9745   3.403   0.893  10.648 -0.3204  0.3086  0.5213
   98OSM    H2S 9746   3.372   0.994  10.613 -1.7408 -0.5027 -0.6338
   98OSM    C3S 9747   3.554   0.876  10.603 -0.2244 -0.0138 -0.1658
   98OSM    H3S 9748   3.583   0.770  10.619  1.2248  0.6615  2.2221
   98OSM     O3 9749   3.642   0.962  10.670 -0.1843  0.3859 -0.0858
   98OSM    HO3 9750   3.594   0.991  10.748 -0.1446  0.3252 -0.0382
   98OSM    C4S 9751   3.565   0.876  10.453  0.6335 -0.2182  0.3400
   98OSM    H4S 9752   3.566   0.776  10.406 -0.5621 -0.5753  1.0319
   98OSM    C5S 9753   3.572   0.974  10.365 -0.4802  0.1673  0.1837
   98OSM    H5S 9754   3.587   1.074  10.409  0.9062  1.3614 -2.7011
   98OSM    C6S 9755   3.583   0.958  10.215  0.2283 -0.2891 -0.7850
   98OSM    H6S 9756   3.583   0.856  10.171  2.5691 -0.5449 -0.3264
   98OSM    H6T 9757   3.670   1.005  10.164 -1.1699  0.5061 -2.5752
   98OSM    C7S 9758   3.459   1.030  10.166 -0.1504  0.0671  0.4971
   98OSM    H7S 9759   3.473   1.139  10.174 -0.0700 -0.0911  4.2828
   98OSM    H7T 9760   3.370   0.997  10.224  1.5887 -0.9018  2.7603
   98OSM    C8S 9761   3.440   0.997  10.017  0.1050 -0.3131  0.2214
   98OSM    H8S 9762   3.375   0.909   9.997 -0.6558  0.4087 -0.5771
   98OSM    H8T 9763   3.535   0.973   9.967 -1.4757 -0.9087 -2.7328
   98OSM    C9S 9764   3.363   1.111   9.944  0.1404  0.0889 -0.8062
   98OSM    H9S 9765   3.411   1.212   9.947  1.6253 -0.5516  3.7470
   98OSM    H9T 9766   3.266   1.128   9.995 -0.5006 -1.0389 -1.6064
   98OSM   C10S 9767   3.334   1.073   9.798  0.3069 -0.1608 -0.0957
   98OSM   H10S 9768   3.273   0.981   9.781  0.7768 -0.1543 -2.0663
   98OSM   H10T 9769   3.428   1.042   9.748  0.0584  3.2224 -3.1115
   98OSM   C11S 9770   3.269   1.199   9.731 -0.4985  1.0442 -0.4427
   98OSM   H11S 9771   3.341   1.284   9.725  3.1693 -1.8361 -1.3593
   98OSM   H11T 9772   3.176   1.239   9.775 -0.7534  0.4548 -0.4422
   98OSM   C12S 9773   3.234   1.171   9.584  0.1476 -0.4983 -0.1064
   98OSM   H12S 9774   3.171   1.258   9.555 -0.0978 -0.2859  0.9868
   98OSM   H12T 9775   3.162   1.086   9.583  0.5401 -1.0081  3.2155
   98OSM   C13S 9776   3.355   1.154   9.486 -0.0912  0.0522 -0.1790
   98OSM   H13S 9777   3.360   1.050   9.450  0.4790 -0.2224  0.6788
   98OSM   H13T 9778   3.447   1.171   9.545 -0.2976  0.5237  0.0177
   98OSM   C14S 9779   3.357   1.256   9.377 -0.1676 -0.7006  0.0597
   98OSM   H14S 9780   3.457   1.236   9.334  0.8811  3.5866  0.0435
   98OSM   H14T 9781   3.371   1.358   9.418  0.1362 -0.4448 -0.6604
   98OSM   C15S 9782   3.252   1.248   9.275  1.0720 -0.1911  0.2911
   98OSM   H15S 9783   3.150   1.273   9.311  1.4367 -0.3965  1.5251
   98OSM   H15T 9784   3.251   1.140   9.247 -0.6455 -0.3709  0.8804
   98OSM   C16S 9785   3.292   1.325   9.150  0.1982 -0.6688 -0.2737
   98OSM   H16S 9786   3.395   1.296   9.121  1.5898  0.2466  3.2362
   98OSM   H16T 9787   3.296   1.434   9.174  0.1099 -0.8182  0.4343
   98OSM   C17S 9788   3.202   1.301   9.029  0.2650 -0.4991 -0.1303
   98OSM   H17S 9789   3.196   1.191   9.020  0.5675 -0.4326 -1.1800
   98OSM   H17T 9790   3.242   1.353   8.940 -1.8037  1.3137 -0.1126
   98OSM   C18S 9791   3.063   1.366   9.044 -0.2596  0.6547  0.2547
   98OSM   H18S 9792   3.005   1.335   8.955  3.9989 -0.3005 -2.4659
   98OSM   H18T 9793   3.086   1.474   9.052 -1.6871  1.0359 -0.4360
   98OSM   H18U 9794   3.020   1.320   9.136 -0.5212 -0.2251 -0.2960
   98OSM    C1F 9795   3.189   0.799  10.566  0.4448 -0.3220  0.7162
   98OSM     OF 9796   3.124   0.895  10.604  0.2457  0.6102 -0.2529
   98OSM    C2F 9797   3.118   0.677  10.502  1.0653 -0.0491  0.0874
   98OSM    H2F 9798   3.165   0.588  10.548  0.3069 -1.1738 -1.2603
   98OSM    H2G 9799   3.125   0.674  10.391  0.8702 -2.0461  0.0940
   98OSM    C3F 9800   2.973   0.682  10.538 -0.2459 -0.2077  0.2517
   98OSM    H3F 9801   2.927   0.777  10.504 -0.1210 -0.2807 -0.1247
   98OSM    H3G 9802   2.967   0.685  10.649 -2.2118  0.7675  0.1527
   98OSM    C4F 9803   2.899   0.560  10.479  0.8095 -0.1737 -0.6336
   98OSM    H4F 9804   2.811   0.532  10.539  0.9397 -1.0026 -0.8260
   98OSM    H4G 9805   2.959   0.467  10.478 -0.3495 -0.9654  0.8524
   98OSM    C5F 9806   2.847   0.586  10.333  0.3927 -0.2304 -0.5077
   98OSM    H5F 9807   2.930   0.629  10.274 -2.0139  1.7141 -2.7307
   98OSM    H5G 9808   2.770   0.666  10.340  1.0917  0.5002 -1.0798
   98OSM    C6F 9809   2.809   0.457  10.256  0.0345 -0.5128 -0.4230
   98OSM    H6F 9810   2.712   0.419  10.295 -0.2663 -0.7373 -1.3626
   98OSM    H6G 9811   2.887   0.385  10.288 -0.5075 -0.5937  0.7912
   98OSM    C7F 9812   2.812   0.462  10.102  0.2688  0.1672 -0.6840
   98OSM    H7F 9813   2.780   0.367  10.055 -0.8134 -0.7181  1.6951
   98OSM    H7G 9814   2.914   0.482  10.063  0.4628 -0.8127 -0.6829
   98OSM    C8F 9815   2.705   0.551  10.044  0.5917 -0.1197  0.3764
   98OSM    H8F 9816   2.634   0.576  10.126  0.7675  1.9270 -0.0365
   98OSM    H8G 9817   2.653   0.495   9.964 -0.7416  1.6249 -0.0497
   98OSM    C9F 9818   2.760   0.685   9.995 -0.9118 -0.3882  0.6048
   98OSM    H9F 9819   2.789   0.756  10.074 -1.5390  0.7620 -0.1754
   98OSM   C10F 9820   2.781   0.715   9.868 -0.3868  0.0179 -0.3165
   98OSM   H10F 9821   2.834   0.810   9.849 -0.3732  0.7819  2.9473
   98OSM   C11F 9822   2.749   0.622   9.755  0.0839 -0.6466 -0.4966
   98OSM   H11F 9823   2.683   0.537   9.781 -1.1539  0.4330 -0.0092
   98OSM   H11G 9824   2.850   0.580   9.733  0.4073  0.3080 -0.8703
   98OSM   C12F 9825   2.679   0.684   9.638  0.1578 -0.4011 -0.1943
   98OSM   H12F 9826   2.745   0.765   9.602 -0.6310  1.0249  1.4385
   98OSM   H12G 9827   2.589   0.738   9.673  0.8525 -0.1041  1.2322
   98OSM   C13F 9828   2.640   0.579   9.527  0.3759 -0.2096 -0.4418
   98OSM   H13F 9829   2.561   0.516   9.572  1.0108 -0.4375  0.3823
   98OSM   H13G 9830   2.726   0.512   9.506  0.9219 -0.0893  1.3051
   98OSM   C14F 9831   2.584   0.650   9.403  0.1003  0.6500  0.9143
   98OSM   H14F 9832   2.654   0.725   9.360 -0.6730  0.1950 -1.3338
   98OSM   H14G 9833   2.488   0.706   9.417 -1.2916 -0.7128 -2.1193
   98OSM   C15F 9834   2.553   0.538   9.303 -0.3965 -0.5240 -0.0685
   98OSM   H15F 9835   2.490   0.452   9.336 -1.0137  1.0980  3.3399
   98OSM   H15G 9836   2.650   0.490   9.278 -0.3243  0.5974 -2.1326
   98OSM   C16F 9837   2.482   0.590   9.168 -0.6192  0.0493  0.5242
   98OSM   H16F 9838   2.381   0.628   9.194 -0.5614  0.2240  0.4959
   98OSM   H16G 9839   2.469   0.505   9.099  1.1825  0.7490 -0.7648
   98OSM   C17F 9840   2.570   0.689   9.093 -0.7554 -0.3928  0.0614
   98OSM   H17F 9841   2.586   0.666   8.986 -2.2095  0.9579 -0.4807
   98OSM   H17G 9842   2.662   0.707   9.154 -2.8752  3.3401  2.5195
   98OSM   C18F 9843   2.520   0.833   9.089  0.1386  0.0250  1.0123
   98OSM   H18F 9844   2.590   0.897   9.032 -1.6286  1.4271  0.3157
   98OSM   H18G 9845   2.515   0.876   9.191 -2.7540  1.6490  0.3125
   98OSM   H18H 9846   2.422   0.834   9.037  1.0287 -1.8235 -0.8638
   99OSM      N 9847   4.586   3.573  10.851 -0.1819 -0.1025 -0.4242
   99OSM    C15 9848   4.696   3.512  10.939 -0.0912  0.3863  0.0386
   99OSM   H15A 9849   4.674   3.453  11.027  1.7700 -1.3336 -0.5755
   99OSM   H15B 9850   4.759   3.587  10.985  1.1172 -0.2750 -0.5141
   99OSM   H15C 9851   4.765   3.455  10.879 -0.0548  2.3919 -1.9580
   99OSM    C14 9852   4.487   3.637  10.952  0.3290  0.4554  0.0268
   99OSM   H14A 9853   4.405   3.674  10.892  0.4934 -0.1695 -0.5936
   99OSM   H14B 9854   4.526   3.723  11.003 -1.6426  0.5864  1.4326
   99OSM   H14C 9855   4.451   3.568  11.028 -1.5026  2.1354  0.7701
   99OSM    C13 9856   4.647   3.684  10.763 -0.2623 -0.8380 -0.6035
   99OSM   H13A 9857   4.730   3.643  10.707  0.3228 -3.3088  1.8410
   99OSM   H13B 9858   4.696   3.756  10.825 -1.2137 -1.7534  1.2884
   99OSM   H13C 9859   4.575   3.735  10.701 -0.2170 -0.4447 -0.3306
   99OSM    C12 9860   4.522   3.463  10.767  0.2132 -0.3513 -0.7995
   99OSM   H12A 9861   4.430   3.499  10.723  0.1726 -0.5397 -0.8680
   99OSM   H12B 9862   4.484   3.380  10.825  0.6047 -1.4112 -2.0023
   99OSM    C11 9863   4.608   3.394  10.654 -0.3014  0.4522  0.3125
   99OSM   H11A 9864   4.639   3.482  10.594 -0.2258  1.3787  1.6603
   99OSM   H11B 9865   4.561   3.338  10.570 -1.5530  1.0478  0.5836
   99OSM      P 9866   4.722   3.198  10.778 -0.0340  0.1987 -0.2868
   99OSM    O13 9867   4.843   3.187  10.859 -0.5468  0.6632 -0.0343
   99OSM    O14 9868   4.592   3.184  10.849  0.0625  0.3092 -0.4289
   99OSM    O11 9869   4.736   3.099  10.664 -0.1405 -0.6866  0.0430
   99OSM    O12 9870   4.729   3.338  10.705 -0.3428  0.1999  0.4130
   99OSM    C1S 9871   4.769   3.131  10.525 -0.6794  0.5655  0.4123
   99OSM    H1S 9872   4.772   3.236  10.490  4.3087  1.6390  2.9641
   99OSM    H1T 9873   4.689   3.074  10.473  0.2758 -2.4345  1.9394
   99OSM     NF 9874   4.945   3.133  10.342 -0.9755  0.6012 -0.0069
   99OSM    HNF 9875   4.958   3.064  10.271 -1.8496 -1.1253  1.4392
   99OSM    C2S 9876   4.910   3.070  10.476 -0.4172  0.0814 -0.0995
   99OSM    H2S 9877   4.989   3.107  10.545 -0.9808 -0.2170  0.7084
   99OSM    C3S 9878   4.916   2.916  10.473  0.4377  0.6590 -0.8567
   99OSM    H3S 9879   4.853   2.869  10.395 -3.3293  1.7155  1.3158
   99OSM     O3 9880   4.866   2.861  10.594  0.1750 -0.6752 -0.3893
   99OSM    HO3 9881   4.818   2.929  10.640 -0.1220 -2.2107  1.6812
   99OSM    C4S 9882   5.054   2.873  10.446  0.1946 -0.1871 -0.2872
   99OSM    H4S 9883   5.131   2.905  10.518 -0.1086 -0.6220  0.2378
   99OSM    C5S 9884   5.098   2.808  10.329  0.3067 -0.4012 -0.5630
   99OSM    H5S 9885   5.042   2.769  10.243  0.6818 -0.9972 -0.5460
   99OSM    C6S 9886   5.245   2.766  10.309  0.2410 -0.1888 -0.7735
   99OSM    H6S 9887   5.269   2.687  10.235  4.1945 -1.4532  1.5984
   99OSM    H6T 9888   5.266   2.709  10.402 -0.8108  0.0836 -0.3463
   99OSM    C7S 9889   5.336   2.888  10.291  0.0715 -0.2788 -0.3875
   99OSM    H7S 9890   5.435   2.838  10.289  0.4448  0.4033  0.3880
   99OSM    H7T 9891   5.328   2.960  10.376  1.0135  1.2522 -1.5535
   99OSM    C8S 9892   5.301   2.965  10.150 -0.5286 -0.7208 -0.2722
   99OSM    H8S 9893   5.197   3.004  10.154 -1.4462 -2.8643 -1.6222
   99OSM    H8T 9894   5.302   2.889  10.068  2.0761 -2.3792  1.1799
   99OSM    C9S 9895   5.386   3.087  10.118 -0.0882 -0.2266  0.1329
   99OSM    H9S 9896   5.490   3.074  10.154 -0.3612 -0.1020  0.9894
   99OSM    H9T 9897   5.346   3.183  10.155  1.0714  0.6140 -0.7217
   99OSM   C10S 9898   5.394   3.122   9.970 -0.1368  0.3704  0.5766
   99OSM   H10S 9899   5.445   3.221   9.967  2.8240 -1.0658 -0.4812
   99OSM   H10T 9900   5.296   3.132   9.920  0.0644 -0.6634 -0.0360
   99OSM   C11S 9901   5.465   3.014   9.886 -0.4202 -0.2319 -0.0639
   99OSM   H11S 9902   5.410   2.918   9.873  2.1778 -1.5695 -2.3836
   99OSM   H11T 9903   5.562   2.992   9.936 -0.8322 -1.5274  0.2238
   99OSM   C12S 9904   5.498   3.078   9.751  0.4142 -1.0762 -0.1370
   99OSM   H12S 9905   5.514   3.187   9.758  0.2866 -1.1531  2.0527
   99OSM   H12T 9906   5.597   3.036   9.723 -0.3476 -1.6172 -2.2290
   99OSM   C13S 9907   5.395   3.038   9.644 -0.9076 -0.5462  0.7917
   99OSM   H13S 9908   5.299   3.089   9.666 -0.9304 -0.2506  0.0435
   99OSM   H13T 9909   5.383   2.928   9.640 -2.2857 -0.3870 -0.1288
   99OSM   C14S 9910   5.443   3.070   9.497 -0.2075  0.1796 -0.2599
   99OSM   H14S 9911   5.525   2.998   9.478 -1.8648 -2.3498  1.4750
   99OSM   H14T 9912   5.477   3.175   9.484 -3.1558  1.2426 -0.3324
   99OSM   C15S 9913   5.336   3.046   9.388 -0.2279  0.0227  0.3132
   99OSM   H15S 9914   5.259   3.125   9.406 -2.7520 -1.2149 -3.6741
   99OSM   H15T 9915   5.275   2.956   9.411 -0.0299  0.6192  3.9155
   99OSM   C16S 9916   5.385   3.054   9.239  0.6950  0.5827 -0.2257
   99OSM   H16S 9917   5.309   3.014   9.169  1.9640 -2.0993 -0.2193
   99OSM   H16T 9918   5.477   2.992   9.245 -0.4432 -1.0680  2.1709
   99OSM   C17S 9919   5.430   3.190   9.189  0.0155  0.4953 -0.2115
   99OSM   H17S 9920   5.495   3.239   9.264 -2.0752  2.2785  0.5496
   99OSM   H17T 9921   5.343   3.259   9.184  0.3427  0.8808 -0.5276
   99OSM   C18S 9922   5.511   3.180   9.062 -0.3124 -0.2735 -0.2723
   99OSM   H18S 9923   5.513   3.282   9.018 -1.3737 -0.6022 -1.1250
   99OSM   H18T 9924   5.482   3.105   8.986  0.6401 -2.4115  1.3681
   99OSM   H18U 9925   5.617   3.151   9.080 -0.2445 -1.5914 -2.4535
   99OSM    C1F 9926   4.953   3.270  10.330 -0.2170 -0.6300 -0.8328
   99OSM     OF 9927   4.996   3.332  10.421  0.2129 -0.2560 -0.4776
   99OSM    C2F 9928   4.926   3.328  10.192 -0.1263  0.1256 -0.5356
   99OSM    H2F 9929   4.853   3.410  10.205 -2.0943 -1.5515 -0.4325
   99OSM    H2G 9930   4.879   3.255  10.122  0.8543 -1.1648  0.1008
   99OSM    C3F 9931   5.063   3.373  10.127  1.1362  0.9303 -0.0102
   99OSM    H3F 9932   5.107   3.465  10.172  2.2491 -0.4381  1.8456
   99OSM    H3G 9933   5.140   3.300  10.159  2.2519  1.1617 -2.0142
   99OSM    C4F 9934   5.048   3.390   9.974 -0.3368 -0.5002  0.5480
   99OSM    H4F 9935   4.984   3.478   9.952 -0.5156  0.0050  2.7816
   99OSM    H4G 9936   4.992   3.316   9.914  2.0344 -0.7528 -1.4842
   99OSM    C5F 9937   5.187   3.423   9.921 -0.3135 -0.1641 -0.1297
   99OSM    H5F 9938   5.259   3.348   9.961  0.6731  1.5099  1.3544
   99OSM    H5G 9939   5.223   3.520   9.960 -0.9843 -0.2251  0.6674
   99OSM    C6F 9940   5.189   3.419   9.770  0.4686 -0.1061 -0.1744
   99OSM    H6F 9941   5.155   3.321   9.732  1.5173  0.2275 -2.0739
   99OSM    H6G 9942   5.295   3.436   9.742  0.2293  0.5755 -0.6741
   99OSM    C7F 9943   5.107   3.528   9.698  0.1646  0.7177 -0.1146
   99OSM    H7F 9944   5.107   3.610   9.773  0.4022 -1.5358  2.4758
   99OSM    H7G 9945   5.000   3.501   9.691 -0.1354  1.1106  2.1867
   99OSM    C8F 9946   5.175   3.582   9.571  0.3203 -0.1584  0.7271
   99OSM    H8F 9947   5.282   3.604   9.589  0.1875  0.4889  0.7763
   99OSM    H8G 9948   5.142   3.686   9.549 -0.0470 -0.3360  0.4355
   99OSM    C9F 9949   5.168   3.477   9.470  0.9743  0.1462  0.1078
   99OSM    H9F 9950   5.191   3.375   9.506  1.0733  0.0374 -0.2612
   99OSM   C10F 9951   5.142   3.480   9.333 -0.5753  0.3241 -0.5674
   99OSM   H10F 9952   5.128   3.381   9.288 -2.0361  0.2371  0.0191
   99OSM   C11F 9953   5.120   3.597   9.242  0.1557  0.1287  0.3794
   99OSM   H11F 9954   5.140   3.690   9.300 -0.5322 -0.2294  1.2025
   99OSM   H11G 9955   5.014   3.588   9.209 -0.1031 -1.3253  1.5275
   99OSM   C12F 9956   5.205   3.585   9.122 -0.4152  0.2165  0.0750
   99OSM   H12F 9957   5.313   3.575   9.149 -0.4374 -1.9767 -0.4739
   99OSM   H12G 9958   5.194   3.679   9.064  1.5163  1.6049  1.8110
   99OSM   C13F 9959   5.158   3.476   9.027  0.1485  0.8967  0.1645
   99OSM   H13F 9960   5.047   3.472   9.017  0.2208 -0.1953 -0.2567
   99OSM   H13G 9961   5.195   3.379   9.065 -2.4490 -0.5790 -0.8418
   99OSM   C14F 9962   5.216   3.484   8.890 -0.0186 -1.0672  0.6563
   99OSM   H14F 9963   5.327   3.482   8.900  0.0311  2.4755  2.6413
   99OSM   H14G 9964   5.181   3.586   8.863 -1.2021 -1.6327 -0.0317
   99OSM   C15F 9965   5.171   3.379   8.784  0.0632  0.2393  0.8483
   99OSM   H15F 9966   5.063   3.355   8.787 -0.3182  1.8724  1.0135
   99OSM   H15G 9967   5.225   3.284   8.803  1.6167  0.9256  0.0940
   99OSM   C16F 9968   5.191   3.424   8.638  0.5846  1.0400  0.0825
   99OSM   H16F 9969   5.136   3.520   8.625 -1.5376 -0.2658 -1.1671
   99OSM   H16G 9970   5.135   3.357   8.569  0.1031 -1.0162  2.3424
   99OSM   C17F 9971   5.339   3.430   8.600  0.5820  0.5626  0.7208
   99OSM   H17F 9972   5.409   3.491   8.660  4.1250 -1.5171 -0.9294
   99OSM   H17G 9973   5.336   3.475   8.498 -1.8116  1.0106  0.9493
   99OSM   C18F 9974   5.405   3.289   8.587  0.0719  0.1268  0.1552
   99OSM   H18F 9975   5.404   3.233   8.683 -0.3128 -1.7844 -0.9143
   99OSM   H18G 9976   5.509   3.285   8.546  0.5281  2.0336  1.0188
   99OSM   H18H 9977   5.335   3.229   8.525 -0.6814  0.3112  0.8155
  100OSM      N 9978   5.575   2.918  11.088 -0.1079 -0.1295 -0.3022
  100OSM    C15 9979   5.476   2.996  11.173 -0.1760  0.6090  0.3115
  100OSM   H15A 9980   5.531   3.031  11.259 -1.8285  1.1896  1.1605
  100OSM   H15B 9981   5.406   2.925  11.213 -0.9853  3.0780  3.7167
  100OSM   H15C 9982   5.420   3.075  11.125 -0.6063  1.2755  1.8610
  100OSM    C14 9983   5.666   3.019  11.036 -0.6265  0.6089  0.2509
  100OSM   H14A 9984   5.614   3.077  10.961  0.0012 -0.3726 -0.9977
  100OSM   H14B 9985   5.749   2.969  10.988 -1.3112 -0.6507  0.3244
  100OSM   H14C 9986   5.709   3.076  11.117 -0.5758 -1.6688  1.9110
  100OSM    C13 9987   5.644   2.822  11.177  0.7606  0.5779 -0.0408
  100OSM   H13A 9988   5.581   2.743  11.214  0.1300  0.7994 -0.6150
  100OSM   H13B 9989   5.685   2.871  11.264 -0.8273  0.4571  0.7990
  100OSM   H13C 9990   5.731   2.782  11.126  0.0568 -0.9768 -0.0647
  100OSM    C12 9991   5.508   2.840  10.976 -0.1639 -0.1007  0.2000
  100OSM   H12A 9992   5.451   2.915  10.923  0.4561  1.0151  1.0721
  100OSM   H12B 9993   5.439   2.770  11.021  0.0683 -0.0068  0.7004
  100OSM    C11 9994   5.597   2.748  10.891 -0.9937  0.7323  0.6696
  100OSM   H11A 9995   5.684   2.813  10.866 -0.4959 -0.2054 -0.0731
  100OSM   H11B 9996   5.559   2.729  10.789 -2.2687  1.3382  1.0067
  100OSM      P 9997   5.532   2.514  10.978  0.5606  0.0148  0.2586
  100OSM    O13 9998   5.586   2.387  11.032  0.1105 -0.3374  0.2775
  100OSM    O14 9999   5.409   2.576  11.037 -0.4033  0.4800 -0.0196
  100OSM    O1110000   5.508   2.493  10.828  0.3367  0.3951 -0.0172
  100OSM    O1210001   5.637   2.632  10.969  0.2917 -0.1697 -0.3165
  100OSM    C1S10002   5.600   2.447  10.727  0.7502 -1.9712 -0.9947
  100OSM    H1S10003   5.679   2.380  10.767  2.8325 -0.9085 -3.0832
  100OSM    H1T10004   5.655   2.527  10.672 -1.7540  0.5787 -0.0723
  100OSM     NF10005   5.631   2.346  10.497  0.1108  0.6959 -0.1259
  100OSM    HNF10006   5.623   2.393  10.410  0.2461 -2.7643 -2.1906
  100OSM    C2S10007   5.532   2.374  10.610  0.6443  0.0496  1.2788
  100OSM    H2S10008   5.493   2.276  10.643 -0.4075  0.2577  0.6932
  100OSM    C3S10009   5.407   2.456  10.557 -0.6046  0.6715 -0.5748
  100OSM    H3S10010   5.441   2.558  10.531 -2.4049  1.0229 -1.7123
  100OSM     O310011   5.307   2.476  10.656 -0.2354 -0.4825 -0.0739
  100OSM    HO310012   5.353   2.464  10.739 -2.3050 -1.7858  0.9672
  100OSM    C4S10013   5.342   2.388  10.451  0.3185 -0.6792 -0.6653
  100OSM    H4S10014   5.284   2.300  10.482 -1.9687  1.5595  2.0144
  100OSM    C5S10015   5.351   2.418  10.321  0.0234 -1.3043  0.4674
  100OSM    H5S10016   5.432   2.488  10.293 -0.5120  0.5946  3.2701
  100OSM    C6S10017   5.288   2.344  10.206 -0.6535  0.1267 -0.7312
  100OSM    H6S10018   5.201   2.282  10.238  0.6957 -1.4828 -0.0311
  100OSM    H6T10019   5.366   2.278  10.162  1.6354  1.5003  1.0064
  100OSM    C7S10020   5.242   2.447  10.104  0.0667 -0.2451  0.0257
  100OSM    H7S10021   5.316   2.528  10.090  1.2489 -1.5354 -1.6462
  100OSM    H7T10022   5.140   2.489  10.118 -0.6096 -1.2210 -1.6539
  100OSM    C8S10023   5.234   2.374   9.964 -0.2273  0.3418 -0.2049
  100OSM    H8S10024   5.146   2.307   9.970  1.2806 -1.6369  5.0302
  100OSM    H8T10025   5.326   2.317   9.939 -0.0044  1.4657 -2.1935
  100OSM    C9S10026   5.223   2.461   9.834  0.3665  0.5262  0.0260
  100OSM    H9S10027   5.317   2.518   9.849  0.6754 -0.0869  0.4260
  100OSM    H9T10028   5.124   2.509   9.854 -0.4435 -1.4435  0.9390
  100OSM   C10S10029   5.248   2.374   9.713 -0.7343  0.7124  0.1854
  100OSM   H10S10030   5.154   2.319   9.691 -0.2939  0.8980 -2.6497
  100OSM   H10T10031   5.327   2.299   9.736 -1.4800  0.5745  2.5132
  100OSM   C11S10032   5.291   2.452   9.585 -0.0760  0.0208 -0.1949
  100OSM   H11S10033   5.389   2.502   9.600 -1.0353  1.7669  0.5771
  100OSM   H11T10034   5.211   2.527   9.566  0.1221 -0.2060 -2.1088
  100OSM   C12S10035   5.297   2.356   9.465 -0.1235  0.6773  0.4960
  100OSM   H12S10036   5.194   2.316   9.456  0.2615 -0.4908  1.0858
  100OSM   H12T10037   5.381   2.285   9.482  0.3764  0.9933 -0.5791
  100OSM   C13S10038   5.344   2.423   9.332  0.1029 -0.2594 -0.2451
  100OSM   H13S10039   5.380   2.351   9.256  1.5208 -0.1207  0.2700
  100OSM   H13T10040   5.429   2.491   9.354  1.6937 -2.0683 -0.5472
  100OSM   C14S10041   5.232   2.507   9.262  0.2252 -0.2467 -0.4325
  100OSM   H14S10042   5.201   2.586   9.335  1.9685 -1.6046  1.9439
  100OSM   H14T10043   5.146   2.439   9.247 -0.8913  1.1242 -0.3969
  100OSM   C15S10044   5.270   2.579   9.133 -0.4442  0.3111 -0.0697
  100OSM   H15S10045   5.380   2.569   9.133 -0.3123  1.5212  0.5287
  100OSM   H15T10046   5.251   2.688   9.120  1.7426  0.5086 -2.1545
  100OSM   C16S10047   5.217   2.500   9.013 -0.8310  0.8708 -0.4648
  100OSM   H16S10048   5.107   2.515   9.005 -1.1631 -1.8154 -1.9533
  100OSM   H16T10049   5.231   2.390   9.019  0.9532  1.0495 -0.9468
  100OSM   C17S10050   5.255   2.543   8.875 -0.6051  0.2786  0.2186
  100OSM   H17S10051   5.364   2.522   8.866 -0.8198 -0.7147 -0.2589
  100OSM   H17T10052   5.224   2.649   8.865 -3.7371 -0.4783  0.6197
  100OSM   C18S10053   5.175   2.472   8.761  0.2567  0.2605 -0.2930
  100OSM   H18S10054   5.069   2.467   8.792 -0.1932  0.0199 -1.8327
  100OSM   H18T10055   5.214   2.369   8.745  1.5839  0.6708  0.1072
  100OSM   H18U10056   5.175   2.526   8.664 -0.7322 -0.9596 -1.0090
  100OSM    C1F10057   5.740   2.278  10.526 -0.0141  0.1756 -0.0793
  100OSM     OF10058   5.751   2.215  10.630 -0.4550 -0.0184  0.5315
  100OSM    C2F10059   5.846   2.282  10.420  0.8145  0.0056 -0.0629
  100OSM    H2F10060   5.881   2.388  10.417 -0.8607  0.6166  0.5878
  100OSM    H2G10061   5.795   2.260  10.324 -1.3558  0.8271  0.8333
  100OSM    C3F10062   5.967   2.188  10.444 -0.6381  0.6729  0.7131
  100OSM    H3F10063   5.923   2.087  10.456 -0.5590  0.7069  1.3024
  100OSM    H3G10064   6.022   2.225  10.533 -1.1606  2.9920  0.1370
  100OSM    C4F10065   6.061   2.172  10.322  0.4007 -0.1677 -0.6489
  100OSM    H4F10066   6.151   2.114  10.352  1.1144  1.5202  0.6703
  100OSM    H4G10067   6.093   2.272  10.285  1.2031 -0.9520 -2.2117
  100OSM    C5F10068   5.988   2.099  10.205 -0.4710 -0.3223  0.1443
  100OSM    H5F10069   5.903   2.165  10.176  1.0877  0.9324 -1.8203
  100OSM    H5G10070   5.943   2.000  10.231  1.3013 -0.7797  1.7634
  100OSM    C6F10071   6.080   2.085  10.089 -0.6357  0.9631 -0.2071
  100OSM    H6F10072   6.176   2.044  10.128 -1.1455  2.3381  2.7930
  100OSM    H6G10073   6.109   2.188  10.059  2.1887  1.2965  3.0377
  100OSM    C7F10074   6.012   1.995   9.980  0.0188  0.2982 -0.0855
  100OSM    H7F10075   5.924   2.054   9.945 -0.3886 -0.2190  0.0614
  100OSM    H7G10076   5.975   1.902  10.026  2.4437 -0.6187  0.1891
  100OSM    C8F10077   6.112   1.976   9.863  0.5452 -0.1097 -0.1862
  100OSM    H8F10078   6.208   1.936   9.901  0.5733  2.0311  2.2566
  100OSM    H8G10079   6.131   2.074   9.812 -0.2549  1.2226  1.9689
  100OSM    C9F10080   6.042   1.877   9.775 -0.5397 -0.0776 -0.9793
  100OSM    H9F10081   6.034   1.781   9.828 -0.5834  1.3736  1.7672
  100OSM   C10F10082   5.990   1.894   9.649  0.3177 -0.5446  0.1823
  100OSM   H10F10083   5.938   1.809   9.602 -1.1268  0.8453 -0.8142
  100OSM   C11F10084   5.989   2.015   9.564 -0.0142 -0.0324  0.1155
  100OSM   H11F10085   6.068   2.092   9.580 -0.7473  0.7049  0.2333
  100OSM   H11G10086   5.892   2.066   9.551  1.3020  2.3102 -1.3612
  100OSM   C12F10087   6.029   1.962   9.419  0.0023 -0.4786  0.8597
  100OSM   H12F10088   5.976   1.870   9.387 -0.3644  0.0366 -0.0566
  100OSM   H12G10089   6.139   1.946   9.419  0.3002  1.3119 -0.0319
  100OSM   C13F10090   5.993   2.070   9.308 -0.4809 -0.3570  0.3759
  100OSM   H13F10091   6.037   2.164   9.349 -3.0256  0.5362  1.2436
  100OSM   H13G10092   5.883   2.078   9.299 -0.1930  1.2789 -4.9845
  100OSM   C14F10093   6.040   2.026   9.168 -1.0957 -0.0591 -0.4128
  100OSM   H14F10094   5.986   1.938   9.129 -0.9216  0.4732 -1.8873
  100OSM   H14G10095   6.146   1.994   9.169 -1.2963 -0.7375 -0.3646
  100OSM   C15F10096   6.033   2.139   9.064  0.1588  0.3609  0.3243
  100OSM   H15F10097   6.094   2.224   9.101 -0.6909  0.5990  1.2287
  100OSM   H15G10098   5.928   2.174   9.050  0.0171 -0.3859 -0.5191
  100OSM   C16F10099   6.093   2.094   8.927 -0.2853 -0.3644  0.9568
  100OSM   H16F10100   6.169   2.016   8.950  0.3760 -0.0686 -0.1520
  100OSM   H16G10101   6.149   2.181   8.888 -0.7842 -0.0445  0.9499
  100OSM   C17F10102   5.985   2.066   8.824  0.8605  0.9419  0.1232
  100OSM   H17F10103   6.044   2.054   8.731 -2.1854  2.0476 -2.1198
  100OSM   H17G10104   5.918   2.150   8.798  1.7040  1.6605  0.2203
  100OSM   C18F10105   5.895   1.949   8.863  0.1273 -0.5372  0.5286
  100OSM   H18F10106   5.840   1.955   8.959  0.3832  0.7953  0.6139
  100OSM   H18G10107   5.957   1.858   8.871  1.9654  0.6564  0.4172
  100OSM   H18H10108   5.821   1.927   8.782 -2.6176 -0.5823  2.8776
  101OSM      N10109   1.816   2.672  11.235  0.5529  0.0529  0.6849
  101OSM    C1510110   1.859   2.606  11.109  0.1970 -0.6083 -0.2316
  101OSM   H15A10111   1.964   2.624  11.089  0.3065  0.4390  1.2006
  101OSM   H15B10112   1.810   2.642  11.020 -2.4997  0.4202  1.5605
  101OSM   H15C10113   1.837   2.500  11.101  4.0104 -1.5888  0.1217
  101OSM    C1410114   1.686   2.623  11.285  0.3974 -0.5499 -0.6011
  101OSM   H14A10115   1.643   2.681  11.365  2.4912 -1.1775  1.0646
  101OSM   H14B10116   1.699   2.522  11.322  0.1754 -0.2461  0.3202
  101OSM   H14C10117   1.613   2.628  11.205 -0.4545  0.5459  0.2241
  101OSM    C1310118   1.917   2.641  11.341 -0.2019  0.5693  0.6048
  101OSM   H13A10119   1.911   2.539  11.375 -0.8267  1.0256  1.9424
  101OSM   H13B10120   1.900   2.709  11.423 -0.2847  0.2232  0.8775
  101OSM   H13C10121   2.020   2.662  11.318 -0.3980 -0.5277 -1.4679
  101OSM    C1210122   1.807   2.828  11.218  0.0739  0.3970 -0.2420
  101OSM   H12A10123   1.901   2.866  11.181  0.2227  1.5207  1.2309
  101OSM   H12B10124   1.777   2.874  11.311  2.0070  1.9562 -0.3257
  101OSM    C1110125   1.699   2.881  11.117  0.5491 -0.1180  0.1984
  101OSM   H11A10126   1.706   2.992  11.123 -0.2933 -0.1570  3.5888
  101OSM   H11B10127   1.602   2.841  11.153 -0.5452  0.5233 -1.8645
  101OSM      P10128   1.637   2.780  10.878 -0.0216 -0.3209  0.1227
  101OSM    O1310129   1.699   2.649  10.842 -0.1482  0.6750  0.2158
  101OSM    O1410130   1.500   2.772  10.930  0.3127 -0.5115 -0.1183
  101OSM    O1110131   1.657   2.873  10.754 -0.1255 -0.2636 -0.2742
  101OSM    O1210132   1.739   2.843  10.988  0.3661  0.3474 -0.1375
  101OSM    C1S10133   1.770   2.887  10.677  0.0367  0.0574  0.6795
  101OSM    H1S10134   1.861   2.831  10.710  0.2826  1.5312  2.6772
  101OSM    H1T10135   1.811   2.989  10.690  1.4753 -0.0536 -2.1414
  101OSM     NF10136   1.858   2.841  10.448  0.2197 -0.0244  0.0121
  101OSM    HNF10137   1.878   2.920  10.390  0.1695 -0.1027 -0.1112
  101OSM    C2S10138   1.740   2.854  10.526  0.2270  0.8672 -0.1142
  101OSM    H2S10139   1.677   2.763  10.521 -0.1279  1.1853 -2.8167
  101OSM    C3S10140   1.649   2.969  10.479  0.1515  0.4619  0.4941
  101OSM    H3S10141   1.701   3.066  10.496  0.0793  0.6105 -0.1105
  101OSM     O310142   1.520   2.979  10.535  0.2487  0.1108 -0.2849
  101OSM    HO310143   1.524   2.935  10.620  1.9691  1.5575  0.4463
  101OSM    C4S10144   1.626   2.970  10.330 -0.1642 -0.4526  0.3243
  101OSM    H4S10145   1.709   3.014  10.273  0.7083  0.1203  1.9664
  101OSM    C5S10146   1.518   2.931  10.262  0.1697  0.1297 -0.4955
  101OSM    H5S10147   1.428   2.902  10.317 -0.2666  1.7177 -0.3176
  101OSM    C6S10148   1.489   2.943  10.115  0.3996 -0.3512 -0.2968
  101OSM    H6S10149   1.402   3.008  10.094 -0.3069 -1.6458 -1.5293
  101OSM    H6T10150   1.451   2.845  10.080 -1.8886  0.7870 -1.1753
  101OSM    C7S10151   1.595   2.973  10.014 -0.1399  0.4779  0.2404
  101OSM    H7S10152   1.675   2.896  10.019 -1.2766 -0.8074 -0.5965
  101OSM    H7T10153   1.643   3.073  10.022 -1.5636  1.3125 -1.0513
  101OSM    C8S10154   1.533   2.976   9.873 -0.5514 -0.0612 -0.1337
  101OSM    H8S10155   1.467   3.065   9.867 -0.3128  0.1117 -0.2215
  101OSM    H8T10156   1.479   2.882   9.847 -0.4992  0.1282 -0.9354
  101OSM    C9S10157   1.641   3.001   9.765 -0.0497 -0.0021 -0.3148
  101OSM    H9S10158   1.683   2.900   9.742  1.4849  0.7513 -1.0255
  101OSM    H9T10159   1.722   3.066   9.805 -0.3980 -0.5040  1.2772
  101OSM   C10S10160   1.588   3.057   9.633 -0.5578 -0.0041 -0.5533
  101OSM   H10S10161   1.571   3.164   9.660  0.2092  0.2885 -1.1739
  101OSM   H10T10162   1.497   3.014   9.587  0.5310 -0.4444 -2.4390
  101OSM   C11S10163   1.693   3.066   9.518  0.4396  0.2816  0.2126
  101OSM   H11S10164   1.739   2.968   9.495 -2.4159 -0.9339 -0.8145
  101OSM   H11T10165   1.772   3.138   9.548 -0.7737  1.4972  0.5986
  101OSM   C12S10166   1.624   3.129   9.401  0.1815 -0.2488  0.3599
  101OSM   H12S10167   1.576   3.224   9.431  0.1619  0.3425 -1.4264
  101OSM   H12T10168   1.539   3.065   9.367 -1.7445  1.2054  2.1498
  101OSM   C13S10169   1.723   3.155   9.292 -0.6191 -0.3691  0.3218
  101OSM   H13S10170   1.736   3.058   9.239 -0.7887  0.0875 -0.5675
  101OSM   H13T10171   1.818   3.196   9.330 -0.3507 -1.4050  0.8034
  101OSM   C14S10172   1.670   3.261   9.198 -0.0313 -0.5729  0.3876
  101OSM   H14S10173   1.665   3.350   9.263 -0.4471 -0.6474  0.4558
  101OSM   H14T10174   1.570   3.231   9.162 -0.7135  2.2788 -0.3563
  101OSM   C15S10175   1.775   3.285   9.082  0.3001 -0.1575  0.3145
  101OSM   H15S10176   1.813   3.189   9.041 -2.3653 -1.6817  1.1744
  101OSM   H15T10177   1.869   3.323   9.126 -0.7279  2.9118  0.1200
  101OSM   C16S10178   1.731   3.374   8.958 -0.1738 -0.0021 -0.8979
  101OSM   H16S10179   1.715   3.478   8.994 -0.5565  0.7110 -2.9790
  101OSM   H16T10180   1.637   3.331   8.918  0.1176  1.0247 -2.7797
  101OSM   C17S10181   1.828   3.370   8.844  0.2899  0.1393  0.0592
  101OSM   H17S10182   1.936   3.370   8.870  0.4364 -0.5204 -0.5076
  101OSM   H17T10183   1.823   3.471   8.797 -2.0823  0.4929  0.9469
  101OSM   C18S10184   1.807   3.268   8.734  0.1744 -0.6213  0.3659
  101OSM   H18S10185   1.873   3.280   8.646 -0.6734  0.4941 -0.1456
  101OSM   H18T10186   1.701   3.274   8.701  0.3857 -0.3713 -0.2720
  101OSM   H18U10187   1.813   3.163   8.768 -2.0734 -1.2730 -1.0260
  101OSM    C1F10188   1.925   2.736  10.442  0.1499 -0.1713  0.0820
  101OSM     OF10189   1.898   2.640  10.510 -0.0300 -0.3300 -0.0821
  101OSM    C2F10190   2.039   2.734  10.342  0.0198  0.5696  0.2473
  101OSM    H2F10191   2.133   2.749  10.398  0.7953 -0.0802 -0.8333
  101OSM    H2G10192   2.026   2.810  10.262  1.6572  1.6301  0.9523
  101OSM    C3F10193   2.042   2.592  10.271 -0.0559  0.4854  0.0456
  101OSM    H3F10194   1.967   2.579  10.190  0.2687  0.3430 -0.2315
  101OSM    H3G10195   2.008   2.513  10.342 -1.7059  0.6216 -0.5367
  101OSM    C4F10196   2.184   2.562  10.221  0.0495 -0.7429  0.5674
  101OSM    H4F10197   2.172   2.470  10.160  1.3707 -0.0025 -0.8944
  101OSM    H4G10198   2.251   2.542  10.307 -0.2403 -2.0210  0.5169
  101OSM    C5F10199   2.248   2.669  10.124 -0.1360  0.0164  0.7204
  101OSM    H5F10200   2.349   2.634  10.091 -0.7754 -2.4880  1.2199
  101OSM    H5G10201   2.256   2.761  10.185 -1.0708  0.0253  0.8431
  101OSM    C6F10202   2.167   2.698   9.994 -0.5419 -0.3954 -0.6165
  101OSM    H6F10203   2.149   2.595   9.956  0.2231 -1.4336  1.6836
  101OSM    H6G10204   2.066   2.743  10.004  0.5611  1.6400  4.3871
  101OSM    C7F10205   2.238   2.774   9.879  0.6367  0.3155 -0.7048
  101OSM    H7F10206   2.340   2.730   9.876  0.8677  0.7711  0.1402
  101OSM    H7G10207   2.251   2.876   9.921 -0.2955 -0.6863  2.2662
  101OSM    C8F10208   2.172   2.761   9.743  0.4690  0.8221 -0.0820
  101OSM    H8F10209   2.137   2.656   9.732  2.2105  0.2927 -1.0726
  101OSM    H8G10210   2.258   2.776   9.674 -1.7783  1.4236 -2.9327
  101OSM    C9F10211   2.075   2.872   9.723  0.1404  0.0716  1.0183
  101OSM    H9F10212   2.027   2.895   9.819  0.0122 -1.3940  1.3375
  101OSM   C10F10213   2.058   2.940   9.602  0.3098  0.2938 -0.0840
  101OSM   H10F10214   1.995   3.029   9.588 -1.4313 -1.1547 -2.1068
  101OSM   C11F10215   2.138   2.915   9.477 -0.0682 -0.6166  0.1791
  101OSM   H11F10216   2.200   2.823   9.473  2.2893  0.8356  1.0771
  101OSM   H11G10217   2.213   2.997   9.475  0.9450 -1.5231 -1.7310
  101OSM   C12F10218   2.060   2.965   9.356 -0.3680  1.0441 -0.0339
  101OSM   H12F10219   2.026   3.069   9.378 -1.2333  1.1916 -1.8011
  101OSM   H12G10220   1.974   2.897   9.342 -0.5619  0.7268  2.3309
  101OSM   C13F10221   2.145   2.971   9.232  0.3517  0.3198 -0.2193
  101OSM   H13F10222   2.189   2.874   9.199  0.3756 -0.0525  0.8475
  101OSM   H13G10223   2.225   3.047   9.245  0.1537  0.5328 -0.2408
  101OSM   C14F10224   2.042   3.018   9.126  0.2120  0.3298 -0.3718
  101OSM   H14F10225   2.000   3.108   9.176  0.3710  0.7242 -0.9434
  101OSM   H14G10226   1.960   2.945   9.108 -2.4165  2.5120  1.9200
  101OSM   C15F10227   2.108   3.058   8.989 -0.2484 -0.5789 -0.3203
  101OSM   H15F10228   2.202   3.114   9.005 -0.5347 -0.2907  0.4367
  101OSM   H15G10229   2.032   3.130   8.950 -0.1877 -1.3534 -1.9369
  101OSM   C16F10230   2.118   2.935   8.903 -0.0515  0.3313 -0.3619
  101OSM   H16F10231   2.019   2.883   8.900 -0.2935  0.8129 -1.0408
  101OSM   H16G10232   2.188   2.867   8.955 -0.6375 -0.1398 -0.1756
  101OSM   C17F10233   2.175   2.977   8.766 -0.1665 -1.1489 -0.2756
  101OSM   H17F10234   2.224   2.887   8.725  1.0641 -0.1302 -1.1066
  101OSM   H17G10235   2.263   3.044   8.768  2.0449 -3.7811 -2.1497
  101OSM   C18F10236   2.055   3.021   8.675  0.3970  0.1367 -0.3644
  101OSM   H18F10237   2.022   3.123   8.703 -1.0154 -0.9668  2.3659
  101OSM   H18G10238   1.971   2.950   8.691  1.2204 -0.2517  2.9278
  101OSM   H18H10239   2.087   3.016   8.568  1.3373 -2.2231 -0.0417
  102OSM      N10240   5.356   5.344  10.820  0.5867 -0.3928  1.2506
  102OSM    C1510241   5.256   5.383  10.927 -0.6616  0.6413  0.5803
  102OSM   H15A10242   5.163   5.405  10.876 -0.7540 -0.3407  0.2990
  102OSM   H15B10243   5.285   5.471  10.981  1.1278 -0.5594  1.7128
  102OSM   H15C10244   5.248   5.297  10.992 -1.9162  0.1877 -0.1363
  102OSM    C1410245   5.468   5.265  10.868  0.2879  0.3242 -0.2854
  102OSM   H14A10246   5.537   5.326  10.926 -0.3909  2.2649 -1.4582
  102OSM   H14B10247   5.523   5.228  10.783 -1.3767 -2.1547 -0.3766
  102OSM   H14C10248   5.439   5.179  10.927  2.4433  0.7604  1.5748
  102OSM    C1310249   5.281   5.265  10.717 -0.8180 -0.5856 -0.2449
  102OSM   H13A10250   5.347   5.227  10.641 -0.6698 -2.5458  0.8090
  102OSM   H13B10251   5.205   5.326  10.671 -0.2504  0.7484  0.5084
  102OSM   H13C10252   5.238   5.177  10.762 -0.2680 -1.7123 -1.8209
  102OSM    C1210253   5.411   5.478  10.768  0.1599 -0.6464 -0.5453
  102OSM   H12A10254   5.442   5.538  10.853 -1.2394 -0.0194 -0.4503
  102OSM   H12B10255   5.334   5.527  10.711  0.7764 -0.0691 -0.8887
  102OSM    C1110256   5.532   5.485  10.674 -1.2554  0.0118  0.1264
  102OSM   H11A10257   5.562   5.588  10.645  1.7148 -1.0543 -0.9934
  102OSM   H11B10258   5.496   5.432  10.583  2.3632 -1.7883 -0.4265
  102OSM      P10259   5.745   5.336  10.651 -0.0921  0.1593  0.4312
  102OSM    O1310260   5.835   5.416  10.559  0.4467 -0.4147 -0.0798
  102OSM    O1410261   5.827   5.255  10.747 -0.0266 -0.1646 -0.3870
  102OSM    O1110262   5.644   5.252  10.562 -0.3999 -0.6387 -0.3934
  102OSM    O1210263   5.649   5.427  10.736 -0.0586  0.5267  0.3640
  102OSM    C1S10264   5.699   5.147  10.484 -0.3417  0.1210 -0.0908
  102OSM    H1S10265   5.735   5.067  10.552  0.5803  1.0547  0.5517
  102OSM    H1T10266   5.785   5.185  10.426 -1.8531  2.0108 -1.2284
  102OSM     NF10267   5.651   4.972  10.307  0.3481 -1.2317 -0.0025
  102OSM    HNF10268   5.667   5.008  10.215 -0.3776  0.0095  0.3360
  102OSM    C2S10269   5.598   5.077  10.391  0.7363  0.0601 -0.1767
  102OSM    H2S10270   5.521   5.030  10.456  1.3565  0.7940  1.1352
  102OSM    C3S10271   5.529   5.200  10.317  1.0856  0.1034 -0.3606
  102OSM    H3S10272   5.608   5.248  10.256  0.4498  2.6001  0.6533
  102OSM     O310273   5.463   5.305  10.386 -0.1577 -0.1008  0.0971
  102OSM    HO310274   5.507   5.301  10.472 -3.0530 -0.1900  1.7038
  102OSM    C4S10275   5.432   5.130  10.225  0.4787 -0.1311 -0.3829
  102OSM    H4S10276   5.470   5.094  10.128  3.2848  4.0234 -1.0978
  102OSM    C5S10277   5.304   5.102  10.253  0.1511 -0.7149  0.1794
  102OSM    H5S10278   5.265   5.138  10.349  1.5372  0.4484  0.3392
  102OSM    C6S10279   5.210   5.032  10.168 -0.5047 -0.6105  0.2815
  102OSM    H6S10280   5.106   5.044  10.203 -0.2264  0.1163  0.8842
  102OSM    H6T10281   5.243   4.925  10.172 -0.8889 -0.7796 -0.7804
  102OSM    C7S10282   5.213   5.074  10.017  0.3979 -0.6044 -0.4738
  102OSM    H7S10283   5.317   5.062   9.981 -0.1606 -3.6486 -1.3515
  102OSM    H7T10284   5.196   5.184  10.016  0.7898 -0.5458 -1.0299
  102OSM    C8S10285   5.112   4.992   9.932 -0.6821  0.6185 -0.0055
  102OSM    H8S10286   5.012   4.984   9.979 -1.5967 -3.2446 -2.1868
  102OSM    H8T10287   5.151   4.891   9.909 -0.0912  0.9812 -0.6402
  102OSM    C9S10288   5.098   5.052   9.793 -0.3059 -0.4963  0.5850
  102OSM    H9S10289   5.199   5.071   9.750 -0.2385  3.6919  2.1314
  102OSM    H9T10290   5.041   5.145   9.809 -1.9395 -1.3740  0.0685
  102OSM   C10S10291   5.025   4.962   9.696  0.0654 -0.4047  0.5973
  102OSM   H10S10292   4.920   4.974   9.730  0.3555 -0.1025  1.4111
  102OSM   H10T10293   5.054   4.854   9.702  1.6761  0.0349  1.2406
  102OSM   C11S10294   5.044   5.006   9.550 -0.3568  0.5056  0.5930
  102OSM   H11S10295   5.142   4.971   9.511  1.1081  1.6620  2.9676
  102OSM   H11T10296   5.036   5.116   9.556  4.0458  0.9632  1.2156
  102OSM   C12S10297   4.924   4.950   9.468 -0.2989  0.5665 -0.0624
  102OSM   H12S10298   4.830   4.983   9.518 -0.7204 -1.1083  0.3297
  102OSM   H12T10299   4.926   4.839   9.478  3.1626  0.5823  0.6931
  102OSM   C13S10300   4.925   5.002   9.327  0.0342 -0.0600 -0.1243
  102OSM   H13S10301   4.906   5.112   9.328  0.5638  0.0830 -2.0524
  102OSM   H13T10302   4.840   4.955   9.274  0.7742  0.1499 -1.5547
  102OSM   C14S10303   5.052   4.973   9.254  0.2719  0.5898  0.2520
  102OSM   H14S10304   5.114   4.890   9.294 -2.0588 -2.0507 -1.2883
  102OSM   H14T10305   5.118   5.063   9.257  0.2179  0.6147  0.7753
  102OSM   C15S10306   5.037   4.963   9.098 -0.0164  0.0940  0.3108
  102OSM   H15S10307   4.969   5.048   9.072 -0.2292 -0.0129  0.5084
  102OSM   H15T10308   4.984   4.870   9.067 -1.0939  1.7224 -3.2614
  102OSM   C16S10309   5.172   4.975   9.022  0.6147 -0.1627  0.1501
  102OSM   H16S10310   5.226   4.878   9.021  0.5492 -0.2174  1.2874
  102OSM   H16T10311   5.238   5.054   9.063  3.6231 -1.6460 -1.4669
  102OSM   C17S10312   5.144   5.008   8.873 -0.1061  0.8718 -0.6213
  102OSM   H17S10313   5.242   5.001   8.820  0.2718  1.5667 -0.0228
  102OSM   H17T10314   5.114   5.115   8.874 -1.3443  0.5378  0.5542
  102OSM   C18S10315   5.044   4.917   8.792 -0.4128 -0.7675 -0.4264
  102OSM   H18S10316   5.078   4.811   8.792 -0.1958 -0.6990 -0.1188
  102OSM   H18T10317   5.041   4.950   8.686  1.5065 -0.4521 -0.4237
  102OSM   H18U10318   4.941   4.920   8.833  0.2227  2.6581  1.2639
  102OSM    C1F10319   5.705   4.860  10.352 -0.6283  0.4714  0.0061
  102OSM     OF10320   5.718   4.843  10.472  0.1345 -0.1852 -0.0032
  102OSM    C2F10321   5.765   4.773  10.246 -0.4374 -0.1401  0.4091
  102OSM    H2F10322   5.861   4.820  10.216 -0.3999 -0.0323  0.6939
  102OSM    H2G10323   5.689   4.775  10.165 -0.7568 -1.1286  0.6774
  102OSM    C3F10324   5.783   4.628  10.286  0.2377  0.0431 -0.5364
  102OSM    H3F10325   5.697   4.580  10.337  0.4434 -1.2305 -1.3653
  102OSM    H3G10326   5.878   4.631  10.345 -1.0407 -0.7587  1.6760
  102OSM    C4F10327   5.818   4.539  10.167 -0.5890 -0.5939 -0.1759
  102OSM    H4F10328   5.831   4.441  10.218 -0.5367 -0.7430 -0.4758
  102OSM    H4G10329   5.910   4.572  10.116 -2.6030  4.1252 -1.3061
  102OSM    C5F10330   5.708   4.536  10.058  1.0573 -0.6194 -0.3385
  102OSM    H5F10331   5.724   4.631  10.003 -0.8318  1.1392  1.9394
  102OSM    H5G10332   5.611   4.552  10.110  1.7722  0.6237  0.6900
  102OSM    C6F10333   5.719   4.417   9.963 -1.1494 -0.2842 -0.3300
  102OSM    H6F10334   5.670   4.329  10.011  0.5764  0.5564  3.3617
  102OSM    H6G10335   5.828   4.407   9.945 -1.2440 -0.1684 -0.9683
  102OSM    C7F10336   5.646   4.449   9.833  0.5228 -0.3446  0.1114
  102OSM    H7F10337   5.688   4.543   9.791  2.5415  0.8186  4.2440
  102OSM    H7G10338   5.542   4.468   9.866  0.9339  0.6491  0.8858
  102OSM    C8F10339   5.668   4.332   9.731  0.2127 -0.9426 -0.0276
  102OSM    H8F10340   5.628   4.238   9.774  1.3462 -1.6327 -0.4391
  102OSM    H8G10341   5.777   4.321   9.717  0.4191  0.7381  0.0210
  102OSM    C9F10342   5.590   4.349   9.608 -0.0954  0.1523 -0.6850
  102OSM    H9F10343   5.487   4.311   9.605 -0.6398  1.5550 -0.8953
  102OSM   C10F10344   5.639   4.396   9.495 -0.5349  0.0686  0.1129
  102OSM   H10F10345   5.584   4.408   9.401  1.1471 -1.2819 -1.1237
  102OSM   C11F10346   5.780   4.449   9.483 -0.0103  0.4774 -0.9003
  102OSM   H11F10347   5.840   4.462   9.575 -0.8882 -0.4935 -0.1539
  102OSM   H11G10348   5.778   4.547   9.431 -4.4997  2.3157  2.0851
  102OSM   C12F10349   5.874   4.358   9.391  0.8550 -0.2332  0.0976
  102OSM   H12F10350   5.882   4.264   9.449  0.2105  0.5827  1.5749
  102OSM   H12G10351   5.970   4.413   9.381  0.9330 -0.1972  0.9240
  102OSM   C13F10352   5.821   4.315   9.255  0.0548 -0.5494 -0.0830
  102OSM   H13F10353   5.734   4.254   9.288  0.6932 -0.8274  1.1885
  102OSM   H13G10354   5.884   4.251   9.189  4.9651  2.2791  1.3622
  102OSM   C14F10355   5.779   4.430   9.167 -0.5306 -0.0178  0.0707
  102OSM   H14F10356   5.861   4.465   9.101  0.3798 -2.5635 -0.2346
  102OSM   H14G10357   5.738   4.511   9.231  0.1531 -0.5991  1.2898
  102OSM   C15F10358   5.672   4.381   9.068  0.4673 -0.1595  0.3262
  102OSM   H15F10359   5.584   4.349   9.128  1.8553  1.3447  3.4175
  102OSM   H15G10360   5.709   4.299   9.003  0.0712  0.6855 -1.0098
  102OSM   C16F10361   5.622   4.488   8.967  0.5765 -0.5468 -0.9893
  102OSM   H16F10362   5.714   4.521   8.916  2.4198 -4.0626 -0.2624
  102OSM   H16G10363   5.585   4.581   9.015  2.6688  0.2511 -0.8536
  102OSM   C17F10364   5.527   4.436   8.859  0.2722  0.7632 -0.5513
  102OSM   H17F10365   5.464   4.350   8.893  2.4482 -1.1842 -1.2360
  102OSM   H17G10366   5.585   4.381   8.782  0.7365  1.6526 -0.8410
  102OSM   C18F10367   5.450   4.539   8.775  0.9779 -0.7095 -0.3359
  102OSM   H18F10368   5.523   4.619   8.751  2.0920 -1.5958 -0.0533
  102OSM   H18G10369   5.371   4.586   8.837 -0.6485 -0.9020 -2.1654
  102OSM   H18H10370   5.410   4.497   8.680 -0.5431 -1.9020  0.7786
  103OSM      N10371   3.848   2.243  10.672 -0.1808 -0.7334  0.2689
  103OSM    C1510372   3.746   2.332  10.608  0.4913 -0.0767 -0.5961
  103OSM   H15A10373   3.782   2.393  10.526 -2.2669  2.3723 -0.1818
  103OSM   H15B10374   3.723   2.402  10.687  0.1464 -1.8195  0.9051
  103OSM   H15C10375   3.657   2.272  10.594  0.2288 -0.7269  3.0253
  103OSM    C1410376   3.978   2.320  10.705  0.2895 -0.0554  0.8688
  103OSM   H14A10377   4.012   2.392  10.633  0.1589 -0.6475  0.2022
  103OSM   H14B10378   4.047   2.243  10.738 -0.5372 -1.0446  0.3355
  103OSM   H14C10379   3.960   2.379  10.793 -1.1501  0.7839  0.0484
  103OSM    C1310380   3.795   2.182  10.795  0.1156 -0.1267 -0.1257
  103OSM   H13A10381   3.713   2.115  10.777  0.8630 -0.8992 -0.7124
  103OSM   H13B10382   3.773   2.254  10.872  1.1102  0.0894 -0.0260
  103OSM   H13C10383   3.873   2.117  10.831 -0.5273 -0.5330  0.5689
  103OSM    C1210384   3.894   2.134  10.574 -0.4028 -0.0270 -0.2525
  103OSM   H12A10385   3.930   2.171  10.479  3.2302  0.3573  1.1397
  103OSM   H12B10386   3.815   2.061  10.566 -0.6463  0.1532  0.4019
  103OSM    C1110387   4.024   2.051  10.613  0.6975  0.3222 -0.2628
  103OSM   H11A10388   4.111   2.119  10.621  0.5115  0.3706  2.3256
  103OSM   H11B10389   4.040   1.983  10.527  1.4992 -0.5375  0.5343
  103OSM      P10390   4.111   1.978  10.854  0.1520 -0.4040  0.0957
  103OSM    O1310391   4.174   2.115  10.855  0.1448 -0.3184  0.6928
  103OSM    O1410392   4.037   1.928  10.968  0.3810  0.1105 -0.1883
  103OSM    O1110393   4.223   1.874  10.806  0.4344 -0.1444  0.2146
  103OSM    O1210394   4.003   1.982  10.734 -0.3129  0.4755 -0.3923
  103OSM    C1S10395   4.277   1.855  10.673 -1.0606  0.1981  0.3169
  103OSM    H1S10396   4.271   1.949  10.614 -4.0073  1.3760  2.2591
  103OSM    H1T10397   4.214   1.784  10.615  1.4252 -3.4749  1.7718
  103OSM     NF10398   4.496   1.800  10.554  0.5860  0.4577 -0.2513
  103OSM    HNF10399   4.520   1.715  10.507  1.2119  0.3957  0.1824
  103OSM    C2S10400   4.420   1.792  10.685  0.5142  0.1592  0.2251
  103OSM    H2S10401   4.484   1.844  10.759  1.0232  0.6598 -0.5557
  103OSM    C3S10402   4.408   1.653  10.738  0.1964  0.0428 -0.7464
  103OSM    H3S10403   4.328   1.597  10.686 -0.8104  1.4048 -0.7173
  103OSM     O310404   4.370   1.644  10.875  0.9700 -0.5120 -0.3111
  103OSM    HO310405   4.341   1.732  10.901  3.0178  0.2924 -0.5677
  103OSM    C4S10406   4.539   1.583  10.719 -0.3253  0.1853  0.1165
  103OSM    H4S10407   4.547   1.536  10.620  0.9926 -0.4949  0.5213
  103OSM    C5S10408   4.652   1.565  10.798  0.1803 -0.0017 -0.1332
  103OSM    H5S10409   4.636   1.595  10.903  1.5468 -0.0530  0.1149
  103OSM    C6S10410   4.763   1.474  10.764 -0.3515 -0.0454 -0.9495
  103OSM    H6S10411   4.761   1.398  10.845 -2.1508  0.8495 -0.0970
  103OSM    H6T10412   4.857   1.531  10.784 -0.2224  0.6853 -3.3625
  103OSM    C7S10413   4.774   1.415  10.627  0.3830  0.0389  0.7482
  103OSM    H7S10414   4.675   1.368  10.611 -0.6286  1.8429  1.3789
  103OSM    H7T10415   4.851   1.336  10.621 -1.1190 -1.3603 -2.2365
  103OSM    C8S10416   4.788   1.521  10.513  0.6593 -0.2414 -0.6479
  103OSM    H8S10417   4.890   1.563  10.521  0.9221 -0.6842 -1.5173
  103OSM    H8T10418   4.723   1.611  10.518  1.1457  0.1144 -0.6828
  103OSM    C9S10419   4.765   1.451  10.380 -0.1250  0.0192 -0.0563
  103OSM    H9S10420   4.660   1.415  10.390 -0.1331  0.5546  2.2213
  103OSM    H9T10421   4.826   1.358  10.375 -0.4208 -0.1723 -0.1774
  103OSM   C10S10422   4.795   1.536  10.259  0.0240  0.1023 -0.4518
  103OSM   H10S10423   4.894   1.585  10.268  0.8728 -1.3631 -1.2459
  103OSM   H10T10424   4.719   1.615  10.245  0.4344  0.7973  1.0973
  103OSM   C11S10425   4.779   1.453  10.131  0.6775 -0.1996 -0.2796
  103OSM   H11S10426   4.696   1.383  10.156  0.2832  0.1098 -0.7228
  103OSM   H11T10427   4.859   1.380  10.104 -0.7182 -1.3590 -1.4907
  103OSM   C12S10428   4.744   1.530   9.996  0.1936  0.4501  0.0143
  103OSM   H12S10429   4.656   1.598   9.994 -0.7935 -0.8012 -0.5895
  103OSM   H12T10430   4.711   1.442   9.936 -1.8686  1.5572 -0.5712
  103OSM   C13S10431   4.871   1.588   9.925 -0.0747  0.9470 -0.0623
  103OSM   H13S10432   4.944   1.507   9.907  1.7126  3.0705 -3.3908
  103OSM   H13T10433   4.921   1.655   9.998 -0.8310 -0.0329  1.4110
  103OSM   C14S10434   4.847   1.652   9.786  0.5208  0.1009  0.1610
  103OSM   H14S10435   4.940   1.711   9.772  0.6296  0.4309  2.0800
  103OSM   H14T10436   4.773   1.732   9.806  3.1521  2.6748  0.1910
  103OSM   C15S10437   4.811   1.554   9.676 -0.5920 -0.0756  0.3808
  103OSM   H15S10438   4.714   1.505   9.698 -0.7263  0.9435  2.2639
  103OSM   H15T10439   4.887   1.473   9.672 -0.5487 -0.0235  0.1446
  103OSM   C16S10440   4.806   1.628   9.542  0.7640 -0.1390 -0.0299
  103OSM   H16S10441   4.896   1.694   9.542  0.6018  0.0875 -0.5221
  103OSM   H16T10442   4.713   1.689   9.545 -0.5043 -2.0366  1.8214
  103OSM   C17S10443   4.803   1.532   9.420  0.0227 -0.5014 -0.0674
  103OSM   H17S10444   4.716   1.463   9.417  0.8564 -1.6098  0.6649
  103OSM   H17T10445   4.893   1.468   9.421  0.6714  0.2335  3.3617
  103OSM   C18S10446   4.810   1.615   9.291  0.1182  0.4778 -0.2236
  103OSM   H18S10447   4.835   1.548   9.205 -0.5773  1.2897 -1.0814
  103OSM   H18T10448   4.901   1.678   9.293  1.6268 -1.5903  1.8770
  103OSM   H18U10449   4.717   1.667   9.260 -0.0845 -0.7133 -1.7392
  103OSM    C1F10450   4.544   1.911  10.501  0.0915 -0.0665 -0.6844
  103OSM     OF10451   4.548   2.008  10.574  1.1269 -0.0593 -0.1124
  103OSM    C2F10452   4.589   1.907  10.358 -0.2363  0.5910  0.6337
  103OSM    H2F10453   4.604   1.799  10.337 -1.7855  0.5896 -0.6305
  103OSM    H2G10454   4.694   1.943  10.346  0.6518 -0.9270  3.1843
  103OSM    C3F10455   4.493   1.987  10.268  0.3761  0.2664  0.2870
  103OSM    H3F10456   4.481   2.088  10.312 -3.4154 -0.3222  0.9813
  103OSM    H3G10457   4.396   1.939  10.295  0.9804  0.0484  2.1403
  103OSM    C4F10458   4.526   1.996  10.107 -0.4402  0.9081 -0.0381
  103OSM    H4F10459   4.540   1.889  10.084  0.1282  1.0701 -0.4881
  103OSM    H4G10460   4.629   2.037  10.103 -0.2490  0.4529  0.1370
  103OSM    C5F10461   4.425   2.073  10.030 -0.0376 -0.4398  0.5049
  103OSM    H5F10462   4.418   2.181  10.058  1.2662 -0.4089  0.7802
  103OSM    H5G10463   4.327   2.026  10.050  0.5563 -2.1328 -0.3671
  103OSM    C6F10464   4.442   2.045   9.878 -0.2842 -0.4838  0.4278
  103OSM    H6F10465   4.481   1.946   9.846 -1.1739 -0.7417  0.1016
  103OSM    H6G10466   4.520   2.113   9.836 -1.8148 -0.0566 -1.9109
  103OSM    C7F10467   4.317   2.083   9.793  0.1916  0.7250 -0.1785
  103OSM    H7F10468   4.275   2.185   9.810  1.3027  1.3094 -0.8731
  103OSM    H7G10469   4.235   2.011   9.814 -0.5883  1.5177 -0.4476
  103OSM    C8F10470   4.340   2.055   9.639 -0.0608 -0.0295  0.6229
  103OSM    H8F10471   4.251   2.071   9.575 -0.2723 -0.0060  0.9174
  103OSM    H8G10472   4.371   1.951   9.618  0.0591 -0.0404  0.8518
  103OSM    C9F10473   4.463   2.146   9.605 -0.0087 -0.5600 -0.0396
  103OSM    H9F10474   4.473   2.239   9.663 -0.8498 -0.8851  0.6537
  103OSM   C10F10475   4.550   2.107   9.515  0.2571  0.3215  0.9158
  103OSM   H10F10476   4.639   2.170   9.499  1.7768 -1.1704  2.9258
  103OSM   C11F10477   4.547   1.990   9.424  0.3063  0.3232  0.6304
  103OSM   H11F10478   4.471   1.915   9.454  0.9507 -1.1916 -1.3041
  103OSM   H11G10479   4.651   1.949   9.430 -0.1706 -1.5708 -2.1431
  103OSM   C12F10480   4.531   2.034   9.276  0.2926  0.2115 -0.0438
  103OSM   H12F10481   4.613   2.101   9.244 -0.3903  0.3886 -1.5381
  103OSM   H12G10482   4.436   2.091   9.262 -0.6233 -1.3363 -0.3883
  103OSM   C13F10483   4.545   1.919   9.177  0.2241 -0.3628 -0.5636
  103OSM   H13F10484   4.449   1.862   9.178  0.0867 -0.1365  0.3699
  103OSM   H13G10485   4.627   1.847   9.200  1.6489  1.5193  0.4672
  103OSM   C14F10486   4.578   1.982   9.042  0.0886  0.5101  0.5427
  103OSM   H14F10487   4.687   2.001   9.047  0.6518 -2.0949 -0.1148
  103OSM   H14G10488   4.516   2.074   9.036  0.2765  0.6257  0.3847
  103OSM   C15F10489   4.555   1.894   8.920 -0.0219 -0.0992  0.1274
  103OSM   H15F10490   4.582   1.951   8.829 -1.6755 -0.9217 -0.9109
  103OSM   H15G10491   4.445   1.886   8.914 -0.1448  1.3533  0.0781
  103OSM   C16F10492   4.622   1.753   8.926  0.8266 -0.3732  0.4305
  103OSM   H16F10493   4.554   1.683   8.978 -0.9305  0.2792 -0.8851
  103OSM   H16G10494   4.713   1.765   8.988  0.7879 -0.1816  0.4500
  103OSM   C17F10495   4.667   1.701   8.784 -1.0127 -0.0857 -0.6286
  103OSM   H17F10496   4.771   1.734   8.764 -0.2834 -0.5017  2.0930
  103OSM   H17G10497   4.597   1.736   8.705 -1.5086  0.5913  0.0957
  103OSM   C18F10498   4.663   1.548   8.791  0.0084  0.1068 -0.1996
  103OSM   H18F10499   4.736   1.502   8.721  0.2317 -0.9595  0.7099
  103OSM   H18G10500   4.560   1.506   8.788 -0.3488  0.9692 -0.4812
  103OSM   H18H10501   4.697   1.518   8.892 -2.0576 -0.0288  0.5115
  104OSM      N10502   0.569   6.611  11.007 -0.2460  0.1382 -0.3026
  104OSM    C1510503   0.616   6.603  10.870 -0.0468 -0.5902  0.0033
  104OSM   H15A10504   0.539   6.610  10.794  1.8868 -0.6929 -2.0482
  104OSM   H15B10505   0.663   6.508  10.853 -0.8941 -0.7660 -1.5586
  104OSM   H15C10506   0.688   6.679  10.846 -0.1231 -0.9506 -1.4314
  104OSM    C1410507   0.463   6.507  11.042  0.0336 -0.4117  0.5288
  104OSM   H14A10508   0.434   6.511  11.146 -0.4131  0.4976  0.3793
  104OSM   H14B10509   0.497   6.405  11.030  0.8233 -0.1882  0.8343
  104OSM   H14C10510   0.373   6.529  10.987  0.8310  1.7797  0.0158
  104OSM    C1310511   0.698   6.583  11.085  0.1487  0.5899 -0.0424
  104OSM   H13A10512   0.686   6.567  11.191 -0.8381  0.2271 -0.2002
  104OSM   H13B10513   0.764   6.666  11.071  0.6623 -0.1241 -2.3351
  104OSM   H13C10514   0.751   6.501  11.038 -0.6431 -1.1118  1.8670
  104OSM    C1210515   0.521   6.750  11.049 -0.4292  0.6315 -0.1096
  104OSM   H12A10516   0.497   6.761  11.154  0.8113  0.4019  0.2118
  104OSM   H12B10517   0.425   6.771  11.004 -1.4179 -1.2273  1.0079
  104OSM    C1110518   0.622   6.871  11.050  0.1208  0.4584 -0.2386
  104OSM   H11A10519   0.706   6.837  11.113 -1.1118 -0.8765  0.7426
  104OSM   H11B10520   0.574   6.959  11.097 -2.6143 -0.1582 -1.6537
  104OSM      P10521   0.619   7.014  10.818  0.2931 -0.2113 -0.2866
  104OSM    O1310522   0.485   6.991  10.763 -0.2784 -0.2990 -0.1185
  104OSM    O1410523   0.637   7.149  10.882  0.2896  0.7343  0.9233
  104OSM    O1110524   0.726   7.009  10.701 -0.2288  0.5279 -0.1693
  104OSM    O1210525   0.669   6.889  10.916  0.0663  0.2456  0.0797
  104OSM    C1S10526   0.772   6.881  10.647  0.4513 -0.6398 -0.0034
  104OSM    H1S10527   0.710   6.801  10.693 -1.9614  1.5922  0.8787
  104OSM    H1T10528   0.881   6.875  10.671  0.4964 -0.7610 -0.2404
  104OSM     NF10529   0.764   6.743  10.452 -0.6191 -0.1775  0.0899
  104OSM    HNF10530   0.857   6.709  10.440  0.4132  1.5385  2.3911
  104OSM    C2S10531   0.756   6.877  10.500 -0.1693  0.4737  0.0868
  104OSM    H2S10532   0.652   6.906  10.473 -0.1860 -0.3297 -0.7743
  104OSM    C3S10533   0.855   6.978  10.420  0.3084 -0.7901 -0.7444
  104OSM    H3S10534   0.952   6.938  10.456 -1.0362 -2.1102  1.6516
  104OSM     O310535   0.840   7.110  10.465  0.2810  0.0765 -0.3403
  104OSM    HO310536   0.844   7.094  10.560  0.5083 -0.5827 -0.4559
  104OSM    C4S10537   0.831   6.978  10.274  0.3017  0.0199  0.8696
  104OSM    H4S10538   0.735   7.024  10.247  0.9072  1.0847  0.4507
  104OSM    C5S10539   0.921   6.951  10.177  0.7755  0.3500 -0.8867
  104OSM    H5S10540   1.020   6.916  10.210  0.0623 -0.2865  0.7303
  104OSM    C6S10541   0.880   6.956  10.034  0.5110  0.3542  0.4434
  104OSM    H6S10542   0.967   6.999   9.980 -1.0143 -0.0357 -2.5070
  104OSM    H6T10543   0.787   7.016  10.022 -1.6724 -3.1289 -1.7347
  104OSM    C7S10544   0.852   6.811   9.979 -0.2084 -0.5495  0.3310
  104OSM    H7S10545   0.775   6.759  10.040 -0.9815 -1.4107 -1.3104
  104OSM    H7T10546   0.939   6.740   9.982 -0.2194 -0.6511 -1.0927
  104OSM    C8S10547   0.800   6.813   9.835  0.1691  0.5543  0.0218
  104OSM    H8S10548   0.713   6.882   9.829 -0.3635 -0.0831  0.3031
  104OSM    H8T10549   0.768   6.708   9.818  1.2005 -0.2690  2.6440
  104OSM    C9S10550   0.899   6.857   9.726 -0.4441 -0.8718  0.3134
  104OSM    H9S10551   0.999   6.813   9.746  0.2844 -0.4649 -2.1440
  104OSM    H9T10552   0.918   6.966   9.731 -0.4677 -0.6864 -2.2747
  104OSM   C10S10553   0.856   6.830   9.584  0.4442 -0.2143 -0.0137
  104OSM   H10S10554   0.916   6.882   9.506 -0.2667 -0.4315 -0.7249
  104OSM   H10T10555   0.757   6.875   9.561  1.0707  1.0048 -0.4361
  104OSM   C11S10556   0.865   6.684   9.550  0.6225  0.2285  0.2849
  104OSM   H11S10557   0.819   6.622   9.630  1.0229  0.2364  0.5245
  104OSM   H11T10558   0.971   6.650   9.553  1.0042  1.3011 -0.4770
  104OSM   C12S10559   0.801   6.663   9.412  0.0891 -0.5318 -0.0467
  104OSM   H12S10560   0.829   6.752   9.352  3.1368 -1.4696 -0.1709
  104OSM   H12T10561   0.690   6.657   9.408 -0.0602  1.3747  0.2424
  104OSM   C13S10562   0.856   6.536   9.344  0.1402  0.8226  0.3507
  104OSM   H13S10563   0.818   6.436   9.375 -0.4193  0.5926 -1.0221
  104OSM   H13T10564   0.966   6.542   9.364 -0.0432  1.5454  1.2131
  104OSM   C14S10565   0.820   6.549   9.190  0.3034  0.5636  0.4832
  104OSM   H14S10566   0.891   6.625   9.153 -0.4609  0.5154 -1.1324
  104OSM   H14T10567   0.714   6.584   9.192  0.1225  0.0672  2.8285
  104OSM   C15S10568   0.820   6.420   9.104  0.4548 -0.9661 -0.2435
  104OSM   H15S10569   0.720   6.373   9.115 -0.4213  1.1236  1.4952
  104OSM   H15T10570   0.891   6.349   9.152  0.6171  0.1524  1.2516
  104OSM   C16S10571   0.839   6.447   8.963 -0.1506  0.4788 -0.3429
  104OSM   H16S10572   0.948   6.463   8.945  0.2857 -2.1787 -0.4097
  104OSM   H16T10573   0.784   6.540   8.939  1.4308  2.0641  1.7693
  104OSM   C17S10574   0.802   6.332   8.871  0.1255 -0.6619  0.3317
  104OSM   H17S10575   0.697   6.303   8.889 -0.5206  1.8326  0.8210
  104OSM   H17T10576   0.871   6.248   8.897  2.6044  1.4692  1.0730
  104OSM   C18S10577   0.823   6.354   8.721 -0.7226  0.0632  0.2821
  104OSM   H18S10578   0.751   6.429   8.682 -1.0293 -0.5077 -0.2746
  104OSM   H18T10579   0.805   6.260   8.664 -1.6937 -0.5021  1.4730
  104OSM   H18U10580   0.924   6.396   8.701 -0.5793 -0.5899 -0.4061
  104OSM    C1F10581   0.664   6.657  10.451  0.1975 -0.5553  0.3280
  104OSM     OF10582   0.554   6.673  10.501 -0.1637  0.0652  0.1675
  104OSM    C2F10583   0.697   6.520  10.397  0.2970 -0.5990  0.6634
  104OSM    H2F10584   0.735   6.455  10.479 -0.3802 -2.3602 -0.3561
  104OSM    H2G10585   0.785   6.526  10.329  0.0873 -0.1405  0.4333
  104OSM    C3F10586   0.583   6.446  10.325  0.2382  0.1320 -0.3308
  104OSM    H3F10587   0.487   6.459  10.379  0.0493 -3.9270  0.6440
  104OSM    H3G10588   0.602   6.337  10.316 -0.9456 -0.2052  0.8769
  104OSM    C4F10589   0.546   6.511  10.188 -1.1947  0.0122 -0.4662
  104OSM    H4F10590   0.640   6.520  10.130 -0.5017  2.1744  0.8703
  104OSM    H4G10591   0.501   6.612  10.204  0.6665  0.6586  1.1248
  104OSM    C5F10592   0.441   6.431  10.100 -0.1929  0.0115 -0.3718
  104OSM    H5F10593   0.345   6.405  10.150 -0.0046  1.9565  1.1125
  104OSM    H5G10594   0.490   6.335  10.071  0.6292  0.4492 -0.4649
  104OSM    C6F10595   0.401   6.500   9.968 -0.3364  0.4699  0.1238
  104OSM    H6F10596   0.370   6.604   9.993  1.8793  1.3804 -0.5921
  104OSM    H6G10597   0.317   6.444   9.922 -0.6272  0.6646  0.4104
  104OSM    C7F10598   0.519   6.530   9.870 -0.4771 -0.4349  0.0138
  104OSM    H7F10599   0.560   6.434   9.831 -0.0710  0.2695 -1.3475
  104OSM    H7G10600   0.588   6.592   9.930 -1.6312  1.8773 -0.9114
  104OSM    C8F10601   0.467   6.603   9.741  0.1443 -0.1852 -0.2396
  104OSM    H8F10602   0.372   6.550   9.721 -0.7690  1.6545 -0.9982
  104OSM    H8G10603   0.543   6.575   9.665 -1.1179 -0.4155 -1.4523
  104OSM    C9F10604   0.439   6.749   9.751 -0.2815  0.8087  0.2785
  104OSM    H9F10605   0.460   6.803   9.845 -0.0975  0.2578  0.5564
  104OSM   C10F10606   0.407   6.819   9.644  0.3084 -0.4396  0.0243
  104OSM   H10F10607   0.374   6.923   9.659 -2.1601 -1.0227 -0.8717
  104OSM   C11F10608   0.388   6.772   9.505 -0.4577 -0.1438  0.3525
  104OSM   H11F10609   0.286   6.797   9.470 -0.9606 -2.6080 -0.0893
  104OSM   H11G10610   0.404   6.664   9.488 -0.2390 -0.6189  3.0664
  104OSM   C12F10611   0.487   6.859   9.419  0.2254  0.6096 -0.3843
  104OSM   H12F10612   0.595   6.839   9.434 -0.2097 -0.8302  1.1693
  104OSM   H12G10613   0.479   6.967   9.444 -2.1415  0.0869  1.5271
  104OSM   C13F10614   0.461   6.835   9.275 -0.1979  0.2844  0.2774
  104OSM   H13F10615   0.356   6.857   9.249 -0.0207 -1.6737 -2.4565
  104OSM   H13G10616   0.471   6.726   9.258 -1.7137  0.1938 -0.1535
  104OSM   C14F10617   0.547   6.920   9.182  0.3231  0.0159  0.3971
  104OSM   H14F10618   0.657   6.915   9.196  0.3291 -0.4169  0.1958
  104OSM   H14G10619   0.510   7.025   9.190  0.0127  0.0910 -1.4312
  104OSM   C15F10620   0.536   6.875   9.028  0.2549 -0.0252 -0.6903
  104OSM   H15F10621   0.604   6.788   9.025 -0.0099 -0.2188 -2.7921
  104OSM   H15G10622   0.572   6.965   8.973 -1.9740  2.7339  1.9657
  104OSM   C16F10623   0.397   6.838   8.985  0.1539 -0.5033  0.4547
  104OSM   H16F10624   0.328   6.922   9.011 -1.0114 -0.9284 -1.0794
  104OSM   H16G10625   0.353   6.747   9.032 -0.1978 -0.7391 -0.3188
  104OSM   C17F10626   0.391   6.828   8.832  0.3808 -0.3023  0.2729
  104OSM   H17F10627   0.399   6.924   8.777  1.8135  0.1159  1.1563
  104OSM   H17G10628   0.298   6.776   8.801  0.3126 -0.0812  0.0996
  104OSM   C18F10629   0.490   6.730   8.781 -0.1362  0.6163  0.4007
  104OSM   H18F10630   0.470   6.629   8.822  0.5045 -0.3094 -1.4313
  104OSM   H18G10631   0.592   6.761   8.810 -0.3275 -0.0826  1.8772
  104OSM   H18H10632   0.489   6.725   8.670 -0.7515  2.5065  0.2927
  105OSM      N10633   3.935   5.463  10.906 -0.8730 -0.6548 -0.2654
  105OSM    C1510634   3.909   5.556  11.027 -0.6367 -0.3846 -0.7901
  105OSM   H15A10635   3.809   5.571  11.064 -0.7917 -0.9412 -0.9685
  105OSM   H15B10636   3.954   5.653  11.014  0.5185 -1.0966 -2.4243
  105OSM   H15C10637   3.958   5.507  11.110 -0.0216 -0.8921 -1.4429
  105OSM    C1410638   3.866   5.506  10.789  0.2971 -0.3882 -0.1818
  105OSM   H14A10639   3.893   5.452  10.700 -0.4445 -2.2614  0.6843
  105OSM   H14B10640   3.876   5.612  10.770 -2.9853 -0.0750 -0.6559
  105OSM   H14C10641   3.760   5.487  10.794  0.1785  0.1039 -0.7710
  105OSM    C1310642   4.079   5.455  10.884 -0.5812 -0.1866  0.4439
  105OSM   H13A10643   4.139   5.450  10.974 -1.0759 -0.3184  0.7701
  105OSM   H13B10644   4.112   5.540  10.825 -1.4572 -1.2839 -1.7562
  105OSM   H13C10645   4.093   5.369  10.820 -2.0789  1.5381 -2.4412
  105OSM    C1210646   3.891   5.320  10.938  0.1973  0.8612  0.8124
  105OSM   H12A10647   3.952   5.287  11.021  2.2985  0.3936 -0.8395
  105OSM   H12B10648   3.911   5.257  10.852 -0.0365  1.2132  0.4994
  105OSM    C1110649   3.746   5.286  10.971 -0.1246  0.5764 -0.1948
  105OSM   H11A10650   3.705   5.352  11.050 -1.3113 -0.5793  0.1839
  105OSM   H11B10651   3.749   5.181  11.007  0.5429 -0.4200 -2.9403
  105OSM      P10652   3.511   5.236  10.868  0.1772  0.3535  0.0310
  105OSM    O1310653   3.516   5.118  10.778  0.6963  0.1274 -0.1232
  105OSM    O1410654   3.480   5.198  11.011 -0.1499  0.4442  0.5785
  105OSM    O1110655   3.404   5.340  10.822 -0.0336  0.4628 -0.3647
  105OSM    O1210656   3.651   5.299  10.854 -0.1815  0.3357  0.1160
  105OSM    C1S10657   3.401   5.401  10.697 -0.6172  0.1405 -0.1545
  105OSM    H1S10658   3.502   5.394  10.651 -0.6894  1.7302 -0.6292
  105OSM    H1T10659   3.367   5.506  10.712  0.2449  0.2042  1.5962
  105OSM     NF10660   3.320   5.395  10.466  0.1129 -0.5151  0.2702
  105OSM    HNF10661   3.259   5.470  10.441 -1.0094 -0.5084  2.7595
  105OSM    C2S10662   3.305   5.334  10.596 -0.5161  0.1059  0.3894
  105OSM    H2S10663   3.333   5.228  10.581  0.0265  0.3080 -0.0851
  105OSM    C3S10664   3.166   5.352  10.666  0.0071 -0.4747  0.2745
  105OSM    H3S10665   3.151   5.460  10.690  3.6675 -0.0671  1.2784
  105OSM     O310666   3.141   5.281  10.788 -0.4210  0.5100 -0.3765
  105OSM    HO310667   3.226   5.264  10.830 -0.4132 -2.6427 -1.4022
  105OSM    C4S10668   3.057   5.302  10.571  0.0094 -0.0768  0.0482
  105OSM    H4S10669   3.064   5.199  10.533  2.7536 -0.2479  0.8530
  105OSM    C5S10670   2.950   5.376  10.541  0.4503  0.2129 -0.4764
  105OSM    H5S10671   2.941   5.478  10.582  2.3228  0.4925 -0.6905
  105OSM    C6S10672   2.839   5.333  10.442  0.5180 -1.0746 -0.3685
  105OSM    H6S10673   2.750   5.383  10.487  1.6647 -0.3388  1.1792
  105OSM    H6T10674   2.825   5.223  10.450 -0.7747 -0.9667 -0.9060
  105OSM    C7S10675   2.849   5.397  10.304 -0.5620  0.2827 -0.5122
  105OSM    H7S10676   2.821   5.504  10.308  2.3002  1.2558 -2.7188
  105OSM    H7T10677   2.784   5.358  10.222 -1.0546  1.1212 -0.5319
  105OSM    C8S10678   2.984   5.389  10.232 -0.2731 -0.0426  0.5805
  105OSM    H8S10679   3.031   5.288  10.230 -1.2805 -0.5057 -0.2033
  105OSM    H8T10680   3.057   5.453  10.288  1.0164 -0.1128 -0.9722
  105OSM    C9S10681   2.955   5.455  10.097  0.1196 -0.2093  0.4206
  105OSM    H9S10682   2.891   5.545  10.107 -1.3935 -0.9328 -1.8215
  105OSM    H9T10683   2.885   5.391  10.040 -1.4658  0.3947  1.6440
  105OSM   C10S10684   3.082   5.502  10.025 -0.7661 -0.1812  0.5723
  105OSM   H10S10685   3.141   5.409  10.009 -4.2409 -2.0938 -2.6271
  105OSM   H10T10686   3.142   5.578  10.079 -1.7484  0.9944  0.0305
  105OSM   C11S10687   3.039   5.563   9.892 -0.1001 -1.0287  0.4355
  105OSM   H11S10688   2.989   5.661   9.909  1.1031 -0.3486  0.1366
  105OSM   H11T10689   2.965   5.489   9.853 -1.1587  0.4298 -0.4419
  105OSM   C12S10690   3.163   5.606   9.812  0.1119  0.2845 -0.0225
  105OSM   H12S10691   3.231   5.518   9.805 -1.2107 -0.6947 -1.4491
  105OSM   H12T10692   3.223   5.680   9.868  1.3607 -0.6038 -0.1233
  105OSM   C13S10693   3.138   5.648   9.672  0.1389  0.5728  0.4655
  105OSM   H13S10694   3.125   5.756   9.652  1.0982  0.8514  1.2929
  105OSM   H13T10695   3.054   5.588   9.631  0.8358  1.0838 -1.8291
  105OSM   C14S10696   3.256   5.625   9.574  0.4760  0.2096  0.2655
  105OSM   H14S10697   3.300   5.523   9.583 -1.0920 -0.3394  2.6506
  105OSM   H14T10698   3.345   5.686   9.600  0.5637 -0.1228  0.7650
  105OSM   C15S10699   3.205   5.656   9.431 -0.0983 -0.1794 -0.5411
  105OSM   H15S10700   3.179   5.764   9.431 -0.2264 -0.2087 -0.3658
  105OSM   H15T10701   3.110   5.599   9.422  0.6410 -1.8745  1.4474
  105OSM   C16S10702   3.303   5.638   9.313 -0.1189  0.6691 -0.0526
  105OSM   H16S10703   3.316   5.531   9.286 -0.6965  0.8627 -1.1924
  105OSM   H16T10704   3.397   5.689   9.341 -1.0917  2.8043 -0.3948
  105OSM   C17S10705   3.251   5.694   9.183  0.4537 -0.2445 -0.2411
  105OSM   H17S10706   3.259   5.804   9.193  5.1878 -0.5270  1.7967
  105OSM   H17T10707   3.143   5.676   9.166  0.3625  0.1756 -0.1191
  105OSM   C18S10708   3.337   5.653   9.063  0.2682 -0.5106  0.2502
  105OSM   H18S10709   3.329   5.543   9.053 -0.6948 -0.6152  1.8565
  105OSM   H18T10710   3.443   5.686   9.075 -0.1842  1.1025  0.0834
  105OSM   H18U10711   3.297   5.700   8.970  1.6635  1.0879  0.4071
  105OSM    C1F10712   3.423   5.374  10.385  0.0849 -1.1181 -0.3274
  105OSM     OF10713   3.495   5.275  10.399 -0.4358 -0.5503 -0.0766
  105OSM    C2F10714   3.464   5.475  10.281  0.8351 -0.0999  0.5230
  105OSM    H2F10715   3.558   5.528  10.306  1.2909 -0.5509 -0.2148
  105OSM    H2G10716   3.376   5.536  10.251  1.3050 -0.0158 -0.7194
  105OSM    C3F10717   3.479   5.398  10.150  0.3460 -0.6835  0.0198
  105OSM    H3F10718   3.395   5.327  10.135 -0.3630 -0.2670  1.7740
  105OSM    H3G10719   3.571   5.336  10.161 -0.4241 -2.0503 -0.9598
  105OSM    C4F10720   3.477   5.494  10.024 -0.2148 -0.7107  0.9847
  105OSM    H4F10721   3.393   5.567  10.028 -0.2302 -0.3764 -2.3288
  105OSM    H4G10722   3.466   5.437   9.929 -3.9422  3.4279 -1.4746
  105OSM    C5F10723   3.601   5.585  10.027 -0.1377 -0.4594  0.2223
  105OSM    H5F10724   3.689   5.516  10.028  0.5514  0.4075  0.4334
  105OSM    H5G10725   3.609   5.628  10.129 -0.3266  0.2576 -0.0577
  105OSM    C6F10726   3.605   5.697   9.924 -0.2611 -0.4239  0.1515
  105OSM    H6F10727   3.710   5.735   9.930  0.1365 -1.6909  1.6678
  105OSM    H6G10728   3.532   5.778   9.945 -0.1228  0.0493 -1.0685
  105OSM    C7F10729   3.577   5.642   9.789 -1.5972 -0.2634  0.1184
  105OSM    H7F10730   3.598   5.722   9.715 -0.8914 -1.3697 -0.9204
  105OSM    H7G10731   3.467   5.628   9.778 -2.1129  2.0221  1.7488
  105OSM    C8F10732   3.656   5.506   9.742  0.1059  0.4414 -0.3565
  105OSM    H8F10733   3.671   5.444   9.834 -5.1179 -0.2096  0.3680
  105OSM    H8G10734   3.755   5.530   9.698  0.1948 -1.5964 -1.4054
  105OSM    C9F10735   3.567   5.416   9.653 -0.1185 -0.0389 -0.0419
  105OSM    H9F10736   3.465   5.384   9.678 -0.5127  0.3491 -1.1197
  105OSM   C10F10737   3.602   5.385   9.532  0.2764  0.1028 -0.5879
  105OSM   H10F10738   3.539   5.312   9.478  1.7729 -1.1333 -0.7197
  105OSM   C11F10739   3.732   5.430   9.472  1.2256  0.6623 -0.7279
  105OSM   H11F10740   3.753   5.378   9.376 -1.5731  0.3493 -1.2415
  105OSM   H11G10741   3.823   5.414   9.534  2.5076  2.3734 -2.0584
  105OSM   C12F10742   3.713   5.581   9.420 -0.7396 -0.4777 -0.5367
  105OSM   H12F10743   3.692   5.662   9.494  1.0027 -1.6213  1.3294
  105OSM   H12G10744   3.619   5.576   9.361 -1.4524 -4.3051  0.6108
  105OSM   C13F10745   3.819   5.650   9.331 -0.6541  0.0070 -0.2087
  105OSM   H13F10746   3.917   5.651   9.382 -0.4574  0.1079 -0.5833
  105OSM   H13G10747   3.775   5.752   9.323 -2.2320 -0.6481 -0.3463
  105OSM   C14F10748   3.828   5.589   9.191 -0.1949  0.0225 -0.4201
  105OSM   H14F10749   3.721   5.564   9.172 -0.7429 -0.6770  2.9662
  105OSM   H14G10750   3.869   5.485   9.196 -0.5449 -0.0877  0.5198
  105OSM   C15F10751   3.893   5.687   9.096  0.8043  1.0823 -0.0602
  105OSM   H15F10752   3.995   5.719   9.124  0.5964  1.5372  0.1848
  105OSM   H15G10753   3.833   5.781   9.094 -1.2976  0.1387  4.7616
  105OSM   C16F10754   3.900   5.637   8.953  0.7295 -0.3773 -0.5381
  105OSM   H16F10755   3.797   5.610   8.921 -0.6420  0.3920  2.8094
  105OSM   H16G10756   3.950   5.538   8.952  0.9760 -0.3769  2.6796
  105OSM   C17F10757   3.970   5.748   8.860  0.2033 -0.3353 -0.1571
  105OSM   H17F10758   4.077   5.750   8.888 -0.1196 -0.8325  1.1737
  105OSM   H17G10759   3.916   5.845   8.859  1.0841  0.2133 -2.6432
  105OSM   C18F10760   3.959   5.707   8.711 -0.8288 -0.6371  0.2678
  105OSM   H18F10761   4.026   5.765   8.644 -0.9992 -0.7284  0.0145
  105OSM   H18G10762   3.858   5.726   8.669 -0.3350 -0.7976 -1.0484
  105OSM   H18H10763   3.974   5.598   8.693  1.4452 -0.1116 -1.5648
  106OSM      N10764   1.443   1.852  11.132 -0.7411 -0.1039 -0.5485
  106OSM    C1510765   1.388   1.745  11.228 -0.0854  0.0824 -0.3025
  106OSM   H15A10766   1.325   1.785  11.306  1.1060  0.2715  0.5962
  106OSM   H15B10767   1.476   1.697  11.268  0.3776  0.7064 -0.5522
  106OSM   H15C10768   1.334   1.675  11.167  0.5027 -0.4057 -0.2753
  106OSM    C1410769   1.329   1.922  11.068 -0.0422 -0.2973  0.6928
  106OSM   H14A10770   1.366   2.003  11.006  1.4782 -0.3885  1.4385
  106OSM   H14B10771   1.255   1.958  11.138 -1.5900  0.6626 -1.3251
  106OSM   H14C10772   1.279   1.861  10.994  1.1100  0.1638 -0.5164
  106OSM    C1310773   1.522   1.955  11.220  1.1544 -0.5530  0.4955
  106OSM   H13A10774   1.451   2.004  11.285  0.9600  0.7643 -0.6694
  106OSM   H13B10775   1.572   2.024  11.154 -0.8208 -0.7428 -1.2833
  106OSM   H13C10776   1.594   1.908  11.286 -1.0871 -1.8452  2.1419
  106OSM    C1210777   1.536   1.784  11.032  0.2573  0.1930 -0.3350
  106OSM   H12A10778   1.486   1.704  10.981 -1.7409  1.6013 -0.7070
  106OSM   H12B10779   1.613   1.736  11.091 -1.0675 -0.6749  0.7314
  106OSM    C1110780   1.606   1.874  10.920  1.0421  0.2033 -0.1123
  106OSM   H11A10781   1.520   1.925  10.872  0.7232 -0.8118 -0.6456
  106OSM   H11B10782   1.660   1.803  10.853 -2.2689 -1.6707 -1.0553
  106OSM      P10783   1.789   2.044  10.871  0.2628  0.1635 -0.7331
  106OSM    O1310784   1.804   2.184  10.918  0.0160 -0.6266 -0.3685
  106OSM    O1410785   1.911   1.964  10.871 -0.0184  0.1135  0.1860
  106OSM    O1110786   1.713   2.038  10.736  0.0647  0.6325  0.5015
  106OSM    O1210787   1.681   1.980  10.973  0.3195  1.1970 -0.0504
  106OSM    C1S10788   1.602   2.117  10.703  0.4726 -0.3572 -0.3036
  106OSM    H1S10789   1.631   2.224  10.701  1.5908 -0.6385  0.3145
  106OSM    H1T10790   1.517   2.091  10.769  0.0800 -0.7485 -0.9439
  106OSM     NF10791   1.450   2.187  10.511 -0.3725  0.4708  0.1670
  106OSM    HNF10792   1.353   2.164  10.519  0.2322 -1.9072  1.5864
  106OSM    C2S10793   1.543   2.086  10.555 -0.3150 -0.1120  0.5534
  106OSM    H2S10794   1.625   2.081  10.480  0.2763 -1.3307  1.2398
  106OSM    C3S10795   1.471   1.940  10.554  0.3118 -0.4285 -1.0506
  106OSM    H3S10796   1.377   1.937  10.613  1.6698 -1.9927  1.2139
  106OSM     O310797   1.544   1.839  10.617  0.0363  0.3857 -0.2219
  106OSM    HO310798   1.606   1.892  10.667  0.8879 -0.0638 -0.7921
  106OSM    C4S10799   1.432   1.898  10.409 -0.0375 -0.3198 -0.2169
  106OSM    H4S10800   1.333   1.935  10.381  0.3184  0.6667 -0.1826
  106OSM    C5S10801   1.514   1.838  10.319 -0.2469  0.3503  0.4688
  106OSM    H5S10802   1.620   1.815  10.334  0.5478  2.3808 -1.4481
  106OSM    C6S10803   1.471   1.814  10.175  0.1739 -0.4935  0.2743
  106OSM    H6S10804   1.555   1.848  10.111  0.9551 -1.1072  0.9425
  106OSM    H6T10805   1.374   1.860  10.148  0.7549 -0.0841 -1.2202
  106OSM    C7S10806   1.457   1.661  10.133 -0.0738  0.2259 -0.2529
  106OSM    H7S10807   1.390   1.626  10.214 -1.7998  1.3394 -1.1385
  106OSM    H7T10808   1.558   1.614  10.137  0.0541  0.5500  0.5214
  106OSM    C8S10809   1.395   1.614   9.997  0.6346 -0.2368 -1.0214
  106OSM    H8S10810   1.300   1.671   9.988  0.1394 -0.6826  0.8623
  106OSM    H8T10811   1.365   1.508  10.013  0.8006 -0.1094  0.3178
  106OSM    C9S10812   1.492   1.642   9.878  0.4050 -0.5465  0.0668
  106OSM    H9S10813   1.582   1.582   9.903 -0.9102 -2.5154  0.2528
  106OSM    H9T10814   1.516   1.750   9.865  1.6891 -0.7556  0.5829
  106OSM   C10S10815   1.435   1.592   9.747 -0.1452 -0.4008 -0.0967
  106OSM   H10S10816   1.355   1.668   9.735  0.5713  0.3375 -0.3369
  106OSM   H10T10817   1.385   1.493   9.753 -0.1263 -0.4100 -0.0899
  106OSM   C11S10818   1.535   1.608   9.633  0.3578 -0.7403  0.5586
  106OSM   H11S10819   1.625   1.554   9.668 -0.3446 -3.6101 -1.6838
  106OSM   H11T10820   1.564   1.715   9.623 -2.3980  0.1271  1.0532
  106OSM   C12S10821   1.493   1.550   9.494  0.2696 -0.1929 -0.0696
  106OSM   H12S10822   1.393   1.586   9.461  0.4316 -0.8600 -1.3376
  106OSM   H12T10823   1.491   1.439   9.499 -1.3216 -0.1368  2.0625
  106OSM   C13S10824   1.598   1.587   9.385  0.3367  0.2013  0.2438
  106OSM   H13S10825   1.693   1.530   9.382  1.3315  1.7804  0.5705
  106OSM   H13T10826   1.621   1.695   9.400  0.2498  0.3319 -0.5338
  106OSM   C14S10827   1.539   1.604   9.240 -0.4706  0.2651  0.0395
  106OSM   H14S10828   1.461   1.683   9.239 -0.9789 -0.2343  0.1362
  106OSM   H14T10829   1.494   1.505   9.221  2.5192 -0.7167 -2.7913
  106OSM   C15S10830   1.654   1.630   9.141  0.0586 -0.2656  0.1259
  106OSM   H15S10831   1.683   1.536   9.088 -1.3115  0.0877 -1.3540
  106OSM   H15T10832   1.745   1.671   9.189 -1.0630 -0.0737  2.2074
  106OSM   C16S10833   1.616   1.735   9.041 -0.0030  0.0184 -0.1800
  106OSM   H16S10834   1.605   1.839   9.078  0.8387  0.6854 -1.6940
  106OSM   H16T10835   1.515   1.708   9.006 -1.1616  0.4088  2.6192
  106OSM   C17S10836   1.720   1.721   8.923 -0.2726 -0.0048 -0.3998
  106OSM   H17S10837   1.719   1.621   8.875 -1.1385  0.1410 -0.7005
  106OSM   H17T10838   1.820   1.762   8.949 -1.3803  2.8620 -0.2366
  106OSM   C18S10839   1.682   1.823   8.812 -0.0481 -0.2407  0.3608
  106OSM   H18S10840   1.577   1.811   8.778 -0.8937  4.6256  0.5878
  106OSM   H18T10841   1.746   1.788   8.728 -0.1971 -3.0420  1.3209
  106OSM   H18U10842   1.710   1.927   8.837 -0.9363  0.4865 -1.4477
  106OSM    C1F10843   1.492   2.294  10.453  1.1132 -0.3029 -0.2570
  106OSM     OF10844   1.609   2.323  10.452 -0.0514 -0.2697 -0.1640
  106OSM    C2F10845   1.378   2.384  10.392 -0.5805 -1.2104  0.2921
  106OSM    H2F10846   1.327   2.435  10.478  0.1571 -1.1366  0.6900
  106OSM    H2G10847   1.302   2.325  10.336 -1.5002 -2.0348  2.2999
  106OSM    C3F10848   1.427   2.485  10.283 -0.3276 -0.0166 -0.7819
  106OSM    H3F10849   1.497   2.559  10.327  0.0628 -1.2624  0.7812
  106OSM    H3G10850   1.338   2.545  10.257  0.4521  0.9240 -1.3294
  106OSM    C4F10851   1.499   2.418  10.164  0.2084  0.0817  0.0905
  106OSM    H4F10852   1.456   2.316  10.153  2.6548 -0.9965 -0.2611
  106OSM    H4G10853   1.607   2.400  10.186  0.4042 -0.8561 -1.4620
  106OSM    C5F10854   1.491   2.504  10.034 -0.2753 -0.3050 -0.2017
  106OSM    H5F10855   1.552   2.595  10.056 -0.1082 -0.5850  0.5387
  106OSM    H5G10856   1.383   2.526  10.021 -0.3334 -0.8055 -0.6045
  106OSM    C6F10857   1.565   2.454   9.914 -0.0597  0.6557  0.2011
  106OSM    H6F10858   1.542   2.517   9.826 -1.0444  0.3956  0.2573
  106OSM    H6G10859   1.537   2.349   9.891 -3.7552  0.6289  3.6551
  106OSM    C7F10860   1.715   2.455   9.938 -0.1803  0.0611 -0.1044
  106OSM    H7F10861   1.744   2.360   9.988 -0.7588  0.6063  1.3220
  106OSM    H7G10862   1.741   2.540  10.005  1.6577  1.7137 -2.7352
  106OSM    C8F10863   1.793   2.461   9.806 -0.1393 -0.3322  0.6531
  106OSM    H8F10864   1.754   2.390   9.729  0.7443  0.1957 -0.3118
  106OSM    H8G10865   1.895   2.427   9.831  0.1632 -0.3049 -0.4856
  106OSM    C9F10866   1.806   2.595   9.746  0.4887  0.3362 -0.3653
  106OSM    H9F10867   1.898   2.648   9.773 -0.9935  1.4501  2.8949
  106OSM   C10F10868   1.729   2.640   9.642  0.1654 -0.6627 -0.1835
  106OSM   H10F10869   1.737   2.743   9.604 -0.8380 -0.2536  0.6793
  106OSM   C11F10870   1.612   2.571   9.576  0.4665  0.4551  0.0800
  106OSM   H11F10871   1.517   2.617   9.608  0.1014 -1.2723  1.6304
  106OSM   H11G10872   1.614   2.466   9.610 -0.1192  0.2119 -0.6019
  106OSM   C12F10873   1.626   2.557   9.426 -0.0228 -0.2546  0.4200
  106OSM   H12F10874   1.540   2.495   9.393 -1.0291  1.2578  0.0828
  106OSM   H12G10875   1.726   2.514   9.406  1.2730  1.9272  1.8112
  106OSM   C13F10876   1.614   2.689   9.353 -0.4840  0.1974  0.2850
  106OSM   H13F10877   1.699   2.759   9.364 -1.2656  1.4441 -1.2820
  106OSM   H13G10878   1.519   2.742   9.378 -0.6659  1.7599 -3.1610
  106OSM   C14F10879   1.605   2.654   9.200  0.7122  0.1925  0.7472
  106OSM   H14F10880   1.521   2.583   9.187 -0.4971  1.0203  3.3407
  106OSM   H14G10881   1.696   2.598   9.168  0.5740  0.4914 -0.2256
  106OSM   C15F10882   1.592   2.769   9.105  0.4804 -0.2373 -0.1619
  106OSM   H15F10883   1.689   2.824   9.103 -0.3832  1.3301 -1.6211
  106OSM   H15G10884   1.513   2.837   9.142  2.5405  2.2093  0.0086
  106OSM   C16F10885   1.575   2.714   8.965  0.0632 -0.0557  0.5104
  106OSM   H16F10886   1.531   2.612   8.970  1.0527 -0.5629 -0.5765
  106OSM   H16G10887   1.673   2.695   8.916 -0.1156 -3.0766  1.1559
  106OSM   C17F10888   1.511   2.803   8.863  0.0722 -1.3767  0.4894
  106OSM   H17F10889   1.403   2.821   8.881  0.5132  0.8236  1.3343
  106OSM   H17G10890   1.520   2.768   8.758  1.9042 -1.6594  0.7107
  106OSM   C18F10891   1.565   2.944   8.854  0.0836 -0.3823 -0.3513
  106OSM   H18F10892   1.525   3.009   8.935 -0.3727  0.0460 -0.9064
  106OSM   H18G10893   1.537   3.004   8.765 -2.2392  0.9230  1.1474
  106OSM   H18H10894   1.676   2.943   8.857  0.0976  0.1500 -0.5794
  107OSM      N10895   5.447   3.683  11.024  0.3934 -0.2645 -0.7897
  107OSM    C1510896   5.394   3.585  11.115 -0.1472  0.0926 -0.4005
  107OSM   H15A10897   5.310   3.631  11.165 -2.2648 -1.6379 -2.1485
  107OSM   H15B10898   5.467   3.547  11.185  1.0711  2.0594 -0.4964
  107OSM   H15C10899   5.344   3.504  11.065  0.2069  0.2165 -0.9693
  107OSM    C1410900   5.522   3.783  11.100  0.1102 -0.1248 -1.0053
  107OSM   H14A10901   5.585   3.844  11.037  0.1931  0.8059 -0.0517
  107OSM   H14B10902   5.586   3.734  11.173 -1.2906 -0.5366 -0.0138
  107OSM   H14C10903   5.452   3.842  11.158  1.7387  2.5626 -1.6372
  107OSM    C1310904   5.542   3.615  10.926  0.1641 -0.1278 -0.9494
  107OSM   H13A10905   5.498   3.561  10.844 -0.6976  1.4336 -1.5426
  107OSM   H13B10906   5.609   3.549  10.978 -0.9038 -1.2902 -0.9869
  107OSM   H13C10907   5.609   3.690  10.888  1.2191 -0.0898  0.8753
  107OSM    C1210908   5.339   3.753  10.942  0.1386 -0.6963 -0.3691
  107OSM   H12A10909   5.278   3.806  11.013 -0.6735  0.1945 -1.6904
  107OSM   H12B10910   5.287   3.670  10.896  2.5157 -1.2473 -2.2727
  107OSM    C1110911   5.389   3.855  10.836 -0.1905  0.4630 -0.3434
  107OSM   H11A10912   5.294   3.874  10.780 -0.5500 -0.0759  0.0723
  107OSM   H11B10913   5.461   3.799  10.773 -1.5873 -0.8933 -0.8088
  107OSM      P10914   5.337   4.079  10.948 -0.2834 -0.0350  0.0584
  107OSM    O1310915   5.229   4.029  11.033 -0.3491  0.2299  0.2625
  107OSM    O1410916   5.423   4.188  11.000  0.7914  0.0788 -0.5259
  107OSM    O1110917   5.271   4.123  10.812  0.4378  0.1350 -0.5709
  107OSM    O1210918   5.437   3.966  10.903 -0.5741 -0.0325  0.2858
  107OSM    C1S10919   5.334   4.214  10.717  0.2294  0.3053  0.1985
  107OSM    H1S10920   5.433   4.251  10.750 -0.3829  0.8219  1.5005
  107OSM    H1T10921   5.260   4.295  10.700 -1.0379 -1.3218 -2.8763
  107OSM     NF10922   5.448   4.190  10.487 -0.4167 -0.6049 -0.4962
  107OSM    HNF10923   5.404   4.251  10.422  1.5079 -0.3150 -1.5830
  107OSM    C2S10924   5.354   4.130  10.584  0.0042  1.0849  0.8761
  107OSM    H2S10925   5.397   4.032  10.612 -0.2561  0.9625  0.8472
  107OSM    C3S10926   5.217   4.105  10.521 -0.5335  0.7563 -0.0599
  107OSM    H3S10927   5.180   4.204  10.488 -0.5934  0.0028 -2.4048
  107OSM     O310928   5.117   4.053  10.614 -0.6059 -0.2002  0.3741
  107OSM    HO310929   5.154   4.046  10.702  1.3319  2.5201 -0.0886
  107OSM    C4S10930   5.228   4.017  10.393  0.5042 -0.3011  0.3852
  107OSM    H4S10931   5.210   4.095  10.317  2.1065  0.1864  0.4814
  107OSM    C5S10932   5.239   3.889  10.371  0.1021  0.1314  0.0491
  107OSM    H5S10933   5.231   3.824  10.458  0.3077 -0.1708 -0.1566
  107OSM    C6S10934   5.245   3.825  10.237  0.2576  0.0739  0.3376
  107OSM    H6S10935   5.172   3.745  10.214  0.4587  0.0745 -0.3345
  107OSM    H6T10936   5.339   3.767  10.236  0.3992  0.2863  0.9152
  107OSM    C7S10937   5.263   3.913  10.113 -0.0599 -0.2278  0.2363
  107OSM    H7S10938   5.336   3.991  10.141 -0.2259 -0.8848  2.7025
  107OSM    H7T10939   5.167   3.962  10.083 -0.8316 -3.6907 -3.9917
  107OSM    C8S10940   5.320   3.843   9.991 -0.0367  0.3733  0.2284
  107OSM    H8S10941   5.243   3.770   9.957 -1.8050  2.2246  0.0881
  107OSM    H8T10942   5.418   3.795  10.013  0.0374  0.3659 -0.1068
  107OSM    C9S10943   5.349   3.936   9.871 -0.4980 -0.8344 -0.3718
  107OSM    H9S10944   5.452   3.975   9.888 -1.0085  0.6436 -0.5562
  107OSM    H9T10945   5.278   4.021   9.861  1.1932  0.7160  0.1193
  107OSM   C10S10946   5.332   3.867   9.742 -0.3057 -0.1772  0.3245
  107OSM   H10S10947   5.229   3.828   9.730 -0.7382 -0.0832  3.1668
  107OSM   H10T10948   5.402   3.782   9.760 -0.1629 -0.0097  0.5698
  107OSM   C11S10949   5.359   3.958   9.620 -0.6086  0.1504  0.5032
  107OSM   H11S10950   5.459   4.002   9.637  0.6198 -2.7742  1.4902
  107OSM   H11T10951   5.279   4.036   9.615  1.3397  2.2079 -0.2771
  107OSM   C12S10952   5.365   3.879   9.487 -0.7500  0.8378 -0.5143
  107OSM   H12S10953   5.263   3.838   9.466  0.1395 -1.8194 -0.0883
  107OSM   H12T10954   5.436   3.793   9.491  0.6785  2.0064 -0.1435
  107OSM   C13S10955   5.417   3.976   9.376 -0.1404  0.0492 -0.6032
  107OSM   H13S10956   5.510   4.027   9.407 -0.9970  1.2095  0.1113
  107OSM   H13T10957   5.333   4.048   9.367  0.1937  0.6809  1.0718
  107OSM   C14S10958   5.435   3.906   9.236  0.7271 -0.3809 -0.4890
  107OSM   H14S10959   5.441   3.797   9.254 -0.8297 -0.5525 -0.8501
  107OSM   H14T10960   5.533   3.942   9.199 -0.0892 -0.3796 -2.7998
  107OSM   C15S10961   5.326   3.936   9.135  0.6468 -0.4902  0.2704
  107OSM   H15S10962   5.306   4.045   9.121 -0.0915 -0.7073 -0.5025
  107OSM   H15T10963   5.230   3.893   9.171 -0.0961  0.7827 -0.0895
  107OSM   C16S10964   5.363   3.864   9.005  0.3906 -0.8245  0.4313
  107OSM   H16S10965   5.364   3.753   9.013  0.8306 -0.8516  0.0315
  107OSM   H16T10966   5.472   3.879   8.991  0.0805  0.6868 -0.5818
  107OSM   C17S10967   5.290   3.912   8.883 -0.3048 -0.2866  0.1283
  107OSM   H17S10968   5.308   3.836   8.804 -0.1797 -0.1261  0.0015
  107OSM   H17T10969   5.316   4.013   8.846 -1.5689 -0.0430 -0.1522
  107OSM   C18S10970   5.135   3.915   8.897  0.7995  0.2922  0.1061
  107OSM   H18S10971   5.109   3.982   8.982  3.2468  1.1139  0.2682
  107OSM   H18T10972   5.094   3.812   8.909  0.9210  0.2323  0.0119
  107OSM   H18U10973   5.097   3.955   8.801 -0.7125  1.1314  1.0216
  107OSM    C1F10974   5.580   4.185  10.500 -0.1123  0.8479 -0.7867
  107OSM     OF10975   5.637   4.144  10.601  0.1040 -0.3701 -0.3569
  107OSM    C2F10976   5.662   4.247  10.393  0.7703  0.0221  0.7769
  107OSM    H2F10977   5.694   4.349  10.423  2.4749 -1.0730  3.0096
  107OSM    H2G10978   5.597   4.268  10.305 -0.2943 -1.4275  1.1772
  107OSM    C3F10979   5.769   4.160  10.326  0.0053 -0.0379  0.4842
  107OSM    H3F10980   5.840   4.126  10.405 -1.1807 -0.4533  1.3872
  107OSM    H3G10981   5.825   4.227  10.256 -0.1919 -0.4406 -0.0624
  107OSM    C4F10982   5.713   4.030  10.264  0.6262  0.1075 -0.4105
  107OSM    H4F10983   5.617   4.058  10.215 -0.4016 -0.5248  1.1839
  107OSM    H4G10984   5.689   3.945  10.330  2.7214 -0.0311  0.2710
  107OSM    C5F10985   5.799   3.986  10.148 -0.1271  0.5021 -1.5239
  107OSM    H5F10986   5.896   3.946  10.185 -0.6443  0.7643  0.1738
  107OSM    H5G10987   5.829   4.070  10.081  0.1609  1.2578 -0.4606
  107OSM    C6F10988   5.718   3.888  10.050  0.3213 -0.1347  0.7124
  107OSM    H6F10989   5.639   3.947   9.997  0.6893 -0.8627 -0.7106
  107OSM    H6G10990   5.675   3.818  10.124  0.6320  0.9931  1.9972
  107OSM    C7F10991   5.792   3.809   9.936 -0.1914 -0.6363 -0.0759
  107OSM    H7F10992   5.728   3.752   9.865  0.6337 -1.1214 -0.4481
  107OSM    H7G10993   5.859   3.728   9.971  1.9880  0.3639 -1.7301
  107OSM    C8F10994   5.883   3.900   9.848  0.9467 -0.4403  0.2305
  107OSM    H8F10995   5.962   3.842   9.796  1.7414  0.3133  0.5689
  107OSM    H8G10996   5.935   3.964   9.923  0.2406 -0.8326  1.0712
  107OSM    C9F10997   5.813   3.988   9.751 -0.2363  0.3108 -0.2079
  107OSM    H9F10998   5.762   4.072   9.802 -0.2762  0.7299 -0.9253
  107OSM   C10F10999   5.827   3.989   9.615 -0.2144 -0.5167  0.1020
  107OSM   H10F11000   5.777   4.073   9.564  1.6149  1.6393  1.6703
  107OSM   C11F11001   5.902   3.888   9.544 -0.2927  0.2568  0.1507
  107OSM   H11F11002   5.841   3.795   9.541  0.2799 -0.1441  0.7340
  107OSM   H11G11003   5.998   3.854   9.588 -0.1762  1.0483  0.5262
  107OSM   C12F11004   5.941   3.921   9.406 -0.0982 -0.3067  0.3499
  107OSM   H12F11005   6.007   3.845   9.359  1.7022  0.9902  0.6546
  107OSM   H12G11006   5.992   4.020   9.405 -1.2650  0.3296  1.3073
  107OSM   C13F11007   5.818   3.920   9.314  0.1126  0.1232  0.4891
  107OSM   H13F11008   5.758   4.012   9.331 -1.0735 -0.4190 -0.6162
  107OSM   H13G11009   5.757   3.827   9.321  0.0005  0.2093  0.6603
  107OSM   C14F11010   5.863   3.936   9.169 -0.2865 -0.2336 -0.1487
  107OSM   H14F11011   5.918   3.842   9.148  1.6988  0.6565  0.7363
  107OSM   H14G11012   5.931   4.024   9.166  0.1623 -0.5688  0.0066
  107OSM   C15F11013   5.750   3.951   9.072  0.7111  0.4482  0.1421
  107OSM   H15F11014   5.681   4.028   9.113 -3.0420 -1.3854 -2.1848
  107OSM   H15G11015   5.694   3.856   9.070  0.9505  0.2160  2.1703
  107OSM   C16F11016   5.798   3.993   8.932 -0.2057  0.4594 -0.0775
  107OSM   H16F11017   5.855   3.909   8.886  0.0591 -0.5207  1.9399
  107OSM   H16G11018   5.863   4.082   8.946  0.8937 -0.5807  1.9118
  107OSM   C17F11019   5.677   4.023   8.843  0.4923 -0.6472 -0.3805
  107OSM   H17F11020   5.615   4.092   8.904  1.0062 -2.1980  2.0415
  107OSM   H17G11021   5.626   3.929   8.812 -1.0863  0.6350 -1.9661
  107OSM   C18F11022   5.714   4.068   8.705 -1.0405  0.0780 -0.1156
  107OSM   H18F11023   5.771   4.163   8.711 -0.3050 -0.2267 -1.7442
  107OSM   H18G11024   5.626   4.081   8.638  0.2567 -0.9313 -2.1112
  107OSM   H18H11025   5.782   3.988   8.668 -1.2940  0.8488 -2.3730
  108OSM      N11026   0.116   0.972  11.081  0.1319  0.1242 -0.5319
  108OSM    C1511027   0.094   0.883  10.971  0.0401 -0.3579  0.4735
  108OSM   H15A11028   0.173   0.886  10.898 -0.3040 -0.7882  0.0805
  108OSM   H15B11029   0.004   0.918  10.923  1.2939  2.8592  0.1850
  108OSM   H15C11030   0.086   0.782  11.008  0.6527 -0.2219  1.0152
  108OSM    C1411031   0.025   0.937  11.195 -0.1303 -0.2215 -0.1765
  108OSM   H14A11032  -0.079   0.950  11.167  0.1011 -0.3750 -1.1582
  108OSM   H14B11033   0.032   0.987  11.290 -1.2454  1.0410 -0.7190
  108OSM   H14C11034   0.048   0.833  11.213  0.8528  0.0361  0.0590
  108OSM    C1311035   0.253   0.937  11.120 -0.1849  1.3174  0.2809
  108OSM   H13A11036   0.287   0.984  11.211  3.8220 -0.2313 -0.1854
  108OSM   H13B11037   0.331   0.958  11.048  0.9703 -1.8100  0.4568
  108OSM   H13C11038   0.257   0.830  11.126 -1.5733  1.2340  0.0316
  108OSM    C1211039   0.112   1.120  11.051  0.4488  0.0149 -0.4996
  108OSM   H12A11040   0.160   1.180  11.127  1.2346 -0.4663 -0.6056
  108OSM   H12B11041   0.009   1.151  11.051  0.7973  1.5209 -3.3603
  108OSM    C1111042   0.164   1.167  10.910  0.8372  0.7601 -0.7025
  108OSM   H11A11043   0.110   1.103  10.837  0.7216 -1.6486  1.3355
  108OSM   H11B11044   0.271   1.150  10.885  0.7530  1.8961 -1.9381
  108OSM      P11045   0.161   1.392  10.768  0.2781 -0.1020 -0.0427
  108OSM    O1311046   0.042   1.462  10.718 -1.0197 -0.1772  0.3401
  108OSM    O1411047   0.280   1.472  10.807  0.2976 -0.4621 -0.6246
  108OSM    O1111048   0.202   1.275  10.667 -0.0451 -0.1590  0.5000
  108OSM    O1211049   0.120   1.300  10.898 -0.0866 -0.4890 -0.5539
  108OSM    C1S11050   0.106   1.212  10.592 -0.4099 -0.1679  0.2308
  108OSM    H1S11051   0.004   1.213  10.636 -0.5996 -2.3753 -0.0257
  108OSM    H1T11052   0.113   1.102  10.605 -3.0308 -0.4192  0.0465
  108OSM     NF11053  -0.007   1.201  10.385  0.1113  0.5374  1.0170
  108OSM    HNF11054  -0.004   1.110  10.346 -0.3729  0.1048  1.9490
  108OSM    C2S11055   0.112   1.248  10.445 -0.0276 -0.4041  0.5813
  108OSM    H2S11056   0.127   1.357  10.433  0.4220 -0.6889 -2.3236
  108OSM    C3S11057   0.236   1.182  10.384 -0.6113  0.1498  0.6952
  108OSM    H3S11058   0.192   1.082  10.364  1.8690 -0.5195 -1.9569
  108OSM     O311059   0.347   1.174  10.474 -0.1917 -0.1659  0.7440
  108OSM    HO311060   0.303   1.196  10.557  0.5308 -0.7388  1.2933
  108OSM    C4S11061   0.272   1.232  10.247 -0.2170  0.0248 -0.9050
  108OSM    H4S11062   0.217   1.173  10.172 -0.0073 -1.0746 -0.2012
  108OSM    C5S11063   0.363   1.324  10.200 -0.0432  0.1352  0.2738
  108OSM    H5S11064   0.431   1.378  10.267 -1.7167  0.2278  1.9913
  108OSM    C6S11065   0.393   1.353  10.049  0.3478  0.3475  0.3320
  108OSM    H6S11066   0.503   1.367  10.038  0.5624 -0.3866  1.4222
  108OSM    H6T11067   0.346   1.451  10.024 -2.1295 -0.2545  2.2928
  108OSM    C7S11068   0.336   1.256   9.943 -0.0384 -0.1448 -0.6206
  108OSM    H7S11069   0.227   1.245   9.954 -0.2435  1.5764 -0.5835
  108OSM    H7T11070   0.381   1.157   9.965 -0.4152  0.1415  1.6731
  108OSM    C8S11071   0.360   1.298   9.798 -0.2492 -0.4286  0.7527
  108OSM    H8S11072   0.470   1.298   9.784 -0.1342  0.0406  1.6006
  108OSM    H8T11073   0.328   1.404   9.783 -0.3762 -0.5915 -0.1819
  108OSM    C9S11074   0.295   1.201   9.694 -0.7270  0.1537 -0.4487
  108OSM    H9S11075   0.193   1.194   9.738  0.3788 -0.5079  2.1973
  108OSM    H9T11076   0.345   1.102   9.692  0.9410  0.9128  0.7665
  108OSM   C10S11077   0.293   1.258   9.553  0.1877 -0.3669  0.1082
  108OSM   H10S11078   0.388   1.235   9.501  0.8070  0.8458  0.6597
  108OSM   H10T11079   0.280   1.368   9.548 -0.7123 -0.4830 -0.3387
  108OSM   C11S11080   0.196   1.202   9.451  0.9885 -0.8329  0.1825
  108OSM   H11S11081   0.093   1.210   9.492  1.9332  0.4393  2.4776
  108OSM   H11T11082   0.220   1.094   9.436  3.4770 -0.4432  0.9576
  108OSM   C12S11083   0.183   1.277   9.315 -0.5183 -0.2040 -0.3926
  108OSM   H12S11084   0.282   1.290   9.265 -0.8351 -2.0648 -1.5708
  108OSM   H12T11085   0.150   1.380   9.341  0.5163  0.1255 -0.3103
  108OSM   C13S11086   0.078   1.221   9.217  0.3023  0.4301 -0.0594
  108OSM   H13S11087  -0.006   1.176   9.274  1.6433  0.0393  1.6975
  108OSM   H13T11088   0.123   1.130   9.174  1.1777 -0.1641  1.9681
  108OSM   C14S11089   0.017   1.310   9.111 -0.4361 -0.7159  0.8142
  108OSM   H14S11090  -0.026   1.400   9.161  0.9201  0.7309 -0.5101
  108OSM   H14T11091  -0.071   1.267   9.059 -1.2721  2.0525 -0.2419
  108OSM   C15S11092   0.113   1.365   9.002  0.2672  0.4201 -0.7714
  108OSM   H15S11093   0.191   1.425   9.052  1.1270 -1.5206  0.3247
  108OSM   H15T11094   0.053   1.427   8.931  1.3130  2.0776 -0.2701
  108OSM   C16S11095   0.184   1.248   8.937 -0.4765 -0.2092 -0.1897
  108OSM   H16S11096   0.246   1.185   9.004 -0.0696  0.6688  0.2760
  108OSM   H16T11097   0.258   1.295   8.869  2.7087 -4.5867 -0.1794
  108OSM   C17S11098   0.094   1.149   8.873  1.0436  0.2842  0.1605
  108OSM   H17S11099   0.036   1.206   8.797  1.2616 -0.9740 -0.9875
  108OSM   H17T11100   0.030   1.095   8.946 -0.5991  0.1559 -1.3125
  108OSM   C18S11101   0.169   1.042   8.798  0.4717 -0.2734 -0.0072
  108OSM   H18S11102   0.263   1.010   8.848  0.8305  0.1506 -0.3991
  108OSM   H18T11103   0.197   1.083   8.698 -0.5831  1.4864  0.3769
  108OSM   H18U11104   0.101   0.956   8.779  2.0558 -1.4742 -0.4658
  108OSM    C1F11105  -0.125   1.262  10.403 -0.3875 -0.2985 -0.2779
  108OSM     OF11106  -0.128   1.367  10.478  0.4438  0.3386  0.7734
  108OSM    C2F11107  -0.250   1.195  10.346  0.2419 -0.4404  0.4556
  108OSM    H2F11108  -0.271   1.106  10.410 -0.4266  0.3809  1.3962
  108OSM    H2G11109  -0.217   1.163  10.245 -1.4422 -1.2932  0.1459
  108OSM    C3F11110  -0.373   1.283  10.349  0.1394  0.2572  0.6092
  108OSM    H3F11111  -0.355   1.379  10.296 -0.6186 -1.4012 -2.9040
  108OSM    H3G11112  -0.412   1.288  10.453  2.2379 -0.9081  1.5140
  108OSM    C4F11113  -0.493   1.227  10.256  0.4988 -0.3505 -0.5051
  108OSM    H4F11114  -0.582   1.294  10.263  1.0381  0.3034  0.1848
  108OSM    H4G11115  -0.527   1.129  10.297 -0.3030 -0.5971 -1.6980
  108OSM    C5F11116  -0.456   1.206  10.114  0.5654  0.3608  0.6489
  108OSM    H5F11117  -0.389   1.118  10.101 -0.2534 -0.7141  3.0684
  108OSM    H5G11118  -0.404   1.296  10.077  0.1495  0.4288  0.2200
  108OSM    C6F11119  -0.568   1.171  10.020 -0.1902  0.5123 -0.4607
  108OSM    H6F11120  -0.536   1.161   9.914 -0.5121  1.0648 -0.6103
  108OSM    H6G11121  -0.652   1.242  10.007 -1.3285 -0.9639 -1.6659
  108OSM    C7F11122  -0.624   1.028  10.060  0.0582 -0.2535  0.0188
  108OSM    H7F11123  -0.699   1.040  10.141  1.2733  2.5514  0.8652
  108OSM    H7G11124  -0.546   0.966  10.110 -1.4914 -0.9771  1.6585
  108OSM    C8F11125  -0.690   0.950   9.942  0.0280  0.0201  0.2543
  108OSM    H8F11126  -0.729   0.851   9.975 -2.2487  1.1170  1.1088
  108OSM    H8G11127  -0.610   0.933   9.866  1.5235  0.6002  1.6340
  108OSM    C9F11128  -0.798   1.027   9.883 -0.0883 -0.7069  0.4771
  108OSM    H9F11129  -0.878   1.055   9.952 -0.0396  1.8429 -0.3950
  108OSM   C10F11130  -0.822   1.062   9.760 -0.3557  0.3375  0.3676
  108OSM   H10F11131  -0.921   1.106   9.737 -1.0478 -1.5395 -0.4536
  108OSM   C11F11132  -0.757   1.042   9.625  0.1524  0.2412 -0.1170
  108OSM   H11F11133  -0.700   0.948   9.614  0.5248  0.0002  3.1123
  108OSM   H11G11134  -0.686   1.127   9.619  0.3553  0.0093 -1.3530
  108OSM   C12F11135  -0.853   1.057   9.500  0.1312 -0.2164 -0.2801
  108OSM   H12F11136  -0.886   1.163   9.505 -0.7490 -0.4926  0.0784
  108OSM   H12G11137  -0.941   0.989   9.512 -0.9213  1.2692  0.8678
  108OSM   C13F11138  -0.783   1.030   9.363  0.5784  0.7017  1.0677
  108OSM   H13F11139  -0.757   0.922   9.367  0.3072  0.6038  0.3058
  108OSM   H13G11140  -0.691   1.089   9.343  2.1361 -1.9334 -0.0591
  108OSM   C14F11141  -0.877   1.058   9.242  0.0194  0.5424 -0.0918
  108OSM   H14F11142  -0.903   1.166   9.248  4.2765  1.7130  0.8625
  108OSM   H14G11143  -0.970   0.998   9.253  0.4752 -0.2360 -0.3664
  108OSM   C15F11144  -0.805   1.029   9.112  0.2349 -0.1757  0.7684
  108OSM   H15F11145  -0.698   1.058   9.125  0.7791  0.6331 -3.9340
  108OSM   H15G11146  -0.856   1.079   9.027 -1.2165  0.4551  1.9778
  108OSM   C16F11147  -0.813   0.880   9.071  0.6170 -0.3998  0.0452
  108OSM   H16F11148  -0.923   0.868   9.058  0.2318  2.6856 -0.2704
  108OSM   H16G11149  -0.783   0.812   9.152  1.7280 -0.9979 -0.8439
  108OSM   C17F11150  -0.749   0.848   8.935  0.6525  0.2484 -0.2717
  108OSM   H17F11151  -0.642   0.876   8.932  0.6892  0.0361 -1.2672
  108OSM   H17G11152  -0.798   0.920   8.867 -1.0673  1.5930  2.2330
  108OSM   C18F11153  -0.763   0.703   8.890  0.5686 -0.4060 -0.0844
  108OSM   H18F11154  -0.727   0.634   8.969 -0.5263 -0.0366  0.7656
  108OSM   H18G11155  -0.696   0.686   8.803  0.1967 -0.3441 -0.3862
  108OSM   H18H11156  -0.862   0.680   8.847  1.6274 -0.5960 -2.5670
  109OSM      N11157   0.944   5.161  11.082  0.4010 -0.2966  0.2818
  109OSM    C1511158   1.073   5.118  11.142  0.2002 -0.3814 -0.2093
  109OSM   H15A11159   1.078   5.133  11.249  2.1737 -0.1141 -0.2892
  109OSM   H15B11160   1.165   5.159  11.103  2.3044 -3.3161  1.2919
  109OSM   H15C11161   1.095   5.014  11.121  0.9255 -0.1579 -0.5843
  109OSM    C1411162   0.966   5.108  10.942  0.2018 -0.1151 -0.2917
  109OSM   H14A11163   1.050   5.163  10.902 -0.5064  1.1465 -0.0737
  109OSM   H14B11164   0.872   5.110  10.890  0.3441  3.8234 -0.7044
  109OSM   H14C11165   0.997   5.004  10.942 -1.6827 -0.7096 -0.3448
  109OSM    C1311166   0.841   5.072  11.153 -0.5489 -0.1360 -0.1234
  109OSM   H13A11167   0.889   4.976  11.170  2.4124  1.0553 -1.1143
  109OSM   H13B11168   0.758   5.054  11.086 -0.5216  2.2675 -0.8708
  109OSM   H13C11169   0.796   5.111  11.243  0.6426  0.1282  0.3761
  109OSM    C1211170   0.894   5.304  11.092 -0.1053 -0.2392  0.8736
  109OSM   H12A11171   0.895   5.345  11.191 -0.0635  0.3944  0.6149
  109OSM   H12B11172   0.792   5.307  11.056 -0.0653  0.1637  0.7896
  109OSM    C1111173   0.991   5.407  11.017  0.2583  0.1975 -0.2595
  109OSM   H11A11174   0.984   5.391  10.908 -0.6170 -2.0892  0.0691
  109OSM   H11B11175   1.091   5.386  11.060 -0.7357 -2.4982  0.9785
  109OSM      P11176   0.813   5.594  10.998 -0.3471  0.1481 -0.2453
  109OSM    O1311177   0.721   5.555  11.105  0.3196 -0.8839  0.1073
  109OSM    O1411178   0.838   5.743  10.972  0.0408  0.2996  0.4324
  109OSM    O1111179   0.790   5.502  10.863  0.2769 -0.2484 -0.2239
  109OSM    O1211180   0.955   5.540  11.047  0.3650 -0.7131  0.0309
  109OSM    C1S11181   0.769   5.567  10.738  0.2191 -0.4288 -0.0294
  109OSM    H1S11182   0.832   5.658  10.727  0.3420 -0.3869  0.9686
  109OSM    H1T11183   0.662   5.595  10.735 -0.2329 -2.0763 -0.3583
  109OSM     NF11184   0.727   5.556  10.503 -0.3962 -0.0269 -0.1420
  109OSM    HNF11185   0.628   5.556  10.489 -0.7417  1.9518  1.6992
  109OSM    C2S11186   0.777   5.468  10.614  0.8851 -0.1858  0.6453
  109OSM    H2S11187   0.885   5.450  10.592  1.3228 -0.6476  2.8662
  109OSM    C3S11188   0.695   5.343  10.643 -0.2896  0.2364 -0.2700
  109OSM    H3S11189   0.587   5.367  10.656 -0.2792  1.0331 -1.4690
  109OSM     O311190   0.737   5.274  10.761 -0.1575 -0.4397 -0.1696
  109OSM    HO311191   0.788   5.345  10.801 -2.4981  0.9116  0.5571
  109OSM    C4S11192   0.709   5.252  10.529 -0.5730 -0.7513  0.5178
  109OSM    H4S11193   0.635   5.278  10.451 -1.2639 -0.2374  1.3129
  109OSM    C5S11194   0.791   5.151  10.505 -0.1171  0.5112 -0.7678
  109OSM    H5S11195   0.849   5.099  10.583 -1.1087 -2.8576 -2.1013
  109OSM    C6S11196   0.804   5.055  10.380  0.1820  0.0853 -0.2972
  109OSM    H6S11197   0.771   4.954  10.413  0.4038 -0.5680 -1.9654
  109OSM    H6T11198   0.911   5.042  10.355 -0.0856 -0.7132 -1.1046
  109OSM    C7S11199   0.730   5.078  10.244 -0.7511 -0.2689  0.3388
  109OSM    H7S11200   0.628   5.117  10.265 -1.1447  0.2843 -2.2270
  109OSM    H7T11201   0.722   4.991  10.176 -0.9308  0.6399 -0.8428
  109OSM    C8S11202   0.799   5.194  10.157 -0.3575  0.0297 -0.0546
  109OSM    H8S11203   0.897   5.156  10.121 -0.3858 -0.3806  0.2939
  109OSM    H8T11204   0.815   5.275  10.231  0.4054  0.7475 -0.9779
  109OSM    C9S11205   0.705   5.245  10.042 -0.4454  0.3880  0.0578
  109OSM    H9S11206   0.758   5.331   9.996  0.7625 -0.4223 -0.1174
  109OSM    H9T11207   0.612   5.275  10.094  0.7853 -0.0207  2.6905
  109OSM   C10S11208   0.682   5.146   9.929  0.3962  0.5928 -0.2152
  109OSM   H10S11209   0.626   5.056   9.962  0.8333  0.7559  1.0207
  109OSM   H10T11210   0.788   5.127   9.901  0.9977  3.9411 -0.6970
  109OSM   C11S11211   0.626   5.212   9.804 -0.4679  0.8853 -0.0541
  109OSM   H11S11212   0.697   5.290   9.769  0.3960 -0.8330 -2.3916
  109OSM   H11T11213   0.531   5.257   9.839 -0.0270  1.4655  0.4205
  109OSM   C12S11214   0.606   5.110   9.695 -0.8141 -0.0484  0.1953
  109OSM   H12S11215   0.572   5.011   9.733  0.5139 -1.0723 -1.1546
  109OSM   H12T11216   0.710   5.098   9.658 -0.2536  2.2077  0.9067
  109OSM   C13S11217   0.518   5.144   9.572 -0.0025  0.3606  0.6246
  109OSM   H13S11218   0.553   5.243   9.537  1.9630  0.0315  1.5245
  109OSM   H13T11219   0.413   5.154   9.607 -0.2669 -1.5478  0.4938
  109OSM   C14S11220   0.529   5.033   9.463  0.2731  0.7206 -0.1305
  109OSM   H14S11221   0.512   4.931   9.504  3.2231  0.3786  0.4737
  109OSM   H14T11222   0.634   5.025   9.428  0.7064 -0.5075  1.3234
  109OSM   C15S11223   0.444   5.070   9.340  0.0560 -0.0483 -0.7713
  109OSM   H15S11224   0.420   5.178   9.327  0.0913  0.3908  2.2338
  109OSM   H15T11225   0.349   5.020   9.365  0.8133 -0.2521  1.9500
  109OSM   C16S11226   0.497   5.010   9.210 -0.0050 -0.4558 -0.1112
  109OSM   H16S11227   0.514   4.902   9.231 -1.1944 -0.7471 -0.5881
  109OSM   H16T11228   0.585   5.071   9.180 -1.1611  1.2328 -0.1849
  109OSM   C17S11229   0.397   5.011   9.093  0.4116  0.0403 -0.2264
  109OSM   H17S11230   0.375   5.116   9.064  0.0616  0.0979  0.2493
  109OSM   H17T11231   0.302   4.967   9.129 -0.3454  0.0549 -2.1054
  109OSM   C18S11232   0.438   4.928   8.969 -1.0480  0.2574 -0.2777
  109OSM   H18S11233   0.530   4.968   8.920 -1.6872  0.7100 -1.1379
  109OSM   H18T11234   0.356   4.926   8.894 -0.0331 -2.3904 -1.4466
  109OSM   H18U11235   0.452   4.824   9.006  1.5126  0.2355 -1.0935
  109OSM    C1F11236   0.802   5.654  10.446 -0.6879  0.1665 -0.6681
  109OSM     OF11237   0.913   5.683  10.493  0.6226  0.0729 -0.0758
  109OSM    C2F11238   0.751   5.707  10.312  0.0213  0.4052 -0.0615
  109OSM    H2F11239   0.722   5.814  10.323 -1.1105  0.1002  0.0401
  109OSM    H2G11240   0.660   5.657  10.274  1.4298 -0.0581 -3.1005
  109OSM    C3F11241   0.859   5.700  10.198 -0.3753  0.2971 -0.0430
  109OSM    H3F11242   0.902   5.598  10.194 -1.5473 -0.2864  1.4291
  109OSM    H3G11243   0.936   5.776  10.221 -1.5240  1.4015  0.2746
  109OSM    C4F11244   0.796   5.721  10.060 -0.8505 -0.6193 -0.8206
  109OSM    H4F11245   0.739   5.817  10.062  0.3923  0.1537 -1.6179
  109OSM    H4G11246   0.712   5.648  10.054 -2.3718  1.0149 -0.2905
  109OSM    C5F11247   0.880   5.724   9.932  0.0031  0.0297 -0.3342
  109OSM    H5F11248   0.940   5.631   9.926  2.0693  1.0413  2.3767
  109OSM    H5G11249   0.950   5.810   9.939 -0.1467  0.0267  1.9114
  109OSM    C6F11250   0.802   5.727   9.810 -0.4721  0.3477  0.7361
  109OSM    H6F11251   0.870   5.735   9.722  0.0134 -1.3498  0.9346
  109OSM    H6G11252   0.725   5.807   9.802 -0.3824  0.3224 -0.7184
  109OSM    C7F11253   0.732   5.589   9.782 -0.3868 -0.7370  0.1807
  109OSM    H7F11254   0.657   5.598   9.864 -0.1223 -0.3133  0.3827
  109OSM    H7G11255   0.803   5.509   9.810  0.7950  0.4802  0.8044
  109OSM    C8F11256   0.663   5.581   9.643 -0.1061 -0.4574  0.7210
  109OSM    H8F11257   0.607   5.677   9.638 -0.6018 -0.7795 -0.0497
  109OSM    H8G11258   0.585   5.505   9.623  0.6904 -1.6671  2.0260
  109OSM    C9F11259   0.773   5.573   9.538 -0.2194  0.1870  0.0767
  109OSM    H9F11260   0.874   5.611   9.561  0.3271 -1.8113  1.2116
  109OSM   C10F11261   0.745   5.540   9.406 -0.2188  0.2150 -1.3713
  109OSM   H10F11262   0.833   5.530   9.340  0.4276  0.8113 -0.6280
  109OSM   C11F11263   0.609   5.501   9.352 -0.1251 -0.3201  0.5847
  109OSM   H11F11264   0.532   5.475   9.429 -0.6611 -0.0317  0.1546
  109OSM   H11G11265   0.621   5.410   9.290  0.5863 -0.0527  0.3278
  109OSM   C12F11266   0.550   5.610   9.265 -0.2208 -0.1597  0.3711
  109OSM   H12F11267   0.615   5.644   9.182 -1.4989  0.3168 -0.4729
  109OSM   H12G11268   0.527   5.689   9.339 -1.2992  0.1938 -0.3167
  109OSM   C13F11269   0.415   5.572   9.197  0.8761 -0.4946 -0.3121
  109OSM   H13F11270   0.347   5.511   9.260  0.7288 -0.8336 -0.7914
  109OSM   H13G11271   0.437   5.500   9.116  1.6446 -0.4049 -0.1845
  109OSM   C14F11272   0.323   5.695   9.157 -0.6824 -0.1844  0.0009
  109OSM   H14F11273   0.230   5.651   9.115 -0.9479  1.6770 -1.4730
  109OSM   H14G11274   0.374   5.753   9.078 -1.0533 -0.2298 -0.2753
  109OSM   C15F11275   0.279   5.802   9.261 -0.0398  0.1166 -0.6336
  109OSM   H15F11276   0.366   5.860   9.299 -0.6584  1.9865 -1.9099
  109OSM   H15G11277   0.232   5.743   9.343  1.7326 -0.7205 -0.1649
  109OSM   C16F11278   0.188   5.913   9.211 -0.4029 -0.4053  0.0329
  109OSM   H16F11279   0.097   5.867   9.167 -0.2632 -0.9467  0.2959
  109OSM   H16G11280   0.248   5.979   9.145 -0.1173  0.6067  1.2550
  109OSM   C17F11281   0.140   6.017   9.316  0.1363  0.0707 -0.0522
  109OSM   H17F11282   0.093   6.105   9.267 -1.9646 -0.3948  1.0340
  109OSM   H17G11283   0.229   6.050   9.374  1.8617  0.4294 -2.7330
  109OSM   C18F11284   0.048   5.946   9.423  0.0359  0.5566  0.2594
  109OSM   H18F11285  -0.051   5.910   9.387 -0.2639 -2.6353  3.6025
  109OSM   H18G11286   0.036   6.008   9.515  1.5840 -2.5758  2.7740
  109OSM   H18H11287   0.103   5.864   9.475 -1.3914  0.2511  1.3696
  110OSM      N11288   0.305   3.703  11.104  0.7510 -0.4935 -0.1021
  110OSM    C1511289   0.208   3.601  11.089 -0.5692  0.2979  0.0386
  110OSM   H15A11290   0.129   3.597  11.164 -1.3924 -0.4877 -0.8403
  110OSM   H15B11291   0.265   3.509  11.089 -0.1805  0.5414 -0.0469
  110OSM   H15C11292   0.162   3.600  10.991  1.7122 -0.1088 -1.0828
  110OSM    C1411293   0.251   3.816  11.190  0.4665 -0.6308  0.3013
  110OSM   H14A11294   0.212   3.777  11.283  0.5775 -1.9886 -0.1898
  110OSM   H14B11295   0.169   3.869  11.144 -1.6161 -2.0682  2.1594
  110OSM   H14C11296   0.328   3.886  11.218  0.2384  0.1891 -1.0378
  110OSM    C1311297   0.421   3.646  11.173 -1.0400 -0.2710  0.3259
  110OSM   H13A11298   0.462   3.562  11.121  1.5824 -0.3139  2.2918
  110OSM   H13B11299   0.399   3.612  11.273  3.8157 -1.2810  1.2863
  110OSM   H13C11300   0.502   3.718  11.177 -0.0917 -1.0191 -3.0383
  110OSM    C1211301   0.359   3.766  10.976 -0.9220  0.0639 -0.5655
  110OSM   H12A11302   0.410   3.689  10.920 -0.0800  1.0648 -1.2100
  110OSM   H12B11303   0.426   3.846  11.001  0.0105 -0.7286 -0.4683
  110OSM    C1111304   0.249   3.815  10.882 -0.3709  0.1226  0.5015
  110OSM   H11A11305   0.300   3.887  10.815  1.6246 -1.1313  0.6019
  110OSM   H11B11306   0.172   3.878  10.932  0.7489  1.1771  0.9209
  110OSM      P11307   0.058   3.699  10.743  0.0170  0.2436  0.2941
  110OSM    O1311308   0.056   3.585  10.644  0.2124 -0.1520  0.2991
  110OSM    O1411309  -0.040   3.685  10.850  0.0704  0.1692 -0.1678
  110OSM    O1111310   0.053   3.833  10.662  0.1101 -0.2927  0.2975
  110OSM    O1211311   0.199   3.702  10.812 -0.0525  0.5066  0.2590
  110OSM    C1S11312   0.161   3.880  10.586 -0.7385 -0.5120  0.4710
  110OSM    H1S11313   0.260   3.836  10.609 -0.8514 -0.5205  0.9568
  110OSM    H1T11314   0.176   3.984  10.622  1.5619 -1.1841  1.6892
  110OSM     NF11315   0.243   3.896  10.354 -0.0340 -0.2215 -0.2405
  110OSM    HNF11316   0.246   3.986  10.311 -0.7731 -0.1298 -0.1108
  110OSM    C2S11317   0.124   3.871  10.437 -0.5084 -0.9375  0.1128
  110OSM    H2S11318   0.091   3.770  10.404  2.6687 -2.9399  2.4595
  110OSM    C3S11319   0.013   3.982  10.410 -0.0971  0.2325 -0.4223
  110OSM    H3S11320   0.053   4.079  10.447  1.3008 -0.9186  1.2626
  110OSM     O311321  -0.105   3.954  10.482  1.1465 -0.1766  0.1882
  110OSM    HO311322  -0.066   3.908  10.556 -1.6251 -0.3192  1.6937
  110OSM    C4S11323  -0.029   3.995  10.269 -0.4872  0.3081  0.5421
  110OSM    H4S11324  -0.038   3.900  10.214 -2.2409  1.6999 -1.7772
  110OSM    C5S11325  -0.055   4.110  10.205 -0.0765  0.4032 -0.9968
  110OSM    H5S11326  -0.059   4.207  10.258 -0.5568 -0.8607  1.4328
  110OSM    C6S11327  -0.081   4.120  10.061 -0.6394 -0.4804 -0.1166
  110OSM    H6S11328  -0.169   4.186  10.044  0.3122  0.8315 -0.0567
  110OSM    H6T11329  -0.105   4.025  10.007  1.2144  0.0931 -2.0926
  110OSM    C7S11330   0.050   4.170   9.996  0.1033  0.3726 -0.0347
  110OSM    H7S11331   0.129   4.106  10.040 -0.6698  0.5919  1.7318
  110OSM    H7T11332   0.065   4.280  10.008 -1.3634  0.8929 -2.2370
  110OSM    C8S11333   0.040   4.157   9.843  0.0430  0.6665 -0.1534
  110OSM    H8S11334  -0.010   4.251   9.811  1.5366  0.6218 -2.8255
  110OSM    H8T11335  -0.024   4.074   9.804  2.4945 -0.0385 -3.0182
  110OSM    C9S11336   0.176   4.146   9.780  0.2259 -0.8957 -0.5164
  110OSM    H9S11337   0.241   4.069   9.826 -1.5842 -2.0546  0.2006
  110OSM    H9T11338   0.229   4.241   9.803  0.0540 -0.3376 -2.2658
  110OSM   C10S11339   0.161   4.119   9.630 -0.7918 -0.6670 -0.2499
  110OSM   H10S11340   0.098   4.198   9.584 -0.0426 -1.4840 -2.8114
  110OSM   H10T11341   0.109   4.022   9.619 -0.1370 -1.1382  0.6572
  110OSM   C11S11342   0.294   4.107   9.554 -0.1668 -0.3097 -0.1943
  110OSM   H11S11343   0.367   4.049   9.614 -0.9684  0.7985  1.9813
  110OSM   H11T11344   0.342   4.206   9.541  0.1762 -0.3884  0.4347
  110OSM   C12S11345   0.282   4.056   9.412  0.4314 -0.2887 -0.3165
  110OSM   H12S11346   0.191   4.094   9.361 -0.6838 -3.3622 -0.8777
  110OSM   H12T11347   0.274   3.946   9.426  1.1777 -0.4959 -1.4497
  110OSM   C13S11348   0.417   4.076   9.333 -0.8700  0.1887  0.4414
  110OSM   H13S11349   0.485   4.001   9.379  1.1746  2.0284  0.5586
  110OSM   H13T11350   0.460   4.178   9.338 -1.7408  0.7496 -2.0771
  110OSM   C14S11351   0.391   4.035   9.187 -0.4847 -1.2808 -0.1329
  110OSM   H14S11352   0.320   4.103   9.135 -0.7948 -1.1761  0.4190
  110OSM   H14T11353   0.328   3.943   9.191 -1.7332 -0.4294  1.9633
  110OSM   C15S11354   0.519   4.011   9.109  0.3345  0.1148  0.7469
  110OSM   H15S11355   0.570   3.915   9.131 -0.1780 -0.3719 -0.1400
  110OSM   H15T11356   0.586   4.099   9.117  0.2836  0.1820  0.4527
  110OSM   C16S11357   0.501   4.011   8.954  0.1321 -0.0106  0.1995
  110OSM   H16S11358   0.455   4.109   8.928 -0.0069 -0.0636  0.2463
  110OSM   H16T11359   0.423   3.934   8.939 -2.8465  2.4220  1.8629
  110OSM   C17S11360   0.626   3.996   8.871 -1.1142  0.5859  0.2367
  110OSM   H17S11361   0.676   3.905   8.909 -0.4056  0.7680 -0.2296
  110OSM   H17T11362   0.705   4.073   8.885 -0.5796  0.1761 -0.4848
  110OSM   C18S11363   0.600   3.978   8.719 -0.0787  0.0969  0.6601
  110OSM   H18S11364   0.685   3.919   8.678  0.9798  1.0379  1.4045
  110OSM   H18T11365   0.582   4.073   8.664  1.0672  0.2933  0.5900
  110OSM   H18U11366   0.507   3.920   8.703 -1.2166  2.0173  0.0051
  110OSM    C1F11367   0.339   3.802  10.337 -0.3193  0.5762  0.1663
  110OSM     OF11368   0.320   3.686  10.370 -0.4688  0.5012 -0.1822
  110OSM    C2F11369   0.476   3.852  10.276 -0.1193  0.1980 -0.1215
  110OSM    H2F11370   0.529   3.908  10.357  0.3703  2.6659 -2.0332
  110OSM    H2G11371   0.451   3.922  10.194  1.5011 -0.8128 -1.5283
  110OSM    C3F11372   0.547   3.736  10.213  0.3092  0.3496 -0.4136
  110OSM    H3F11373   0.478   3.658  10.175 -2.8925  1.0780  3.1691
  110OSM    H3G11374   0.610   3.699  10.297 -0.1266  2.7475  1.0728
  110OSM    C4F11375   0.633   3.766  10.096  0.4448  0.0757 -0.0113
  110OSM    H4F11376   0.707   3.684  10.089  0.3184 -0.0084 -0.3828
  110OSM    H4G11377   0.689   3.860  10.116  0.9078 -0.6399  2.4466
  110OSM    C5F11378   0.553   3.795   9.969 -0.4632 -0.6300 -0.5302
  110OSM    H5F11379   0.508   3.897   9.961 -1.7924 -1.0660  0.9072
  110OSM    H5G11380   0.466   3.728   9.953 -1.6609  1.1237 -1.8303
  110OSM    C6F11381   0.642   3.787   9.841  0.1884 -0.9648  0.7997
  110OSM    H6F11382   0.672   3.683   9.815 -2.4547 -2.0055  1.5717
  110OSM    H6G11383   0.732   3.850   9.860 -0.2791  0.1709 -0.6006
  110OSM    C7F11384   0.582   3.841   9.709  0.0017  0.7105  0.3883
  110OSM    H7F11385   0.670   3.835   9.641  1.2637  2.9350  1.7179
  110OSM    H7G11386   0.554   3.949   9.715  2.2511  1.3776 -0.1339
  110OSM    C8F11387   0.458   3.767   9.654  0.4823 -0.0676 -0.7214
  110OSM    H8F11388   0.433   3.830   9.566  1.2911  1.5444  0.1524
  110OSM    H8G11389   0.372   3.778   9.724 -0.1897 -2.4570 -1.1016
  110OSM    C9F11390   0.499   3.629   9.623 -0.3541  0.3092  0.4595
  110OSM    H9F11391   0.546   3.581   9.710  1.1451  2.7845  1.1027
  110OSM   C10F11392   0.486   3.568   9.502 -0.4948  0.6788 -0.4466
  110OSM   H10F11393   0.516   3.463   9.494 -0.6306  0.6473 -0.5616
  110OSM   C11F11394   0.432   3.627   9.371 -0.1418  0.1662  0.1627
  110OSM   H11F11395   0.449   3.736   9.358 -0.4347  0.3371  1.1343
  110OSM   H11G11396   0.323   3.614   9.355 -0.3001  1.9935 -0.4452
  110OSM   C12F11397   0.497   3.556   9.250 -0.4913 -0.1239 -0.2957
  110OSM   H12F11398   0.475   3.447   9.256 -2.1108  0.2245  1.0885
  110OSM   H12G11399   0.605   3.581   9.247 -0.5558  0.0533 -1.3521
  110OSM   C13F11400   0.447   3.605   9.120 -0.1879 -1.1544  0.2887
  110OSM   H13F11401   0.507   3.696   9.100 -0.9033 -0.0525  2.7607
  110OSM   H13G11402   0.345   3.650   9.120 -0.2847 -1.3628 -0.3274
  110OSM   C14F11403   0.451   3.512   8.995 -0.1281 -0.4135 -0.3659
  110OSM   H14F11404   0.376   3.431   9.006 -0.5726 -0.1181 -1.2079
  110OSM   H14G11405   0.552   3.467   8.987  0.8969  2.0140 -2.3691
  110OSM   C15F11406   0.396   3.583   8.868  0.0554 -0.1127  0.2506
  110OSM   H15F11407   0.468   3.667   8.860 -0.0524  0.0235  0.6814
  110OSM   H15G11408   0.298   3.634   8.875  0.2559  0.3726 -0.3833
  110OSM   C16F11409   0.392   3.497   8.735 -0.0886 -0.2086  0.2513
  110OSM   H16F11410   0.315   3.417   8.742  1.3477 -1.6858 -0.4058
  110OSM   H16G11411   0.496   3.464   8.715 -0.2004 -0.6663  0.4132
  110OSM   C17F11412   0.358   3.574   8.612  0.3640  0.1858 -0.0264
  110OSM   H17F11413   0.438   3.650   8.600  0.3063  0.4158  1.0045
  110OSM   H17G11414   0.256   3.619   8.615 -0.0276 -0.7047  0.6297
  110OSM   C18F11415   0.373   3.480   8.487 -0.2168  0.3212 -0.0270
  110OSM   H18F11416   0.305   3.393   8.477 -0.6753  0.6720 -0.0308
  110OSM   H18G11417   0.478   3.446   8.483 -0.2491  0.2881 -0.6774
  110OSM   H18H11418   0.362   3.544   8.397  1.5608 -0.0142 -0.5102
  111OSM      N11419   1.713   3.775  11.052 -0.2046  0.5813 -0.0119
  111OSM    C1511420   1.747   3.628  11.029  1.0381 -0.0570  0.2436
  111OSM   H15A11421   1.854   3.619  11.015  0.7139 -0.5072 -2.7784
  111OSM   H15B11422   1.702   3.596  10.936  0.5147 -1.6563  1.0098
  111OSM   H15C11423   1.717   3.560  11.107 -3.5531  1.9194  0.4996
  111OSM    C1411424   1.585   3.768  11.127  0.1047  0.2357  0.3257
  111OSM   H14A11425   1.602   3.722  11.223  0.9620 -1.7075 -0.7025
  111OSM   H14B11426   1.516   3.714  11.062  1.2975  0.7134 -1.4028
  111OSM   H14C11427   1.545   3.868  11.139 -1.4341 -0.5054  1.8945
  111OSM    C1311428   1.821   3.824  11.140 -0.6949  0.0124 -0.7677
  111OSM   H13A11429   1.917   3.819  11.090  0.3209 -0.0781  1.1023
  111OSM   H13B11430   1.817   3.770  11.233 -1.0247  1.4152  0.0670
  111OSM   H13C11431   1.790   3.923  11.170 -0.6895 -0.2745  0.2209
  111OSM    C1211432   1.698   3.863  10.932 -0.1184  0.0956  0.1455
  111OSM   H12A11433   1.789   3.878  10.875  0.2697  0.8874  0.9586
  111OSM   H12B11434   1.684   3.964  10.967 -0.0631  0.0732  0.2349
  111OSM    C1111435   1.588   3.834  10.826  0.7680 -0.6662  0.7889
  111OSM   H11A11436   1.594   3.725  10.803  1.4341 -0.5097  0.1885
  111OSM   H11B11437   1.603   3.883  10.728  0.5387 -4.1468 -1.1672
  111OSM      P11438   1.398   4.010  10.862  0.2613  0.5039 -0.1166
  111OSM    O1311439   1.267   4.017  10.932  0.1906  0.1155 -0.1127
  111OSM    O1411440   1.502   4.111  10.891  0.1290  0.2452 -0.0707
  111OSM    O1111441   1.360   4.017  10.709  0.3363 -0.6113 -0.4130
  111OSM    O1211442   1.453   3.858  10.879  0.1507 -0.3758 -0.5902
  111OSM    C1S11443   1.306   3.912  10.644 -0.8173  0.2087 -0.4078
  111OSM    H1S11444   1.201   3.887  10.671 -1.6284  1.5480 -2.0707
  111OSM    H1T11445   1.354   3.815  10.667 -0.8892  0.5358  1.1943
  111OSM     NF11446   1.255   3.807  10.435 -0.2596 -0.1825 -0.8326
  111OSM    HNF11447   1.329   3.746  10.408  0.1507  0.5741 -1.4931
  111OSM    C2S11448   1.320   3.923  10.488  0.5517 -0.3992 -0.2199
  111OSM    H2S11449   1.266   4.016  10.461  0.7795 -0.7339 -1.9242
  111OSM    C3S11450   1.462   3.950  10.435  0.2053  0.4727  0.5639
  111OSM    H3S11451   1.531   3.876  10.483 -2.1768 -1.1186  1.7858
  111OSM     O311452   1.516   4.074  10.484  0.5450 -0.1095 -0.0477
  111OSM    HO311453   1.453   4.077  10.557  0.9478  0.1950  0.2919
  111OSM    C4S11454   1.479   3.958  10.283  0.0750  0.2924 -0.4056
  111OSM    H4S11455   1.449   4.056  10.243 -1.3281 -0.5216 -1.4549
  111OSM    C5S11456   1.521   3.858  10.202 -0.1869 -0.8266  0.3882
  111OSM    H5S11457   1.563   3.769  10.252  0.0428  1.2195  4.2868
  111OSM    C6S11458   1.531   3.868  10.050  0.1366  0.7900  0.2966
  111OSM    H6S11459   1.466   3.786  10.013  0.4554  0.3557  0.6860
  111OSM    H6T11460   1.641   3.859  10.032  0.0306  1.2209 -0.6455
  111OSM    C7S11461   1.479   4.001   9.986 -0.8488 -0.4137 -0.6497
  111OSM    H7S11462   1.501   4.085  10.056  1.5618 -0.5105 -1.1933
  111OSM    H7T11463   1.368   3.998   9.993 -0.7082 -1.7483  2.1654
  111OSM    C8S11464   1.511   4.036   9.837 -0.1546 -0.1511  0.6016
  111OSM    H8S11465   1.610   3.991   9.816 -1.2368 -2.4955  0.1376
  111OSM    H8T11466   1.513   4.146   9.819 -2.7374  0.0096  0.8559
  111OSM    C9S11467   1.405   3.971   9.742  0.0081 -0.5303 -1.1842
  111OSM    H9S11468   1.300   4.004   9.758  0.0537 -0.7829 -0.3491
  111OSM    H9T11469   1.398   3.863   9.764  0.8110 -0.0871  1.6856
  111OSM   C10S11470   1.433   4.004   9.599 -0.4310  0.0210 -0.5901
  111OSM   H10S11471   1.541   3.982   9.585  0.1786  2.4148 -0.1378
  111OSM   H10T11472   1.416   4.108   9.566 -1.8544  0.0065  0.0618
  111OSM   C11S11473   1.349   3.912   9.509 -0.9432  0.1431 -0.0068
  111OSM   H11S11474   1.243   3.925   9.540 -0.7096  0.5424  0.6292
  111OSM   H11T11475   1.381   3.810   9.541 -0.4130  0.4695  0.5245
  111OSM   C12S11476   1.382   3.934   9.363  0.5246 -0.1414 -0.1083
  111OSM   H12S11477   1.492   3.939   9.352  0.3866  0.5441 -1.3821
  111OSM   H12T11478   1.335   4.033   9.341 -2.7757 -1.2672  1.2326
  111OSM   C13S11479   1.331   3.827   9.273 -0.1042 -0.0463  0.5605
  111OSM   H13S11480   1.220   3.829   9.275 -0.1353  1.5457 -0.5124
  111OSM   H13T11481   1.372   3.731   9.310 -0.5468 -0.1985  0.6560
  111OSM   C14S11482   1.382   3.839   9.120 -0.0259 -0.3306  0.2098
  111OSM   H14S11483   1.482   3.790   9.120  0.3099 -0.1047 -4.3851
  111OSM   H14T11484   1.391   3.940   9.075 -3.8785  0.0863 -0.0071
  111OSM   C15S11485   1.311   3.748   9.029  0.4237 -0.1104  0.0115
  111OSM   H15S11486   1.202   3.765   9.031 -0.0917 -2.1297 -3.3026
  111OSM   H15T11487   1.324   3.642   9.061 -0.9244 -0.1087  0.6296
  111OSM   C16S11488   1.351   3.750   8.875  0.0540  0.3630 -0.1438
  111OSM   H16S11489   1.357   3.854   8.838  1.3000  0.4873  0.3520
  111OSM   H16T11490   1.273   3.700   8.813 -0.7900  0.1226  1.0824
  111OSM   C17S11491   1.489   3.682   8.842  0.2539 -0.5489  0.0418
  111OSM   H17S11492   1.472   3.575   8.814 -0.2621  0.1093 -2.4487
  111OSM   H17T11493   1.553   3.689   8.932  0.5161 -0.7512 -0.1281
  111OSM   C18S11494   1.577   3.747   8.723 -0.4004  0.2685 -0.2462
  111OSM   H18S11495   1.671   3.688   8.719  0.2230  1.2545 -0.3785
  111OSM   H18T11496   1.598   3.856   8.726 -1.2384  0.4624 -0.9265
  111OSM   H18U11497   1.541   3.725   8.620  2.1359 -0.2146 -1.0916
  111OSM    C1F11498   1.123   3.783  10.423  0.2614 -0.2114  0.5745
  111OSM     OF11499   1.050   3.864  10.472  0.1009 -0.3226 -0.6668
  111OSM    C2F11500   1.074   3.665  10.353  0.4347 -0.3045  0.2631
  111OSM    H2F11501   0.993   3.624  10.418 -1.7524  1.9605 -0.8333
  111OSM    H2G11502   1.160   3.599  10.333  1.1620  0.9009 -0.6850
  111OSM    C3F11503   0.996   3.699  10.223 -0.4564 -0.5839 -0.2278
  111OSM    H3F11504   0.912   3.765  10.257 -0.3292 -1.3004  1.5783
  111OSM    H3G11505   0.952   3.603  10.188 -0.9760 -0.2090 -0.6239
  111OSM    C4F11506   1.094   3.754  10.118 -0.3045  0.1428 -0.1191
  111OSM    H4F11507   1.163   3.672  10.089 -1.4678 -1.4599  1.3759
  111OSM    H4G11508   1.149   3.837  10.165 -1.1576  1.3050 -1.1108
  111OSM    C5F11509   1.019   3.809   9.994  0.0150  0.1878  0.4995
  111OSM    H5F11510   0.940   3.875  10.035 -0.7888  0.8269 -1.9673
  111OSM    H5G11511   0.970   3.728   9.936  0.8818 -0.1342  0.1987
  111OSM    C6F11512   1.105   3.897   9.896  0.8768 -0.1062 -0.4243
  111OSM    H6F11513   1.204   3.850   9.878  1.3974  1.0721 -0.7751
  111OSM    H6G11514   1.124   3.994   9.946  1.5423 -0.8204  0.7432
  111OSM    C7F11515   1.035   3.936   9.766  0.6578 -0.2762 -0.2250
  111OSM    H7F11516   1.089   4.022   9.722 -2.1323  1.5353 -0.3614
  111OSM    H7G11517   0.932   3.955   9.803  0.4987 -2.1371  0.4540
  111OSM    C8F11518   1.029   3.818   9.663 -0.3649  0.1923 -0.1502
  111OSM    H8F11519   0.980   3.739   9.723  0.6175  0.5641  1.1798
  111OSM    H8G11520   1.138   3.798   9.659  0.1373  2.7326 -1.4344
  111OSM    C9F11521   0.967   3.854   9.538  0.4239 -0.9765 -0.3457
  111OSM    H9F11522   0.982   3.961   9.519  0.5235 -1.2598 -1.9907
  111OSM   C10F11523   0.934   3.769   9.443  1.0738  0.0566 -0.6452
  111OSM   H10F11524   0.882   3.803   9.352 -2.9357  0.7805  1.6941
  111OSM   C11F11525   0.945   3.618   9.447  1.0807  0.5602  0.0100
  111OSM   H11F11526   0.871   3.570   9.515  0.0970  0.6623 -0.9551
  111OSM   H11G11527   1.040   3.571   9.477 -0.4068 -2.5233  0.2940
  111OSM   C12F11528   0.908   3.556   9.314 -0.3841  0.8218 -0.0680
  111OSM   H12F11529   0.803   3.584   9.292  0.1945  1.9009 -1.6989
  111OSM   H12G11530   0.905   3.445   9.318  0.0362  0.8346  0.6657
  111OSM   C13F11531   1.001   3.596   9.199 -0.7014 -0.0522  1.1196
  111OSM   H13F11532   1.109   3.580   9.220 -0.5348  0.0392  0.3721
  111OSM   H13G11533   1.001   3.705   9.176  4.0366  0.0144  0.5534
  111OSM   C14F11534   0.956   3.518   9.075  0.1401  0.0702  0.1789
  111OSM   H14F11535   0.845   3.510   9.083 -0.1355  2.4187 -0.5209
  111OSM   H14G11536   0.998   3.415   9.074 -0.0429 -0.0650 -2.7262
  111OSM   C15F11537   0.978   3.571   8.934 -1.0754 -0.2478  0.1649
  111OSM   H15F11538   1.084   3.591   8.910 -1.1452 -0.8026 -0.6692
  111OSM   H15G11539   0.947   3.677   8.935  1.1467  0.4778 -1.5123
  111OSM   C16F11540   0.910   3.491   8.822 -0.0701  0.1530 -0.0853
  111OSM   H16F11541   0.801   3.510   8.830  0.0836  0.3707  2.2847
  111OSM   H16G11542   0.939   3.384   8.830 -2.2927 -0.4003  1.5542
  111OSM   C17F11543   0.946   3.541   8.673 -0.4464  0.2019  0.0869
  111OSM   H17F11544   1.056   3.532   8.677 -0.3261  0.7807 -1.3348
  111OSM   H17G11545   0.912   3.646   8.662  0.3793  0.4756  0.1102
  111OSM   C18F11546   0.899   3.448   8.557 -0.3873 -0.4798  0.0409
  111OSM   H18F11547   0.800   3.404   8.580 -0.3063 -1.0990 -0.7778
  111OSM   H18G11548   0.980   3.375   8.538  1.7557  2.2164 -2.1890
  111OSM   H18H11549   0.873   3.505   8.466 -0.2765 -2.5370 -1.3278
  112OSM      N11550   0.888   1.198  10.888 -0.0796 -0.5184 -0.5985
  112OSM    C1511551   0.976   1.270  10.787 -0.1504 -0.1758 -0.2362
  112OSM   H15A11552   0.911   1.328  10.725 -0.5270 -0.0948  0.2301
  112OSM   H15B11553   1.020   1.200  10.716 -0.2163  1.0080 -1.4806
  112OSM   H15C11554   1.055   1.324  10.838  1.6004 -0.0598 -2.8701
  112OSM    C1411555   0.839   1.293  10.991 -0.5865 -0.4756 -0.0613
  112OSM   H14A11556   0.793   1.381  10.947  0.9470  1.4754  1.9996
  112OSM   H14B11557   0.917   1.334  11.053 -1.1863  0.2001  0.2579
  112OSM   H14C11558   0.771   1.246  11.060 -1.6018  1.0639  0.0491
  112OSM    C1311559   0.774   1.135  10.808  0.2725 -0.1947  0.3943
  112OSM   H13A11560   0.715   1.211  10.760  2.1830  1.8056  1.0347
  112OSM   H13B11561   0.716   1.077  10.878 -1.2062  2.2217  1.2933
  112OSM   H13C11562   0.815   1.074  10.729  2.2309  0.8280  0.5588
  112OSM    C1211563   0.970   1.092  10.956 -0.8986 -0.5742  0.0638
  112OSM   H12A11564   1.062   1.138  10.990 -0.1009 -2.0036 -0.0872
  112OSM   H12B11565   1.016   1.029  10.882 -1.0146 -1.7552  0.9753
  112OSM    C1111566   0.895   1.004  11.054  0.2019  0.2031 -0.8727
  112OSM   H11A11567   0.850   1.061  11.138 -0.7879  0.2030 -1.3863
  112OSM   H11B11568   0.974   0.954  11.114 -1.7351 -0.1118  1.5984
  112OSM      P11569   0.879   0.775  10.941  0.0423 -0.4392 -0.2080
  112OSM    O1311570   0.981   0.734  11.042  0.1197  0.7493  0.3864
  112OSM    O1411571   0.781   0.673  10.894  0.4215  0.1397 -0.0931
  112OSM    O1111572   0.961   0.822  10.819  0.2684 -0.2118 -0.3437
  112OSM    O1211573   0.810   0.911  10.986  0.0215  0.2553 -0.1595
  112OSM    C1S11574   0.907   0.824  10.681 -0.5146  0.4281 -0.0575
  112OSM    H1S11575   0.822   0.895  10.679 -0.0340  1.0729  1.0931
  112OSM    H1T11576   0.880   0.720  10.652 -1.4656  0.2918  1.2450
  112OSM     NF11577   0.966   0.924  10.469 -0.8506  0.2116  0.1258
  112OSM    HNF11578   0.944   0.851  10.404 -0.4366 -0.1799  0.4231
  112OSM    C2S11579   1.021   0.885  10.599  1.0596 -0.5136  0.1018
  112OSM    H2S11580   1.054   0.973  10.658 -1.2313  0.4086  0.1066
  112OSM    C3S11581   1.143   0.791  10.593 -0.4148 -0.9133  0.5839
  112OSM    H3S11582   1.118   0.698  10.537 -2.7525 -0.1452  0.2427
  112OSM     O311583   1.189   0.756  10.719 -0.1067 -1.1720 -0.2124
  112OSM    HO311584   1.120   0.794  10.773  2.4856  2.4729  0.8880
  112OSM    C4S11585   1.262   0.856  10.525  0.4018  0.4946 -0.3974
  112OSM    H4S11586   1.297   0.957  10.551  1.4635  0.0427 -0.0205
  112OSM    C5S11587   1.332   0.794  10.427 -0.3365 -0.1987  0.6871
  112OSM    H5S11588   1.304   0.693  10.393  0.0202 -0.2641  0.5747
  112OSM    C6S11589   1.457   0.846  10.359 -0.2397 -0.0425  0.1662
  112OSM    H6S11590   1.541   0.778  10.386  1.5508  2.5309  1.4649
  112OSM    H6T11591   1.484   0.943  10.406 -2.8956  0.8361  0.0483
  112OSM    C7S11592   1.449   0.879  10.205 -0.6289  0.0993  0.3933
  112OSM    H7S11593   1.528   0.949  10.168  0.5026 -1.5852 -0.5039
  112OSM    H7T11594   1.356   0.938  10.188  0.5790  1.3397 -2.6201
  112OSM    C8S11595   1.446   0.748  10.117 -0.0622 -0.4293 -0.5947
  112OSM    H8S11596   1.366   0.684  10.161 -0.7066  0.5699 -0.2827
  112OSM    H8T11597   1.546   0.702  10.128  2.3560  4.3633  0.1890
  112OSM    C9S11598   1.417   0.793   9.966 -0.8026  0.2315 -0.5661
  112OSM    H9S11599   1.486   0.874   9.935  1.8622 -2.1692 -1.3202
  112OSM    H9T11600   1.313   0.828   9.948 -1.9434 -3.0827 -1.2210
  112OSM   C10S11601   1.453   0.677   9.875 -0.2178 -0.1883 -0.2258
  112OSM   H10S11602   1.401   0.584   9.906  1.4895 -1.0702  0.0706
  112OSM   H10T11603   1.561   0.652   9.877 -0.7998 -2.9716  1.7062
  112OSM   C11S11604   1.416   0.705   9.726  0.4919  0.3789 -0.4228
  112OSM   H11S11605   1.477   0.785   9.678  0.2341 -0.8682 -2.9536
  112OSM   H11T11606   1.311   0.741   9.727  0.0921 -0.7279  0.9837
  112OSM   C12S11607   1.425   0.582   9.633 -0.3559 -0.2032  0.4565
  112OSM   H12S11608   1.334   0.525   9.660 -0.4947  0.1292  0.6967
  112OSM   H12T11609   1.516   0.524   9.657 -0.2562  0.1454  0.9462
  112OSM   C13S11610   1.413   0.628   9.485  0.0519 -0.1237 -0.2559
  112OSM   H13S11611   1.514   0.667   9.459  0.6594 -1.3449  0.1446
  112OSM   H13T11612   1.333   0.704   9.475 -0.4166 -0.6518 -0.6205
  112OSM   C14S11613   1.380   0.516   9.393 -0.0321  0.2868  0.5889
  112OSM   H14S11614   1.290   0.467   9.435 -0.6630  0.5476 -0.4115
  112OSM   H14T11615   1.471   0.452   9.388  1.6162  2.5100 -3.1619
  112OSM   C15S11616   1.362   0.573   9.250  0.2105 -0.9457  0.1906
  112OSM   H15S11617   1.452   0.633   9.225 -0.2179 -0.3205  0.1263
  112OSM   H15T11618   1.280   0.648   9.242 -0.5450 -1.7394  0.4096
  112OSM   C16S11619   1.335   0.463   9.152  0.1602  0.8546 -0.1721
  112OSM   H16S11620   1.263   0.394   9.200  0.9565  0.9254  1.1709
  112OSM   H16T11621   1.427   0.400   9.149 -0.6573 -0.4660  1.1404
  112OSM   C17S11622   1.308   0.530   9.015 -0.7461  0.5019 -0.0968
  112OSM   H17S11623   1.390   0.603   8.999  2.3250 -3.1354 -2.6969
  112OSM   H17T11624   1.211   0.582   9.031 -1.7358 -1.2763 -0.0979
  112OSM   C18S11625   1.311   0.436   8.894 -0.2316 -0.0634  0.2728
  112OSM   H18S11626   1.409   0.385   8.882 -1.1566 -1.2854 -3.9873
  112OSM   H18T11627   1.280   0.481   8.797  1.2934  0.0376 -0.1959
  112OSM   H18U11628   1.234   0.358   8.914  0.3662 -0.2055  2.2224
  112OSM    C1F11629   0.903   1.039  10.449  0.1357 -0.0005  0.0419
  112OSM     OF11630   0.907   1.125  10.530  0.5678 -0.4205  0.1949
  112OSM    C2F11631   0.814   1.053  10.326  0.1148  0.3008 -0.3799
  112OSM    H2F11632   0.730   1.121  10.351  0.4691  0.4150  0.5320
  112OSM    H2G11633   0.767   0.954  10.306  1.3982 -0.6313  0.9624
  112OSM    C3F11634   0.890   1.097  10.193 -0.5392  0.0206 -0.6638
  112OSM    H3F11635   0.976   1.031  10.172  0.1419  0.5763  0.2952
  112OSM    H3G11636   0.935   1.198  10.202  0.6748 -0.5378 -0.3358
  112OSM    C4F11637   0.791   1.098  10.074 -0.0779  0.7660  0.4043
  112OSM    H4F11638   0.696   1.155  10.086 -1.3145  0.0477 -4.0556
  112OSM    H4G11639   0.784   0.989  10.050 -0.3035  0.0344  3.3818
  112OSM    C5F11640   0.858   1.164   9.954 -0.3352  0.0773 -0.2782
  112OSM    H5F11641   0.951   1.107   9.934  1.1650  1.2807  2.7621
  112OSM    H5G11642   0.886   1.268   9.979  1.2911 -0.3150 -0.4090
  112OSM    C6F11643   0.766   1.161   9.832 -0.2552 -0.0841 -0.0272
  112OSM    H6F11644   0.803   1.248   9.774  0.6519 -1.1418 -1.0862
  112OSM    H6G11645   0.665   1.169   9.877  0.9295  0.6115  2.7378
  112OSM    C7F11646   0.771   1.033   9.756 -0.1750  0.2657 -0.1249
  112OSM    H7F11647   0.749   0.955   9.833 -1.1090  1.4382  0.8399
  112OSM    H7G11648   0.868   1.022   9.704 -1.0532  0.7337 -1.9246
  112OSM    C8F11649   0.665   1.036   9.642  0.8184 -0.7200  0.1086
  112OSM    H8F11650   0.564   1.043   9.688  0.9527  4.6319  0.2002
  112OSM    H8G11651   0.661   0.936   9.593  1.6447 -0.2935 -0.8555
  112OSM    C9F11652   0.697   1.144   9.532 -0.2198 -0.0573  0.4163
  112OSM    H9F11653   0.691   1.246   9.573 -1.7584 -0.4182  1.1509
  112OSM   C10F11654   0.704   1.119   9.402  0.0777  0.3993  0.4142
  112OSM   H10F11655   0.717   1.208   9.339 -0.2532  0.0604 -0.1384
  112OSM   C11F11656   0.697   0.987   9.327 -0.3337  0.4001  0.7178
  112OSM   H11F11657   0.742   0.903   9.384 -0.1420  1.7146  2.6274
  112OSM   H11G11658   0.759   0.987   9.236  1.2000  0.4881  1.7266
  112OSM   C12F11659   0.552   0.939   9.307  0.3493 -0.0655  0.1973
  112OSM   H12F11660   0.502   0.926   9.405  3.3559  2.8462  2.3108
  112OSM   H12G11661   0.553   0.837   9.263  2.2326 -0.4746  1.1264
  112OSM   C13F11662   0.469   1.040   9.219 -0.3864  0.1277 -0.2487
  112OSM   H13F11663   0.459   1.136   9.273  2.1136  1.3006 -1.6880
  112OSM   H13G11664   0.363   1.019   9.194 -0.0925  0.6713 -2.1452
  112OSM   C14F11665   0.530   1.072   9.081 -1.4685  0.4963  0.7486
  112OSM   H14F11666   0.633   1.114   9.088 -1.3324  0.1200  1.0159
  112OSM   H14G11667   0.476   1.159   9.036  2.0295  0.8522 -3.4624
  112OSM   C15F11668   0.542   0.951   8.986  0.0183  0.4935 -0.0936
  112OSM   H15F11669   0.448   0.891   8.991  1.7352 -2.2994  4.1290
  112OSM   H15G11670   0.623   0.889   9.030  0.4967  1.2444  0.1067
  112OSM   C16F11671   0.573   1.003   8.842  0.1198  0.5072 -0.2128
  112OSM   H16F11672   0.520   1.098   8.820  0.6636  1.1888  1.2982
  112OSM   H16G11673   0.533   0.932   8.767  0.0819  1.0915 -0.7566
  112OSM   C17F11674   0.725   1.023   8.813 -0.2057 -0.4412 -0.6225
  112OSM   H17F11675   0.787   0.931   8.825 -0.2927 -0.4398 -0.1401
  112OSM   H17G11676   0.755   1.100   8.887  0.1456 -1.4601  0.3270
  112OSM   C18F11677   0.743   1.071   8.670  0.2698 -0.2287  0.0862
  112OSM   H18F11678   0.835   1.134   8.662  1.1228 -1.4970 -0.3171
  112OSM   H18G11679   0.667   1.143   8.633  0.4526 -0.6098 -1.0812
  112OSM   H18H11680   0.753   0.993   8.592 -0.5717  0.4415 -0.7139
  113OSM      N11681   0.549   2.013  10.913  0.1165  0.3137 -0.6440
  113OSM    C1511682   0.452   2.041  10.800  0.0541  0.1678 -0.0175
  113OSM   H15A11683   0.350   2.026  10.832  0.8396 -2.6201  1.4600
  113OSM   H15B11684   0.470   1.967  10.723 -0.0560 -1.1704  1.2106
  113OSM   H15C11685   0.480   2.135  10.755  0.1518  0.4385  0.5943
  113OSM    C1411686   0.541   2.119  11.025  0.3243  0.5580  0.0905
  113OSM   H14A11687   0.568   2.216  10.986  3.7543  0.5740  2.1333
  113OSM   H14B11688   0.610   2.097  11.105  0.8493  2.4857  0.2257
  113OSM   H14C11689   0.439   2.113  11.061  0.1531  0.1992 -0.4401
  113OSM    C1311690   0.506   1.877  10.963 -0.1041  0.2260 -0.0601
  113OSM   H13A11691   0.408   1.889  11.007  0.3627  3.4257  0.3255
  113OSM   H13B11692   0.573   1.843  11.041 -1.0163  0.8476  1.0182
  113OSM   H13C11693   0.507   1.808  10.880 -2.8246  2.1925 -1.8961
  113OSM    C1211694   0.694   2.008  10.855  0.1284 -0.8597 -1.2185
  113OSM   H12A11695   0.686   2.074  10.771 -1.7978  0.0258 -0.3944
  113OSM   H12B11696   0.708   1.911  10.809  1.5544 -1.9124  1.2217
  113OSM    C1111697   0.807   2.043  10.944  0.2353  0.5170 -0.2349
  113OSM   H11A11698   0.801   2.152  10.968 -1.7802  0.4095 -0.0730
  113OSM   H11B11699   0.902   2.039  10.886 -1.4654 -1.6473 -3.1630
  113OSM      P11700   0.881   1.830  11.069 -0.4386  0.1604 -0.0743
  113OSM    O1311701   0.998   1.838  11.154 -0.4784  0.1641 -0.0158
  113OSM    O1411702   0.781   1.732  11.118 -0.3244  0.2728 -0.3548
  113OSM    O1111703   0.921   1.809  10.918 -0.2118 -0.3296  0.2083
  113OSM    O1211704   0.809   1.967  11.069 -0.1359  0.0719 -0.1584
  113OSM    C1S11705   0.865   1.703  10.844 -0.2002  0.6736 -0.0496
  113OSM    H1S11706   0.757   1.689  10.865  0.1496  0.7000  1.9136
  113OSM    H1T11707   0.913   1.607  10.871 -2.3142 -0.4390 -0.0687
  113OSM     NF11708   0.785   1.650  10.607 -0.3726 -0.1533 -0.4645
  113OSM    HNF11709   0.816   1.568  10.559  1.6071  0.7085 -0.7401
  113OSM    C2S11710   0.880   1.728  10.687 -0.4712 -0.3718 -0.6298
  113OSM    H2S11711   0.860   1.835  10.668 -0.3525 -0.1299  0.4936
  113OSM    C3S11712   1.029   1.706  10.649  0.0382 -0.5363 -0.1014
  113OSM    H3S11713   1.063   1.602  10.670  0.7992 -0.2635  0.0223
  113OSM     O311714   1.118   1.786  10.722 -0.1746 -0.1137 -0.0591
  113OSM    HO311715   1.072   1.821  10.799 -1.1452 -0.1074 -0.6223
  113OSM    C4S11716   1.040   1.747  10.501  0.1021  0.0901 -0.2833
  113OSM    H4S11717   1.001   1.848  10.478 -0.1948 -0.3804 -1.9770
  113OSM    C5S11718   1.075   1.664  10.404 -0.1448  0.0774  0.4337
  113OSM    H5S11719   1.090   1.557  10.422  0.2525  0.2628  1.2757
  113OSM    C6S11720   1.079   1.718  10.266 -0.1933  0.2088 -0.5272
  113OSM    H6S11721   1.185   1.737  10.235 -0.7649  5.2931 -0.2520
  113OSM    H6T11722   1.019   1.811  10.257 -1.5345 -0.4764  1.0761
  113OSM    C7S11723   1.025   1.616  10.171  0.4912 -0.0287  0.2635
  113OSM    H7S11724   0.924   1.590  10.208  0.3702 -0.1629 -0.1521
  113OSM    H7T11725   1.099   1.534  10.169  1.5645  0.9232 -0.7784
  113OSM    C8S11726   1.016   1.680  10.035 -0.3804  0.3625  0.3709
  113OSM    H8S11727   1.100   1.750  10.014 -0.5743  0.3421 -0.5094
  113OSM    H8T11728   0.922   1.739  10.026 -1.2365 -0.7373  1.6521
  113OSM    C9S11729   1.029   1.579   9.930 -0.4201  0.3324  0.4612
  113OSM    H9S11730   0.938   1.515   9.938  0.8258 -1.5166  0.5758
  113OSM    H9T11731   1.112   1.511   9.958 -1.6492 -0.4882  2.2710
  113OSM   C10S11732   1.059   1.623   9.783 -0.8555 -0.2391  0.0467
  113OSM   H10S11733   1.154   1.681   9.776 -0.2712 -1.3760 -2.4551
  113OSM   H10T11734   0.970   1.683   9.757 -0.3244  0.5936  0.0955
  113OSM   C11S11735   1.073   1.505   9.685 -0.7241  0.1197 -0.1592
  113OSM   H11S11736   0.985   1.437   9.690  0.8589 -1.9106  1.5072
  113OSM   H11T11737   1.166   1.450   9.707 -1.0043 -0.2438  0.1327
  113OSM   C12S11738   1.074   1.552   9.539 -0.1454  0.4907 -0.0847
  113OSM   H12S11739   1.147   1.636   9.534  2.3777 -1.4738  1.1618
  113OSM   H12T11740   0.972   1.593   9.524 -0.6684 -1.3139 -2.0387
  113OSM   C13S11741   1.119   1.446   9.433 -0.7883 -0.0953 -0.9798
  113OSM   H13S11742   1.050   1.361   9.453 -0.5470 -0.9367 -3.3585
  113OSM   H13T11743   1.223   1.410   9.448 -1.4099 -1.6555 -0.1866
  113OSM   C14S11744   1.108   1.503   9.293  0.5224 -0.6793  0.2681
  113OSM   H14S11745   1.204   1.547   9.259  0.2188 -0.1281  0.1077
  113OSM   H14T11746   1.043   1.592   9.284 -0.4335 -1.2031  1.6371
  113OSM   C15S11747   1.067   1.397   9.188  0.1712  0.6826 -0.3328
  113OSM   H15S11748   0.981   1.342   9.231  1.5051 -0.1689  1.3818
  113OSM   H15T11749   1.152   1.325   9.177 -0.6444 -0.5900  1.1827
  113OSM   C16S11750   1.041   1.478   9.054 -0.2497 -0.6919 -0.0660
  113OSM   H16S11751   1.118   1.558   9.048 -1.1172  0.0279 -3.0680
  113OSM   H16T11752   0.938   1.519   9.052 -0.4018 -1.0322 -2.7185
  113OSM   C17S11753   1.063   1.383   8.935 -0.1596 -0.2831  0.2765
  113OSM   H17S11754   1.172   1.363   8.943 -0.0434  0.6158  1.0094
  113OSM   H17T11755   1.037   1.439   8.843  0.1508 -0.7491 -0.0988
  113OSM   C18S11756   0.979   1.250   8.946 -0.3643  0.6154  0.2635
  113OSM   H18S11757   1.022   1.176   9.017 -0.2658 -0.6429 -1.0762
  113OSM   H18T11758   0.982   1.190   8.853  0.9640 -0.0801  0.7397
  113OSM   H18U11759   0.871   1.272   8.967 -0.8395 -2.8341  2.1995
  113OSM    C1F11760   0.658   1.693  10.606 -0.1023  0.3046 -0.3785
  113OSM     OF11761   0.605   1.746  10.705  0.0516  0.2717  0.2181
  113OSM    C2F11762   0.572   1.676  10.480  0.3689 -0.2149  0.3948
  113OSM    H2F11763   0.485   1.745  10.477 -0.6592 -1.4114  1.2843
  113OSM    H2G11764   0.532   1.575  10.501  3.5993 -1.5870  0.5982
  113OSM    C3F11765   0.654   1.691  10.344  0.3568 -0.3450  0.0529
  113OSM    H3F11766   0.725   1.606  10.333  1.8660  1.0549 -1.5832
  113OSM    H3G11767   0.716   1.782  10.335 -0.7030  0.3659 -0.2795
  113OSM    C4F11768   0.559   1.704  10.227  0.2217  0.1589  0.5337
  113OSM    H4F11769   0.480   1.777  10.257 -0.5671 -1.0489  1.4934
  113OSM    H4G11770   0.528   1.598  10.212  0.8397  0.0775 -0.2635
  113OSM    C5F11771   0.625   1.755  10.103  0.3951 -0.2882 -0.2988
  113OSM    H5F11772   0.710   1.696  10.062  0.0732 -0.5851 -0.5496
  113OSM    H5G11773   0.669   1.854  10.125 -0.5365  0.5119 -1.8476
  113OSM    C6F11774   0.524   1.777   9.997  0.4628  0.4784  0.3980
  113OSM    H6F11775   0.452   1.853  10.032  1.1849  1.4614 -0.2158
  113OSM    H6G11776   0.474   1.679   9.980  0.6949  0.3662  0.3523
  113OSM    C7F11777   0.586   1.825   9.861 -0.0374  1.1638 -0.7213
  113OSM    H7F11778   0.662   1.905   9.875 -0.0387  1.2911 -1.4153
  113OSM    H7G11779   0.498   1.857   9.801 -0.8127 -1.6133 -1.2177
  113OSM    C8F11780   0.660   1.724   9.772  0.4071  0.4196 -0.0463
  113OSM    H8F11781   0.747   1.682   9.828  1.4083 -0.3301 -2.0558
  113OSM    H8G11782   0.696   1.775   9.680 -2.2386 -0.6919 -1.8185
  113OSM    C9F11783   0.585   1.602   9.736 -0.2545  0.0128 -0.1177
  113OSM    H9F11784   0.538   1.549   9.820  0.1812  0.8377  0.6608
  113OSM   C10F11785   0.562   1.542   9.616  0.6181 -0.4695  0.1906
  113OSM   H10F11786   0.488   1.461   9.609  0.0205 -0.0388  1.3594
  113OSM   C11F11787   0.612   1.601   9.480 -1.0490 -0.4387 -0.3265
  113OSM   H11F11788   0.666   1.698   9.485 -3.0749  0.7630 -0.4343
  113OSM   H11G11789   0.519   1.635   9.429 -0.5242  2.2764  0.3428
  113OSM   C12F11790   0.683   1.506   9.387  0.3365  0.7980  0.8039
  113OSM   H12F11791   0.641   1.404   9.392  0.6968  0.4918 -1.4239
  113OSM   H12G11792   0.793   1.503   9.403  0.3764  0.8730  0.5520
  113OSM   C13F11793   0.648   1.548   9.237  0.1251 -0.4716 -0.3962
  113OSM   H13F11794   0.727   1.489   9.186  0.7502 -0.1502  0.1759
  113OSM   H13G11795   0.671   1.657   9.234  0.3829 -0.4587  1.1945
  113OSM   C14F11796   0.512   1.505   9.202  0.1619  0.1457  0.2457
  113OSM   H14F11797   0.431   1.536   9.272 -0.4017  0.4815 -0.5390
  113OSM   H14G11798   0.503   1.396   9.186  0.8619 -0.0692  1.2094
  113OSM   C15F11799   0.458   1.574   9.063 -0.5876 -0.0275 -0.7029
  113OSM   H15F11800   0.494   1.679   9.057 -0.8362  0.1059  0.0870
  113OSM   H15G11801   0.349   1.590   9.071 -0.5440  0.8221 -1.5078
  113OSM   C16F11802   0.497   1.495   8.930  0.0768  0.1955 -0.3352
  113OSM   H16F11803   0.427   1.536   8.854 -3.5922 -2.6038  1.2860
  113OSM   H16G11804   0.484   1.387   8.952 -0.5012  0.9158  3.5186
  113OSM   C17F11805   0.649   1.492   8.889  0.2666 -0.9955 -0.0198
  113OSM   H17F11806   0.709   1.458   8.976 -0.1968 -0.1622  0.6467
  113OSM   H17G11807   0.671   1.597   8.861 -1.8365 -0.7527 -1.0137
  113OSM   C18F11808   0.691   1.401   8.774  0.2882 -0.5575  0.1524
  113OSM   H18F11809   0.801   1.389   8.783  0.1505 -0.4544  2.8096
  113OSM   H18G11810   0.649   1.443   8.680 -3.7386 -0.1442  1.9381
  113OSM   H18H11811   0.658   1.299   8.803  0.7396 -0.6324  0.4052
  114OSM      N11812   3.408   5.391  11.366 -0.0548  0.0312  0.0716
  114OSM    C1511813   3.305   5.462  11.449 -0.2554  0.6320 -0.5798
  114OSM   H15A11814   3.280   5.411  11.541 -3.2852  1.1673 -1.0093
  114OSM   H15B11815   3.218   5.475  11.387 -0.8670  0.8366  0.2975
  114OSM   H15C11816   3.343   5.560  11.477 -0.1454  0.6299 -0.7183
  114OSM    C1411817   3.498   5.318  11.464  0.0448  0.3870 -0.7109
  114OSM   H14A11818   3.437   5.293  11.550 -0.4358  0.8199 -0.9227
  114OSM   H14B11819   3.572   5.386  11.504 -1.5530  0.9137  1.5874
  114OSM   H14C11820   3.546   5.234  11.416 -0.0100 -0.0559  0.0023
  114OSM    C1311821   3.340   5.282  11.284 -0.5731  0.0522 -0.2535
  114OSM   H13A11822   3.417   5.218  11.243 -1.3600 -1.3165  0.3392
  114OSM   H13B11823   3.285   5.319  11.198  0.9221 -0.0046 -1.2818
  114OSM   H13C11824   3.273   5.226  11.348  0.2472 -2.7041 -1.6079
  114OSM    C1211825   3.502   5.477  11.287  0.7385 -0.1341  0.5125
  114OSM   H12A11826   3.595   5.423  11.278  1.6678  1.4891 -0.1967
  114OSM   H12B11827   3.529   5.558  11.353  0.8752 -1.4045  2.0508
  114OSM    C1111828   3.471   5.539  11.151  0.5242  0.0166 -0.5411
  114OSM   H11A11829   3.424   5.461  11.088 -1.0386  0.7338 -0.2955
  114OSM   H11B11830   3.555   5.579  11.091 -0.0952 -1.1699 -2.2786
  114OSM      P11831   3.399   5.776  11.239 -0.0072  0.2754  0.0676
  114OSM    O1311832   3.276   5.821  11.310 -0.4782  0.3656  0.0414
  114OSM    O1411833   3.524   5.765  11.314  0.1445  0.0509 -0.2740
  114OSM    O1111834   3.413   5.876  11.123 -0.4989  0.2286  0.7229
  114OSM    O1211835   3.371   5.640  11.173 -0.2008 -0.2045  0.2853
  114OSM    C1S11836   3.525   5.858  11.029 -0.0675  0.1811  0.2208
  114OSM    H1S11837   3.520   5.753  10.994 -0.4191  0.0429  0.6817
  114OSM    H1T11838   3.621   5.877  11.080  0.3407 -1.6296  0.2023
  114OSM     NF11839   3.581   5.880  10.794 -0.3322  0.1012 -0.0604
  114OSM    HNF11840   3.677   5.892  10.770 -0.7325 -0.2513 -2.0375
  114OSM    C2S11841   3.510   5.937  10.900  0.5570 -0.0178  0.4845
  114OSM    H2S11842   3.404   5.950  10.868  0.9784 -1.5167 -1.6937
  114OSM    C3S11843   3.557   6.081  10.926  0.1169 -0.3045 -0.4424
  114OSM    H3S11844   3.665   6.081  10.954 -0.0085  0.4016  0.0794
  114OSM     O311845   3.491   6.141  11.040 -0.3743 -0.8386 -0.4862
  114OSM    HO311846   3.453   6.060  11.074  1.7418 -1.5129  0.4294
  114OSM    C4S11847   3.537   6.159  10.802  0.1057  0.8482  0.0399
  114OSM    H4S11848   3.437   6.155  10.757  0.3824  0.6362 -0.5635
  114OSM    C5S11849   3.630   6.224  10.734 -0.4858 -0.5585 -0.2550
  114OSM    H5S11850   3.734   6.223  10.771 -0.7396 -0.2881  0.4938
  114OSM    C6S11851   3.614   6.305  10.607 -0.4033  0.0097 -0.0769
  114OSM    H6S11852   3.689   6.260  10.538  0.2827 -0.1706  0.7648
  114OSM    H6T11853   3.645   6.411  10.620 -1.2401 -0.0175  2.9653
  114OSM    C7S11854   3.471   6.320  10.556 -0.6122  0.6580 -0.4077
  114OSM    H7S11855   3.400   6.366  10.628 -4.8357 -2.0518 -2.3842
  114OSM    H7T11856   3.435   6.217  10.534  0.1056 -0.4191  2.9295
  114OSM    C8S11857   3.440   6.400  10.428 -0.0957  0.2203 -0.7809
  114OSM    H8S11858   3.486   6.357  10.336  2.3409  0.3919  0.2971
  114OSM    H8T11859   3.480   6.504  10.430 -2.4303  1.2042 -1.2598
  114OSM    C9S11860   3.288   6.416  10.402  0.2657 -0.8759  0.0575
  114OSM    H9S11861   3.227   6.450  10.488 -0.3931 -0.2242 -0.6512
  114OSM    H9T11862   3.258   6.310  10.386  2.6388 -1.5036 -0.6372
  114OSM   C10S11863   3.254   6.487  10.268 -0.5940  0.3841  0.6944
  114OSM   H10S11864   3.328   6.455  10.192  1.1216  0.5001  2.2623
  114OSM   H10T11865   3.276   6.596  10.273  1.0776  0.2075 -1.3444
  114OSM   C11S11866   3.110   6.459  10.232 -0.3927  0.8639  0.1821
  114OSM   H11S11867   3.044   6.500  10.312 -0.9610  0.2212  0.0552
  114OSM   H11T11868   3.087   6.350  10.234 -0.0460  0.7619 -0.8240
  114OSM   C12S11869   3.068   6.513  10.090 -0.0262  0.7308  0.0022
  114OSM   H12S11870   3.122   6.606  10.060  4.4165 -1.4920  0.1890
  114OSM   H12T11871   2.962   6.545  10.098  0.0166  1.0609 -0.6508
  114OSM   C13S11872   3.085   6.400   9.989  0.5239  0.7226 -0.0972
  114OSM   H13S11873   3.022   6.316  10.024 -1.2227  2.5826  1.4932
  114OSM   H13T11874   3.189   6.361   9.983  0.0903 -0.7451  1.2369
  114OSM   C14S11875   3.033   6.433   9.844 -0.0866 -0.3865 -0.1480
  114OSM   H14S11876   3.045   6.339   9.786  2.4191 -0.2963  0.1316
  114OSM   H14T11877   3.099   6.511   9.801 -2.6431  2.4267  0.6343
  114OSM   C15S11878   2.889   6.469   9.831 -0.2979 -0.1192  0.1624
  114OSM   H15S11879   2.879   6.571   9.874  0.9993 -0.1432  0.5786
  114OSM   H15T11880   2.821   6.411   9.897  0.0348 -1.9347 -1.0124
  114OSM   C16S11881   2.836   6.479   9.682 -0.4255 -0.6070 -0.0934
  114OSM   H16S11882   2.917   6.481   9.606 -0.3117 -3.9395 -0.2016
  114OSM   H16T11883   2.771   6.568   9.672  0.6869  0.6011  2.3972
  114OSM   C17S11884   2.745   6.358   9.648 -0.3057 -0.1048  1.2327
  114OSM   H17S11885   2.692   6.374   9.552 -0.9770 -1.4867  1.3469
  114OSM   H17T11886   2.664   6.340   9.722  1.2964  0.2383  3.1757
  114OSM   C18S11887   2.824   6.228   9.635  0.1503 -0.1138 -0.2832
  114OSM   H18S11888   2.860   6.196   9.735  1.1180  1.1542 -0.2086
  114OSM   H18T11889   2.907   6.239   9.562  2.6133 -1.3345  2.1852
  114OSM   H18U11890   2.766   6.138   9.605  0.7161 -1.4182  2.2678
  114OSM    C1F11891   3.530   5.777  10.727 -0.0212 -0.3675 -0.4109
  114OSM     OF11892   3.415   5.736  10.756  0.4769  0.0607 -0.0051
  114OSM    C2F11893   3.613   5.710  10.622  0.3011  0.9610 -0.4883
  114OSM    H2F11894   3.571   5.624  10.566  0.5594 -0.3263  1.2136
  114OSM    H2G11895   3.712   5.679  10.663 -0.0923  0.5146  0.1316
  114OSM    C3F11896   3.660   5.816  10.512  0.0752 -0.1237 -0.1888
  114OSM    H3F11897   3.740   5.769  10.451  0.8929  0.6620  0.2588
  114OSM    H3G11898   3.703   5.907  10.559  0.8937  0.2843 -1.6760
  114OSM    C4F11899   3.548   5.872  10.420  0.0654  0.1708 -0.1388
  114OSM    H4F11900   3.487   5.950  10.469 -1.1152 -1.7212  1.5771
  114OSM    H4G11901   3.482   5.785  10.397  0.3692  0.2022 -1.1859
  114OSM    C5F11902   3.593   5.921  10.280 -0.6176  0.1521  0.5087
  114OSM    H5F11903   3.503   5.925  10.215  0.3929  2.6060 -0.8632
  114OSM    H5G11904   3.654   5.837  10.239  0.6233 -0.0063  2.5302
  114OSM    C6F11905   3.671   6.054  10.280 -0.7146 -0.6824 -0.9732
  114OSM    H6F11906   3.762   6.033  10.339 -1.4229 -0.6587  0.1568
  114OSM    H6G11907   3.611   6.125  10.341 -1.3317 -1.8288 -0.2031
  114OSM    C7F11908   3.714   6.120  10.144  0.5022 -0.3263  0.0026
  114OSM    H7F11909   3.779   6.044  10.096  0.4262 -0.9041  0.7751
  114OSM    H7G11910   3.787   6.201  10.164 -0.5386  0.8538 -0.7822
  114OSM    C8F11911   3.601   6.173  10.063 -0.2087  0.6009  0.7178
  114OSM    H8F11912   3.545   6.237  10.133 -2.5401  0.1688 -0.6396
  114OSM    H8G11913   3.536   6.094  10.018 -0.3677  1.4621 -0.6159
  114OSM    C9F11914   3.663   6.250   9.958 -0.2247 -0.1831 -0.1778
  114OSM    H9F11915   3.718   6.184   9.889  1.0549  0.1234  0.5226
  114OSM   C10F11916   3.670   6.384   9.943  0.2077  0.1270 -0.1022
  114OSM   H10F11917   3.699   6.416   9.842  0.6539  0.9620  0.2771
  114OSM   C11F11918   3.614   6.496  10.023  0.6222 -0.2820 -0.4484
  114OSM   H11F11919   3.681   6.581  10.049  0.0171  0.3335 -0.8619
  114OSM   H11G11920   3.611   6.461  10.128 -0.5360  0.7347 -0.1181
  114OSM   C12F11921   3.486   6.571   9.968 -0.3721 -0.0724  0.3066
  114OSM   H12F11922   3.460   6.642  10.050 -0.6326  1.8447 -1.3731
  114OSM   H12G11923   3.403   6.497   9.960 -2.0108  1.7985 -0.9912
  114OSM   C13F11924   3.503   6.631   9.828 -0.2990 -0.5347 -0.3849
  114OSM   H13F11925   3.529   6.550   9.756  1.5692 -0.1657 -0.1584
  114OSM   H13G11926   3.583   6.708   9.834 -0.3937 -0.3073 -1.6243
  114OSM   C14F11927   3.381   6.714   9.772 -0.2521 -0.3495 -0.7543
  114OSM   H14F11928   3.343   6.799   9.834  2.3829 -0.0169  0.5498
  114OSM   H14G11929   3.294   6.645   9.773  0.5378 -1.3758 -1.2394
  114OSM   C15F11930   3.401   6.773   9.626  0.2430  0.3986  0.1605
  114OSM   H15F11931   3.422   6.696   9.549  0.1318  1.0054 -0.4968
  114OSM   H15G11932   3.493   6.835   9.636  0.2293  0.6140 -0.9093
  114OSM   C16F11933   3.284   6.859   9.582  0.7380 -0.3258  0.1743
  114OSM   H16F11934   3.309   6.893   9.480 -2.2068 -0.3163 -0.6511
  114OSM   H16G11935   3.278   6.945   9.652  0.4677  0.8758 -1.2927
  114OSM   C17F11936   3.157   6.779   9.573  0.6050  0.4722 -0.1428
  114OSM   H17F11937   3.076   6.845   9.537  1.1908  2.1035  1.3996
  114OSM   H17G11938   3.122   6.759   9.677 -1.6937 -0.0806 -0.9735
  114OSM   C18F11939   3.159   6.648   9.485 -0.1999  0.3614  0.1080
  114OSM   H18F11940   3.194   6.677   9.384 -1.2505  1.6300  0.0895
  114OSM   H18G11941   3.060   6.598   9.479  1.0401 -2.1317 -3.9330
  114OSM   H18H11942   3.237   6.587   9.535  0.2395  1.7312  1.1367
  115OSM      N11943   3.386   1.847   6.227  0.4081 -0.7779  0.3133
  115OSM    C1511944   3.392   1.991   6.244  0.9058  0.0124 -0.1372
  115OSM   H15A11945   3.378   2.022   6.347  0.6344 -0.0917 -0.1424
  115OSM   H15B11946   3.318   2.044   6.186  0.2578  0.6108  1.2018
  115OSM   H15C11947   3.485   2.031   6.207  0.3491  1.6006  0.0917
  115OSM    C1411948   3.261   1.795   6.295 -0.2948 -0.7004  0.7693
  115OSM   H14A11949   3.273   1.802   6.402 -0.3753 -1.3670  0.8263
  115OSM   H14B11950   3.255   1.690   6.268 -1.2298  0.0053 -2.0968
  115OSM   H14C11951   3.169   1.832   6.253  1.0000  2.3894  0.4329
  115OSM    C1311952   3.371   1.817   6.079  0.2235  0.6408 -0.0767
  115OSM   H13A11953   3.383   1.714   6.048 -1.6215  1.0721 -2.5225
  115OSM   H13B11954   3.445   1.872   6.023 -0.1343  0.7932 -0.4044
  115OSM   H13C11955   3.272   1.851   6.050  0.2346  0.6074 -0.1532
  115OSM    C1211956   3.516   1.787   6.274  0.0411  0.1098  0.1602
  115OSM   H12A11957   3.504   1.681   6.263 -3.0078  0.4997 -1.7205
  115OSM   H12B11958   3.533   1.799   6.380  1.5733  1.7775 -0.2236
  115OSM    C1111959   3.643   1.834   6.200  0.1363 -0.3055  0.0757
  115OSM   H11A11960   3.647   1.798   6.096  0.5205  1.9861 -0.7650
  115OSM   H11B11961   3.727   1.773   6.241  1.0365  0.4665 -0.5799
  115OSM      P11962   3.753   2.035   6.314 -0.0078 -0.2618 -0.2448
  115OSM    O1311963   3.889   2.064   6.256 -1.0649  0.1004 -0.2454
  115OSM    O1411964   3.675   2.153   6.361  0.2576 -0.1382 -0.6831
  115OSM    O1111965   3.763   1.932   6.438  0.4212 -0.4358  0.1302
  115OSM    O1211966   3.664   1.972   6.204  0.0705 -0.0869 -0.0615
  115OSM    C1S11967   3.878   1.947   6.518 -0.0523 -0.3495  0.1160
  115OSM    H1S11968   3.919   2.050   6.509  1.7212 -1.2274 -3.8945
  115OSM    H1T11969   3.953   1.874   6.482 -1.0475 -0.3935 -2.0266
  115OSM     NF11970   3.968   1.995   6.750  0.4651  0.0351 -0.4828
  115OSM    HNF11971   4.019   1.930   6.807  0.4980  0.7575  0.3291
  115OSM    C2S11972   3.861   1.933   6.674  0.4189 -0.2612 -0.1071
  115OSM    H2S11973   3.767   1.984   6.703  0.0763 -1.5822  1.2385
  115OSM    C3S11974   3.837   1.779   6.714 -0.0153  0.2614  0.5381
  115OSM    H3S11975   3.929   1.720   6.696 -0.4196  0.6194 -3.8112
  115OSM     O311976   3.739   1.725   6.627 -0.3339  0.3471 -0.6763
  115OSM    HO311977   3.718   1.794   6.563  0.6662  1.5712  0.2678
  115OSM    C4S11978   3.792   1.774   6.854  0.5468  0.4113  0.2765
  115OSM    H4S11979   3.707   1.836   6.885 -0.3672 -1.5716  2.0391
  115OSM    C5S11980   3.857   1.702   6.950  0.0605  0.2759 -0.3489
  115OSM    H5S11981   3.951   1.650   6.925 -0.5528 -0.4799 -1.1386
  115OSM    C6S11982   3.813   1.707   7.094  0.0524  0.8288 -0.4870
  115OSM    H6S11983   3.775   1.607   7.123  0.7183  0.3386 -1.2807
  115OSM    H6T11984   3.733   1.783   7.109  1.0642  1.4366  2.7172
  115OSM    C7S11985   3.921   1.739   7.195 -0.3796 -0.1209  0.1549
  115OSM    H7S11986   3.943   1.848   7.187 -0.4724  0.0002  1.3516
  115OSM    H7T11987   4.012   1.681   7.167 -0.6371 -0.2350 -0.4593
  115OSM    C8S11988   3.887   1.712   7.342 -0.4717 -0.0926 -1.1168
  115OSM    H8S11989   3.868   1.603   7.352  2.1022 -0.4973  0.1427
  115OSM    H8T11990   3.796   1.767   7.374 -0.1371 -1.1123  1.9175
  115OSM    C9S11991   4.003   1.748   7.435 -0.0210  0.0754 -0.3161
  115OSM    H9S11992   4.046   1.846   7.406 -1.0845  0.2794 -1.2789
  115OSM    H9T11993   4.086   1.674   7.424 -1.4782 -1.4279 -1.8746
  115OSM   C10S11994   3.964   1.760   7.586 -0.3947 -0.1858  0.4414
  115OSM   H10S11995   3.870   1.817   7.600 -1.0546 -1.7548  3.1788
  115OSM   H10T11996   4.043   1.824   7.631 -0.7106 -0.5721  1.5765
  115OSM   C11S11997   3.945   1.631   7.663  0.8005  0.1856 -0.2738
  115OSM   H11S11998   4.041   1.577   7.680  0.0680 -2.1097 -2.6695
  115OSM   H11T11999   3.886   1.566   7.595 -1.4716  1.9105 -0.0861
  115OSM   C12S12000   3.859   1.649   7.792 -0.5145  0.3190 -0.8941
  115OSM   H12S12001   3.765   1.699   7.758 -0.7420 -0.0970 -0.8865
  115OSM   H12T12002   3.926   1.717   7.848  0.6669 -0.2785 -1.5544
  115OSM   C13S12003   3.828   1.518   7.870 -0.1463 -0.3750 -0.8564
  115OSM   H13S12004   3.813   1.434   7.798 -0.7049 -0.8782 -0.1609
  115OSM   H13T12005   3.741   1.533   7.937  0.9902  2.2592  0.1408
  115OSM   C14S12006   3.947   1.478   7.954 -0.2392 -0.2500  0.2943
  115OSM   H14S12007   3.977   1.566   8.015  0.5121  0.1696 -0.6548
  115OSM   H14T12008   4.040   1.450   7.901 -0.1608  0.7134 -0.0956
  115OSM   C15S12009   3.903   1.380   8.064  0.1938  0.3597 -0.3311
  115OSM   H15S12010   3.841   1.304   8.012 -0.7212  1.0711 -0.3027
  115OSM   H15T12011   3.836   1.432   8.137 -0.3062  0.5418 -0.9071
  115OSM   C16S12012   4.015   1.316   8.143  0.2498  0.1288  0.0297
  115OSM   H16S12013   4.079   1.398   8.181  2.5432 -0.5386 -2.1287
  115OSM   H16T12014   4.068   1.255   8.066  1.6226 -0.2468  1.2292
  115OSM   C17S12015   3.955   1.223   8.250 -0.4322 -1.2142  0.0571
  115OSM   H17S12016   3.915   1.125   8.215 -0.5682 -1.3834  0.6699
  115OSM   H17T12017   3.865   1.265   8.301 -0.6880  0.0002 -1.3335
  115OSM   C18S12018   4.067   1.184   8.343 -0.9649 -0.6501 -0.1684
  115OSM   H18S12019   4.025   1.139   8.435  0.7406 -2.0726 -0.0192
  115OSM   H18T12020   4.133   1.271   8.365  1.0751 -2.1024 -0.2897
  115OSM   H18U12021   4.125   1.104   8.292 -0.0691 -0.1009 -0.0550
  115OSM    C1F12022   4.000   2.118   6.741 -0.1811  0.3882  0.3909
  115OSM     OF12023   3.912   2.193   6.704 -0.0862  0.1695 -0.1527
  115OSM    C2F12024   4.138   2.160   6.789 -0.2269 -0.2998 -0.5053
  115OSM    H2F12025   4.174   2.231   6.711  1.3754  1.6164  1.8167
  115OSM    H2G12026   4.208   2.074   6.788 -1.2490 -1.1592 -0.4085
  115OSM    C3F12027   4.139   2.249   6.916  0.2874 -0.4294 -0.5690
  115OSM    H3F12028   4.040   2.299   6.915  1.5742  2.4245  0.9106
  115OSM    H3G12029   4.218   2.327   6.909 -0.9554  0.9956  0.6120
  115OSM    C4F12030   4.165   2.183   7.052  0.1257 -0.9348  0.4299
  115OSM    H4F12031   4.271   2.155   7.069  0.0739 -0.8276  0.9803
  115OSM    H4G12032   4.118   2.084   7.040  0.2745 -0.7497 -2.0356
  115OSM    C5F12033   4.110   2.248   7.180 -0.1785 -0.4902 -0.3038
  115OSM    H5F12034   3.999   2.243   7.190 -0.0974  1.8744  4.3742
  115OSM    H5G12035   4.123   2.358   7.167 -0.4535 -0.4318 -0.0841
  115OSM    C6F12036   4.166   2.183   7.306 -0.3534  0.1979  0.2153
  115OSM    H6F12037   4.276   2.193   7.314 -0.2814 -0.4360  0.0728
  115OSM    H6G12038   4.151   2.074   7.292 -1.1763  0.4409 -0.9899
  115OSM    C7F12039   4.085   2.220   7.431 -0.4090  0.0129  1.3566
  115OSM    H7F12040   3.980   2.186   7.418 -0.2720  0.3658 -1.0829
  115OSM    H7G12041   4.085   2.329   7.454  0.8216  0.2541  0.3229
  115OSM    C8F12042   4.133   2.149   7.556  0.0104 -0.2936 -0.6239
  115OSM    H8F12043   4.123   2.040   7.538 -0.4854 -0.3918  0.1870
  115OSM    H8G12044   4.060   2.179   7.634 -0.0860  0.2435 -0.9123
  115OSM    C9F12045   4.271   2.178   7.594  1.0907 -0.4957  0.6965
  115OSM    H9F12046   4.351   2.166   7.519  0.2623 -0.5952 -0.1988
  115OSM   C10F12047   4.307   2.250   7.708 -1.0637 -0.3370 -0.1690
  115OSM   H10F12048   4.411   2.284   7.709 -0.8560 -0.8640  2.0842
  115OSM   C11F12049   4.220   2.292   7.822 -0.0956 -0.1555  0.1002
  115OSM   H11F12050   4.121   2.241   7.823 -0.7326  1.0214  1.8129
  115OSM   H11G12051   4.195   2.400   7.824  0.3047 -0.0522 -0.3213
  115OSM   C12F12052   4.281   2.262   7.965 -0.3714  0.6939 -0.5656
  115OSM   H12F12053   4.216   2.312   8.040  1.6611  1.8062  0.5635
  115OSM   H12G12054   4.374   2.322   7.976  0.7353 -1.1496  0.6272
  115OSM   C13F12055   4.305   2.111   7.996  0.3251 -0.5797  0.2061
  115OSM   H13F12056   4.399   2.075   7.949 -0.6117 -3.0882  0.1208
  115OSM   H13G12057   4.221   2.053   7.952 -2.1310  1.8081  1.4779
  115OSM   C14F12058   4.325   2.104   8.147  0.4717  0.5315  0.3069
  115OSM   H14F12059   4.231   2.150   8.184  0.2565  0.9413 -0.6985
  115OSM   H14G12060   4.411   2.168   8.174  0.3241  0.8127  0.1186
  115OSM   C15F12061   4.345   1.962   8.196 -0.6095 -0.4521 -0.0501
  115OSM   H15F12062   4.429   1.906   8.150 -1.4281 -2.3843  0.7474
  115OSM   H15G12063   4.252   1.905   8.175 -0.8744 -0.7412  1.7510
  115OSM   C16F12064   4.360   1.968   8.352  0.5419  0.7080 -0.3841
  115OSM   H16F12065   4.352   1.861   8.380 -0.1806  0.9246  0.2587
  115OSM   H16G12066   4.278   2.024   8.401 -0.2264 -0.2674 -0.5418
  115OSM   C17F12067   4.498   2.022   8.398  0.4079  0.6065 -0.0303
  115OSM   H17F12068   4.509   2.126   8.361 -2.8738  2.2286  2.8695
  115OSM   H17G12069   4.579   1.959   8.356 -0.4069 -1.2323  1.0468
  115OSM   C18F12070   4.501   2.015   8.556  0.1744 -0.1871  0.5924
  115OSM   H18F12071   4.585   2.080   8.588  1.8320 -1.6316 -0.5793
  115OSM   H18G12072   4.514   1.911   8.591 -2.3505 -1.0029 -0.6800
  115OSM   H18H12073   4.401   2.049   8.589 -0.3179 -0.3810 -0.6472
  116OSM      N12074   4.491   1.607   6.081  0.5254 -0.2093 -0.1799
  116OSM    C1512075   4.625   1.521   6.102 -0.0120 -0.5935  0.3063
  116OSM   H15A12076   4.663   1.533   6.203  3.1076 -2.4524 -0.5210
  116OSM   H15B12077   4.696   1.562   6.031 -0.5434  0.4213  0.3389
  116OSM   H15C12078   4.601   1.419   6.077  2.2559 -1.2912  0.6923
  116OSM    C1412079   4.510   1.742   6.133 -0.2045  0.3707  0.3548
  116OSM   H14A12080   4.614   1.768   6.119 -0.0811 -0.5289 -0.4411
  116OSM   H14B12081   4.471   1.749   6.234 -0.2043 -4.9397  1.0308
  116OSM   H14C12082   4.443   1.810   6.084  0.0273  0.7991  0.6219
  116OSM    C1312083   4.454   1.603   5.937 -0.1190 -0.1200 -0.0462
  116OSM   H13A12084   4.372   1.667   5.908  0.2139 -0.2227 -1.2496
  116OSM   H13B12085   4.415   1.506   5.911  0.2594 -1.0158  2.4109
  116OSM   H13C12086   4.539   1.623   5.874 -0.7123 -0.4033 -0.9619
  116OSM    C1212087   4.370   1.547   6.153  0.6833  0.2669  0.2387
  116OSM   H12A12088   4.366   1.444   6.118 -0.4182  1.2119 -2.7540
  116OSM   H12B12089   4.284   1.602   6.119  1.0575  1.4663  1.1569
  116OSM    C1112090   4.369   1.552   6.302  0.4529  0.3487 -0.2246
  116OSM   H11A12091   4.465   1.511   6.341 -0.8701 -0.4689  2.4477
  116OSM   H11B12092   4.293   1.484   6.345 -0.6484  1.2634 -0.6635
  116OSM      P12093   4.211   1.736   6.409 -0.1175  0.0462 -0.1714
  116OSM    O1312094   4.238   1.863   6.480  0.2540  0.4372 -0.3794
  116OSM    O1412095   4.106   1.738   6.302 -0.1804  0.2248 -0.3287
  116OSM    O1112096   4.172   1.624   6.512  0.1936  0.2100  0.2548
  116OSM    O1212097   4.345   1.685   6.349 -0.0127  0.3664  0.4241
  116OSM    C1S12098   4.265   1.588   6.614  0.2446 -0.5075  0.2407
  116OSM    H1S12099   4.245   1.661   6.696 -0.3207  0.7659 -0.9960
  116OSM    H1T12100   4.373   1.587   6.590  0.1139 -1.5227 -0.3770
  116OSM     NF12101   4.325   1.441   6.799  0.8783  0.3130 -0.1529
  116OSM    HNF12102   4.403   1.381   6.784  1.3374  1.1148 -1.0619
  116OSM    C2S12103   4.233   1.455   6.691  0.1619  0.0653  0.8821
  116OSM    H2S12104   4.124   1.447   6.713  0.2165 -1.6781  0.6374
  116OSM    C3S12105   4.240   1.340   6.592 -0.2068 -0.5246 -0.2159
  116OSM    H3S12106   4.342   1.348   6.550  0.0616  0.0104  0.5228
  116OSM     O312107   4.146   1.356   6.482 -0.1925  0.1705 -0.4115
  116OSM    HO312108   4.145   1.452   6.476  2.9395  0.4396  1.3031
  116OSM    C4S12109   4.214   1.219   6.668  0.7383  0.0174  0.8097
  116OSM    H4S12110   4.110   1.206   6.701  0.4014  0.4498 -0.0507
  116OSM    C5S12111   4.303   1.124   6.689 -0.1188  0.0313  0.1507
  116OSM    H5S12112   4.403   1.130   6.645 -1.1609 -1.0766 -2.6759
  116OSM    C6S12113   4.273   0.998   6.755  0.8390 -0.0596 -0.4066
  116OSM    H6S12114   4.252   0.931   6.668  1.0534  1.0346 -1.3306
  116OSM    H6T12115   4.182   1.016   6.816  0.5803  0.7203 -0.9942
  116OSM    C7S12116   4.381   0.950   6.859 -0.3686 -0.3764  0.4388
  116OSM    H7S12117   4.475   0.922   6.807  0.4757  0.4375  1.5103
  116OSM    H7T12118   4.347   0.852   6.899 -3.2931  0.5606  0.4958
  116OSM    C8S12119   4.402   1.053   6.968 -0.5106  0.5103 -0.7500
  116OSM    H8S12120   4.309   1.105   7.000  0.7633  1.5106  1.5913
  116OSM    H8T12121   4.471   1.131   6.931 -1.5183  2.1487  0.6659
  116OSM    C9S12122   4.453   1.005   7.100  0.5809  0.2189  0.3417
  116OSM    H9S12123   4.546   0.947   7.080  0.7972  0.4617  0.6333
  116OSM    H9T12124   4.379   0.939   7.150  0.7473  0.3206  0.7215
  116OSM   C10S12125   4.493   1.129   7.177 -0.8128 -0.4199 -0.1371
  116OSM   H10S12126   4.437   1.223   7.157 -0.6434  0.5354  3.1742
  116OSM   H10T12127   4.597   1.153   7.146 -0.0773 -1.5321  1.3333
  116OSM   C11S12128   4.489   1.111   7.327  0.0511 -0.1225 -0.7013
  116OSM   H11S12129   4.539   1.020   7.367 -1.0037  0.3328  1.8327
  116OSM   H11T12130   4.382   1.097   7.352  0.3812  0.7106  1.3627
  116OSM   C12S12131   4.534   1.229   7.410 -0.7224  0.0002  0.7207
  116OSM   H12S12132   4.506   1.324   7.360  1.2714  1.0364  1.4415
  116OSM   H12T12133   4.643   1.212   7.396 -1.4164 -4.1334 -1.0967
  116OSM   C13S12134   4.495   1.230   7.557  0.4907  0.0976 -0.4297
  116OSM   H13S12135   4.388   1.197   7.564  0.3941  0.7312  2.1730
  116OSM   H13T12136   4.498   1.326   7.612  0.0569 -0.8601  1.3514
  116OSM   C14S12137   4.601   1.153   7.643 -0.4828 -0.2923 -0.8806
  116OSM   H14S12138   4.696   1.209   7.629 -0.1085 -1.2044 -2.1225
  116OSM   H14T12139   4.626   1.058   7.591  2.0659  0.4809 -1.2075
  116OSM   C15S12140   4.576   1.140   7.792 -0.2072 -0.8373  0.6532
  116OSM   H15S12141   4.487   1.075   7.794 -1.3047  0.5916 -0.0311
  116OSM   H15T12142   4.542   1.240   7.828  0.8677 -0.0600 -0.3951
  116OSM   C16S12143   4.678   1.078   7.878 -0.0614 -0.2340  0.8961
  116OSM   H16S12144   4.778   1.124   7.858 -0.9998  0.9240 -1.5391
  116OSM   H16T12145   4.691   0.973   7.843 -0.0176 -0.0109  0.2341
  116OSM   C17S12146   4.652   1.084   8.029  0.6484 -0.0621 -0.7481
  116OSM   H17S12147   4.550   1.041   8.041 -1.4510  3.9395 -2.2507
  116OSM   H17T12148   4.637   1.191   8.054  1.7159 -0.0869  0.0760
  116OSM   C18S12149   4.760   1.019   8.120 -0.7549 -0.1136 -0.3184
  116OSM   H18S12150   4.808   0.931   8.074 -0.5930 -0.2905  0.1837
  116OSM   H18T12151   4.713   0.987   8.215  0.7859  2.3470  1.3835
  116OSM   H18U12152   4.849   1.085   8.123 -0.9794  0.3995 -2.5437
  116OSM    C1F12153   4.310   1.518   6.905  0.3318  0.0413  0.6322
  116OSM     OF12154   4.201   1.573   6.915 -0.3320  0.2515 -0.4667
  116OSM    C2F12155   4.418   1.517   7.014 -0.6284 -0.3355 -0.6438
  116OSM    H2F12156   4.510   1.568   6.978 -0.1434 -1.3422 -0.8629
  116OSM    H2G12157   4.460   1.416   7.036  2.1564  0.1224 -3.1914
  116OSM    C3F12158   4.365   1.584   7.147  0.2032  0.7025  0.0035
  116OSM    H3F12159   4.276   1.535   7.191 -0.5790 -0.4121 -2.6159
  116OSM    H3G12160   4.337   1.690   7.129  1.4668  1.3029  1.4218
  116OSM    C4F12161   4.480   1.601   7.249  0.7578 -0.4789 -0.6164
  116OSM    H4F12162   4.554   1.661   7.192 -1.6607  2.3981 -0.9850
  116OSM    H4G12163   4.533   1.505   7.271  0.4368 -0.4571  0.2927
  116OSM    C5F12164   4.429   1.661   7.375 -0.0703  0.2861  0.3933
  116OSM    H5F12165   4.336   1.604   7.394  0.9092 -0.5949  2.9681
  116OSM    H5G12166   4.402   1.768   7.361 -0.9750 -0.1796 -1.7030
  116OSM    C6F12167   4.522   1.634   7.496  0.2842  0.1843 -0.5438
  116OSM    H6F12168   4.616   1.682   7.461  0.1582 -0.8815 -2.4805
  116OSM    H6G12169   4.532   1.524   7.512 -2.7325  0.0481  1.2349
  116OSM    C7F12170   4.473   1.697   7.627  0.2938  0.1609  0.0504
  116OSM    H7F12171   4.467   1.806   7.607 -0.9848  0.3013  1.1274
  116OSM    H7G12172   4.548   1.661   7.701 -1.1568 -3.3829 -0.0342
  116OSM    C8F12173   4.328   1.647   7.682 -0.6024 -0.1135  0.5593
  116OSM    H8F12174   4.339   1.541   7.714 -3.8785 -0.1086  2.0047
  116OSM    H8G12175   4.260   1.661   7.595  0.5755  0.5197 -0.2960
  116OSM    C9F12176   4.282   1.716   7.801  0.4635 -0.3969  1.0106
  116OSM    H9F12177   4.213   1.801   7.783  0.1125 -0.6331  1.2371
  116OSM   C10F12178   4.330   1.690   7.925  0.0295  0.0172 -0.6933
  116OSM   H10F12179   4.274   1.732   8.010 -1.3494 -0.9341 -1.1063
  116OSM   C11F12180   4.432   1.580   7.959 -0.6979 -0.0499 -0.9116
  116OSM   H11F12181   4.503   1.621   8.033 -0.4593 -0.1204 -1.1024
  116OSM   H11G12182   4.485   1.540   7.870  2.8680  0.9370  0.5962
  116OSM   C12F12183   4.352   1.473   8.040  0.7714 -1.3274  0.4414
  116OSM   H12F12184   4.296   1.420   7.960  0.8106 -1.2543  0.3661
  116OSM   H12G12185   4.286   1.511   8.121  0.4617 -0.9375  0.0031
  116OSM   C13F12186   4.453   1.372   8.096 -0.3035 -0.1794 -0.1000
  116OSM   H13F12187   4.546   1.384   8.036 -1.3549  2.5061 -1.3379
  116OSM   H13G12188   4.413   1.270   8.076 -1.5815  0.4133 -0.6871
  116OSM   C14F12189   4.480   1.381   8.247  0.1710  0.1097 -0.5826
  116OSM   H14F12190   4.557   1.305   8.273 -0.9494 -1.3885 -1.4864
  116OSM   H14G12191   4.387   1.359   8.302  1.1363 -0.4034  0.8854
  116OSM   C15F12192   4.539   1.512   8.313 -0.2537 -0.1553 -0.0902
  116OSM   H15F12193   4.536   1.506   8.424  3.7132  1.2770  0.2696
  116OSM   H15G12194   4.473   1.597   8.284 -1.3392 -0.8732  0.2232
  116OSM   C16F12195   4.692   1.538   8.284  0.1715 -0.0800 -0.2351
  116OSM   H16F12196   4.699   1.593   8.188 -0.3627 -1.1508 -0.9106
  116OSM   H16G12197   4.741   1.438   8.283  0.3213 -0.0050 -0.9176
  116OSM   C17F12198   4.742   1.624   8.398  0.1038 -0.3290 -0.7340
  116OSM   H17F12199   4.757   1.555   8.484  0.3206  1.4302  0.6945
  116OSM   H17G12200   4.664   1.698   8.426  0.6733  0.0837 -0.2086
  116OSM   C18F12201   4.875   1.693   8.364  0.7590 -0.5493 -0.8843
  116OSM   H18F12202   4.912   1.743   8.456 -1.8241 -0.3222  0.1445
  116OSM   H18G12203   4.840   1.775   8.297 -1.1569  0.1603  0.8643
  116OSM   H18H12204   4.943   1.616   8.322  0.4358 -3.1910  2.9302
  117OSM      N12205   2.193   0.284   6.486 -0.6974 -0.3769  0.8867
  117OSM    C1512206   2.131   0.422   6.492 -0.1589 -0.2009 -0.4975
  117OSM   H15A12207   2.201   0.482   6.549  2.5486 -3.3334 -0.2202
  117OSM   H15B12208   2.039   0.414   6.548  1.1016 -0.9466  1.5712
  117OSM   H15C12209   2.113   0.462   6.393 -2.8061 -0.9257 -0.3861
  117OSM    C1412210   2.199   0.214   6.619  0.1787  0.3491  0.8277
  117OSM   H14A12211   2.104   0.214   6.671  0.4703  0.5018  1.3796
  117OSM   H14B12212   2.276   0.249   6.687  0.3978 -0.9879  1.2909
  117OSM   H14C12213   2.208   0.110   6.593 -1.6384  0.1822  0.7103
  117OSM    C1312214   2.126   0.207   6.379  0.0525  0.7124 -0.5585
  117OSM   H13A12215   2.019   0.216   6.393  0.3026  0.7854  1.5531
  117OSM   H13B12216   2.164   0.106   6.382  1.9809  1.3958 -0.9860
  117OSM   H13C12217   2.157   0.247   6.283  1.6329  1.3640  0.1896
  117OSM    C1212218   2.337   0.307   6.440  0.0643 -0.0621  0.0379
  117OSM   H12A12219   2.347   0.362   6.348 -0.5476  0.2262  0.1376
  117OSM   H12B12220   2.390   0.214   6.424  0.9373  0.3139  0.6870
  117OSM    C1112221   2.431   0.392   6.530  0.4019  0.2024 -0.1855
  117OSM   H11A12222   2.541   0.380   6.520  0.6231  1.2716  0.8313
  117OSM   H11B12223   2.426   0.360   6.637  0.9580 -0.5160 -0.3603
  117OSM      P12224   2.391   0.636   6.444  0.0248 -0.0983  0.4419
  117OSM    O1312225   2.393   0.571   6.311 -0.4312 -0.0349  0.2232
  117OSM    O1412226   2.282   0.736   6.466 -0.4040  0.9007 -0.2681
  117OSM    O1112227   2.523   0.712   6.475  0.9099  0.3712 -0.0171
  117OSM    O1212228   2.388   0.526   6.554 -0.0705 -0.7026  0.6383
  117OSM    C1S12229   2.543   0.807   6.585 -0.1543  0.1527 -0.2793
  117OSM    H1S12230   2.461   0.798   6.660 -0.6758  0.4792 -0.8032
  117OSM    H1T12231   2.558   0.910   6.545  0.0299  0.3831  0.3774
  117OSM     NF12232   2.687   0.878   6.782  0.4977  0.6360 -0.2082
  117OSM    HNF12233   2.745   0.959   6.769  2.3095 -0.6075 -0.2950
  117OSM    C2S12234   2.668   0.776   6.675 -0.2392  0.1327 -0.0938
  117OSM    H2S12235   2.651   0.676   6.721 -1.5416  0.0183 -0.7649
  117OSM    C3S12236   2.794   0.774   6.595  0.6523 -0.1352 -0.3466
  117OSM    H3S12237   2.816   0.874   6.551  0.9275 -0.8517 -1.8944
  117OSM     O312238   2.777   0.706   6.478 -0.4851 -0.1709 -0.1871
  117OSM    HO312239   2.681   0.697   6.479 -0.5096 -0.2877  2.1832
  117OSM    C4S12240   2.910   0.714   6.677  1.0283 -0.6755 -0.0444
  117OSM    H4S12241   2.888   0.610   6.705 -0.1021 -0.2234  0.8269
  117OSM    C5S12242   3.015   0.779   6.725  0.4539 -0.1271 -0.0121
  117OSM    H5S12243   3.030   0.887   6.705 -1.3227  0.4519  1.5028
  117OSM    C6S12244   3.116   0.715   6.807 -0.1336 -0.2278  0.2520
  117OSM    H6S12245   3.173   0.795   6.860 -0.7547 -1.4527  2.9756
  117OSM    H6T12246   3.197   0.676   6.742  0.1260  0.8474 -0.1015
  117OSM    C7S12247   3.078   0.605   6.912  0.0288  0.1544  0.3704
  117OSM    H7S12248   3.163   0.580   6.980  2.7253  0.7117 -2.5825
  117OSM    H7T12249   3.055   0.510   6.859 -0.1505 -0.2490  1.1501
  117OSM    C8S12250   2.951   0.634   6.997 -0.4156 -0.1443 -1.2794
  117OSM    H8S12251   2.855   0.638   6.941 -0.4466  0.5249 -1.1924
  117OSM    H8T12252   2.966   0.731   7.049  1.4304  0.4971 -2.9135
  117OSM    C9S12253   2.909   0.536   7.109 -0.4867  0.0983  0.7934
  117OSM    H9S12254   3.004   0.499   7.153 -0.0262 -0.1718 -0.3989
  117OSM    H9T12255   2.851   0.445   7.085 -0.2780 -0.0059  0.6848
  117OSM   C10S12256   2.837   0.603   7.221 -0.4457  0.0042  0.2254
  117OSM   H10S12257   2.738   0.645   7.193 -0.8211  0.1625  1.7062
  117OSM   H10T12258   2.905   0.674   7.273  1.5100 -0.4722 -1.5308
  117OSM   C11S12259   2.804   0.510   7.335 -0.2955  0.1435 -0.0884
  117OSM   H11S12260   2.889   0.441   7.356 -0.1364 -0.0979 -1.4225
  117OSM   H11T12261   2.730   0.432   7.306 -0.5979 -0.2780  1.6831
  117OSM   C12S12262   2.758   0.589   7.456  0.5737 -0.0710  1.0877
  117OSM   H12S12263   2.677   0.657   7.422  1.9205  0.7991 -0.5576
  117OSM   H12T12264   2.842   0.654   7.488 -0.4006  2.1083 -0.4611
  117OSM   C13S12265   2.714   0.507   7.577  0.3478  0.7100 -0.5525
  117OSM   H13S12266   2.802   0.452   7.617 -1.3010 -0.4974  1.6687
  117OSM   H13T12267   2.635   0.431   7.556  0.5080  0.2995  0.2793
  117OSM   C14S12268   2.671   0.601   7.686 -0.2041 -0.7631  0.8092
  117OSM   H14S12269   2.577   0.656   7.667 -0.3032 -0.8437  1.0588
  117OSM   H14T12270   2.744   0.683   7.699 -1.1488  0.1018  0.7752
  117OSM   C15S12271   2.647   0.529   7.822 -0.2066 -0.6136  0.4475
  117OSM   H15S12272   2.742   0.481   7.857  0.3489  1.4824  1.9747
  117OSM   H15T12273   2.577   0.450   7.786  0.0934 -0.1346 -1.2975
  117OSM   C16S12274   2.589   0.626   7.929 -0.6902  0.3043 -0.8324
  117OSM   H16S12275   2.496   0.667   7.886 -1.5915 -1.7082 -0.9039
  117OSM   H16T12276   2.652   0.717   7.934  0.9805 -0.7817 -1.0673
  117OSM   C17S12277   2.555   0.558   8.062 -0.1286  0.3400 -0.0120
  117OSM   H17S12278   2.648   0.512   8.105 -0.8183 -0.4182  0.7145
  117OSM   H17T12279   2.478   0.479   8.047 -0.3951  0.7085 -0.6217
  117OSM   C18S12280   2.491   0.660   8.157 -0.1049 -0.2089 -0.3873
  117OSM   H18S12281   2.384   0.675   8.131  0.2786  0.5764 -1.5981
  117OSM   H18T12282   2.556   0.750   8.159 -0.3687  0.0199 -1.3066
  117OSM   H18U12283   2.480   0.615   8.258 -2.4442 -1.3677 -1.0809
  117OSM    C1F12284   2.605   0.871   6.886  0.1716  0.5616 -1.0326
  117OSM     OF12285   2.533   0.774   6.900 -0.2087  0.2850 -0.4438
  117OSM    C2F12286   2.613   0.982   6.984 -0.6341 -0.2880  0.1390
  117OSM    H2F12287   2.573   1.078   6.945 -1.7311 -1.1427 -0.8998
  117OSM    H2G12288   2.717   1.007   7.015 -0.3291 -0.5062 -0.6924
  117OSM    C3F12289   2.541   0.953   7.120 -0.2748  0.2099  0.8915
  117OSM    H3F12290   2.570   0.854   7.162  0.5477  0.0870  0.0588
  117OSM    H3G12291   2.436   0.946   7.083  1.0022 -3.0639 -2.8004
  117OSM    C4F12292   2.564   1.049   7.238  0.0461  0.2894  0.1341
  117OSM    H4F12293   2.506   1.140   7.211 -0.5283  0.0459  0.5237
  117OSM    H4G12294   2.671   1.068   7.260 -0.0392 -1.0835  1.9638
  117OSM    C5F12295   2.509   0.989   7.371 -0.6328 -0.1318 -0.2176
  117OSM    H5F12296   2.569   0.904   7.411  1.4234  1.1253 -0.5201
  117OSM    H5G12297   2.414   0.942   7.336 -1.1077  1.9594 -1.9229
  117OSM    C6F12298   2.488   1.090   7.483 -0.1125  0.7805 -0.3013
  117OSM    H6F12299   2.419   1.169   7.446 -3.0999 -0.8633  1.3926
  117OSM    H6G12300   2.579   1.147   7.510 -0.9772  1.3426  1.5821
  117OSM    C7F12301   2.443   1.030   7.616  0.4373  0.2590 -0.4040
  117OSM    H7F12302   2.520   0.959   7.654 -1.4154 -0.4283  2.4788
  117OSM    H7G12303   2.351   0.971   7.595 -0.3364  0.8907  1.0738
  117OSM    C8F12304   2.413   1.142   7.721  0.9466 -0.0955 -1.0745
  117OSM    H8F12305   2.341   1.218   7.682  1.3894  0.0053 -1.7146
  117OSM    H8G12306   2.506   1.200   7.739  1.3702 -0.9613 -0.3986
  117OSM    C9F12307   2.364   1.077   7.851  0.2194 -0.4245  0.5962
  117OSM    H9F12308   2.258   1.051   7.857  0.4188 -1.3745  0.1599
  117OSM   C10F12309   2.441   1.039   7.951  0.8226  1.1485  0.0728
  117OSM   H10F12310   2.396   1.000   8.044 -0.5039  0.5297 -0.7933
  117OSM   C11F12311   2.592   1.054   7.955 -0.1835 -0.1995 -0.4753
  117OSM   H11F12312   2.636   1.031   7.856 -0.6465  1.0494 -0.9976
  117OSM   H11G12313   2.622   0.980   8.032 -0.9928 -0.3261 -0.2755
  117OSM   C12F12314   2.645   1.192   8.001 -0.2593  0.5363 -0.0130
  117OSM   H12F12315   2.576   1.267   7.956 -1.0208  1.1248  2.0228
  117OSM   H12G12316   2.743   1.210   7.952 -1.2303 -0.9061 -2.6442
  117OSM   C13F12317   2.651   1.216   8.147 -0.2445 -0.1148 -0.5376
  117OSM   H13F12318   2.563   1.179   8.203 -0.0706  1.3059  0.7224
  117OSM   H13G12319   2.654   1.325   8.168 -1.2113 -0.0884 -0.5291
  117OSM   C14F12320   2.777   1.159   8.211 -0.4248 -0.7725  0.2684
  117OSM   H14F12321   2.866   1.194   8.155  0.1772  1.5513  2.5290
  117OSM   H14G12322   2.766   1.050   8.193 -0.0284 -1.0619  1.6399
  117OSM   C15F12323   2.783   1.201   8.355 -0.6022 -0.1951  0.2213
  117OSM   H15F12324   2.702   1.154   8.415 -1.4181  0.5752 -0.2675
  117OSM   H15G12325   2.775   1.311   8.360  3.6098  0.3763 -1.6831
  117OSM   C16F12326   2.920   1.177   8.428 -0.6450 -0.6781  0.2003
  117OSM   H16F12327   3.005   1.167   8.356 -0.8719 -0.0985 -0.1587
  117OSM   H16G12328   2.916   1.091   8.497 -1.4238 -1.6406 -1.0014
  117OSM   C17F12329   2.954   1.298   8.521  0.0809  0.0382 -0.6814
  117OSM   H17F12330   3.060   1.282   8.552 -0.2572  0.5868  0.8381
  117OSM   H17G12331   2.943   1.393   8.464  0.4327  0.7255  0.3699
  117OSM   C18F12332   2.868   1.300   8.644  0.4349  0.1906 -0.2354
  117OSM   H18F12333   2.844   1.196   8.675 -0.9135  0.4104 -0.5147
  117OSM   H18G12334   2.775   1.348   8.609 -1.8288 -4.0613 -0.7216
  117OSM   H18H12335   2.916   1.362   8.723  2.1749 -0.4422 -0.7391
  118OSM      N12336   3.407   4.524   5.960  0.1291 -0.0273  0.4754
  118OSM    C1512337   3.275   4.598   5.961 -0.6125 -0.4596  0.0868
  118OSM   H15A12338   3.211   4.551   6.035 -0.9786 -0.1763 -0.0469
  118OSM   H15B12339   3.223   4.589   5.867 -1.9917 -1.5657  0.9095
  118OSM   H15C12340   3.286   4.704   5.981 -0.8335 -0.7769  2.1211
  118OSM    C1412341   3.390   4.383   5.913 -0.4406  0.0894 -0.8895
  118OSM   H14A12342   3.483   4.328   5.916 -0.7795 -0.5118 -1.2083
  118OSM   H14B12343   3.356   4.381   5.811  3.5976  1.2707 -2.4312
  118OSM   H14C12344   3.323   4.327   5.977  1.0956 -0.8840 -0.0819
  118OSM    C1312345   3.491   4.597   5.863  0.1993 -0.1643 -0.5964
  118OSM   H13A12346   3.501   4.701   5.891 -0.7563  0.0808 -1.1218
  118OSM   H13B12347   3.454   4.617   5.763  1.6116  1.9708 -0.7521
  118OSM   H13C12348   3.590   4.555   5.860 -0.1181 -0.8835 -1.5812
  118OSM    C1212349   3.477   4.530   6.094  0.1915  0.5172  0.2492
  118OSM   H12A12350   3.533   4.622   6.105 -0.8681  1.1566  0.3691
  118OSM   H12B12351   3.562   4.464   6.102  0.2453  0.4587 -0.6794
  118OSM    C1112352   3.398   4.497   6.222  0.3899  0.9739 -0.2749
  118OSM   H11A12353   3.332   4.584   6.245  0.8042  1.1730  0.1666
  118OSM   H11B12354   3.463   4.493   6.312 -1.3668 -0.8896  1.0164
  118OSM      P12355   3.189   4.355   6.261  0.4564 -0.1778  0.1555
  118OSM    O1312356   3.110   4.441   6.170  0.7768 -0.4955  0.6327
  118OSM    O1412357   3.150   4.207   6.265  0.3500  0.0758 -0.1421
  118OSM    O1112358   3.188   4.414   6.403 -0.1697 -0.2413  0.5311
  118OSM    O1212359   3.335   4.365   6.215 -0.1086 -0.4143  0.0146
  118OSM    C1S12360   3.279   4.398   6.509  0.1311 -0.5320 -0.3327
  118OSM    H1S12361   3.339   4.490   6.528  1.2906 -1.3694  0.1493
  118OSM    H1T12362   3.361   4.326   6.487  0.5674 -0.4016  0.8335
  118OSM     NF12363   3.320   4.360   6.745 -0.0779  0.0635 -0.0530
  118OSM    HNF12364   3.347   4.267   6.770  3.3451  0.3118 -2.1590
  118OSM    C2S12365   3.207   4.370   6.645 -1.1241  0.5702  0.0729
  118OSM    H2S12366   3.150   4.459   6.681 -2.0514 -0.8836  2.4125
  118OSM    C3S12367   3.126   4.246   6.652 -0.6514  0.1698  0.1460
  118OSM    H3S12368   3.197   4.164   6.674  0.1261  1.1922  1.6557
  118OSM     O312369   3.047   4.228   6.532  0.1473 -0.4804  0.1047
  118OSM    HO312370   3.080   4.289   6.465  2.3983 -2.2012 -0.4912
  118OSM    C4S12371   3.037   4.239   6.779  0.1130 -0.3041 -0.3711
  118OSM    H4S12372   3.084   4.195   6.868  1.9406 -0.1760 -1.2386
  118OSM    C5S12373   2.915   4.306   6.792  0.3955  0.6918 -0.1596
  118OSM    H5S12374   2.867   4.352   6.704 -1.0950  0.5251  0.5231
  118OSM    C6S12375   2.831   4.296   6.920 -0.1816 -0.0462 -0.1712
  118OSM    H6S12376   2.751   4.221   6.899  0.2356 -0.4401 -0.3753
  118OSM    H6T12377   2.777   4.393   6.927  2.0672  1.3140 -0.5198
  118OSM    C7S12378   2.902   4.265   7.053 -0.5041 -0.3626 -0.1645
  118OSM    H7S12379   2.974   4.346   7.076  1.8555 -2.0207 -1.2396
  118OSM    H7T12380   2.947   4.164   7.061 -1.6994 -1.0428 -1.4189
  118OSM    C8S12381   2.794   4.262   7.161 -0.1860 -0.0886 -0.6821
  118OSM    H8S12382   2.715   4.185   7.142 -1.0333  0.1937  1.4722
  118OSM    H8T12383   2.742   4.360   7.153  0.6394  0.2169 -3.3873
  118OSM    C9S12384   2.839   4.230   7.306  0.2780  0.1915  0.4759
  118OSM    H9S12385   2.907   4.306   7.351  3.2795 -2.1826  0.2853
  118OSM    H9T12386   2.895   4.136   7.292 -0.8115 -0.4276  0.1582
  118OSM   C10S12387   2.717   4.192   7.385 -0.6287  0.7211 -0.6701
  118OSM   H10S12388   2.659   4.112   7.335 -1.5131  0.4028  0.8116
  118OSM   H10T12389   2.659   4.286   7.392 -2.0093 -0.0618 -1.1606
  118OSM   C11S12390   2.749   4.150   7.531 -0.6580  0.1408 -0.0167
  118OSM   H11S12391   2.809   4.057   7.520 -1.5323 -0.5679  0.9857
  118OSM   H11T12392   2.669   4.110   7.597  0.0939 -0.6614  0.4407
  118OSM   C12S12393   2.820   4.259   7.609 -0.9194 -0.4294  0.2502
  118OSM   H12S12394   2.769   4.357   7.593 -1.6167 -0.9956 -1.0858
  118OSM   H12T12395   2.925   4.270   7.574 -1.4376  0.4128 -1.1188
  118OSM   C13S12396   2.827   4.242   7.763 -0.4683 -0.3131  0.1739
  118OSM   H13S12397   2.726   4.267   7.803 -2.1438 -1.4702 -2.9891
  118OSM   H13T12398   2.898   4.320   7.799  1.5594 -2.0755  0.1497
  118OSM   C14S12399   2.869   4.101   7.812 -0.0470  0.0605 -0.1274
  118OSM   H14S12400   2.959   4.064   7.757 -0.1657  1.3993 -1.2853
  118OSM   H14T12401   2.794   4.028   7.775 -1.3325  1.8323 -1.1313
  118OSM   C15S12402   2.875   4.091   7.965 -0.6019 -0.2996 -0.3025
  118OSM   H15S12403   2.772   4.093   8.007  0.3964  0.0216  2.3241
  118OSM   H15T12404   2.925   4.187   7.992 -0.0690 -0.4687 -0.6807
  118OSM   C16S12405   2.944   3.976   8.026 -0.9195  0.4900 -0.1060
  118OSM   H16S12406   3.052   3.979   8.003 -0.3680 -3.1413  1.3916
  118OSM   H16T12407   2.905   3.878   7.992 -2.6525  1.1774 -0.1961
  118OSM   C17S12408   2.925   3.960   8.183  0.4665 -0.2781 -0.1287
  118OSM   H17S12409   2.819   3.970   8.216 -0.0536 -2.1971 -1.0011
  118OSM   H17T12410   2.965   4.056   8.221 -1.0937  1.6331 -2.9147
  118OSM   C18S12411   2.992   3.844   8.248 -0.4804 -0.5050  0.3666
  118OSM   H18S12412   2.947   3.749   8.212 -0.3113 -1.0164  1.4573
  118OSM   H18T12413   2.984   3.847   8.359  1.7839  3.7159  0.6303
  118OSM   H18U12414   3.102   3.852   8.235 -0.2226 -2.9718  0.5018
  118OSM    C1F12415   3.402   4.467   6.779 -0.0203 -0.0313 -0.9220
  118OSM     OF12416   3.382   4.587   6.738  0.5860 -0.1715  0.7318
  118OSM    C2F12417   3.504   4.445   6.879  0.9984 -0.0140 -0.5645
  118OSM    H2F12418   3.487   4.359   6.948  0.6478  0.9318  0.5426
  118OSM    H2G12419   3.520   4.536   6.939  2.6124  0.0776 -1.0864
  118OSM    C3F12420   3.646   4.428   6.822 -0.5530 -0.3648 -0.0288
  118OSM    H3F12421   3.664   4.519   6.760  0.6582 -1.2435 -1.0127
  118OSM    H3G12422   3.640   4.338   6.757 -0.9854 -0.1579 -0.2855
  118OSM    C4F12423   3.763   4.422   6.917 -0.0296  0.5209  0.0270
  118OSM    H4F12424   3.774   4.515   6.976  0.7814 -0.2064  1.0555
  118OSM    H4G12425   3.855   4.406   6.858 -0.0405  1.7809 -0.3408
  118OSM    C5F12426   3.751   4.305   7.010 -0.2528  0.7621 -0.9403
  118OSM    H5F12427   3.725   4.218   6.947 -1.8896  0.1483  0.4915
  118OSM    H5G12428   3.667   4.321   7.082 -0.4062  0.1213 -0.9721
  118OSM    C6F12429   3.889   4.268   7.085  0.6739 -0.7649  0.4446
  118OSM    H6F12430   3.926   4.358   7.139  1.2985 -0.8182  0.1144
  118OSM    H6G12431   3.968   4.253   7.008  0.2762  0.3479 -0.2109
  118OSM    C7F12432   3.885   4.140   7.178  0.0699 -0.2098 -0.4795
  118OSM    H7F12433   3.987   4.097   7.170 -0.4906 -1.5686 -0.5926
  118OSM    H7G12434   3.837   4.051   7.131  0.6704 -0.9421  0.2731
  118OSM    C8F12435   3.839   4.170   7.312  0.6735  0.5212 -0.3442
  118OSM    H8F12436   3.904   4.248   7.359  1.7517 -0.2422 -0.5230
  118OSM    H8G12437   3.859   4.074   7.365  2.8585  0.3487 -1.3497
  118OSM    C9F12438   3.693   4.195   7.333  0.5389  0.2016 -0.3647
  118OSM    H9F12439   3.625   4.108   7.324  0.7252  0.1545 -1.4039
  118OSM   C10F12440   3.638   4.317   7.371 -0.8114 -0.1721  0.3326
  118OSM   H10F12441   3.529   4.333   7.368 -0.9095 -0.8353 -1.4675
  118OSM   C11F12442   3.720   4.446   7.395  0.0698 -0.2553 -0.1946
  118OSM   H11F12443   3.718   4.504   7.301  0.3883 -0.9355 -0.6269
  118OSM   H11G12444   3.829   4.428   7.412 -0.4099 -2.9361  0.5882
  118OSM   C12F12445   3.670   4.544   7.504  0.3307  0.2366 -0.3953
  118OSM   H12F12446   3.562   4.570   7.499  0.5896  1.7613  1.2059
  118OSM   H12G12447   3.718   4.640   7.475  2.9457 -1.0346 -0.6073
  118OSM   C13F12448   3.686   4.494   7.644 -0.5313 -0.0590 -0.5449
  118OSM   H13F12449   3.794   4.505   7.669 -0.6566  0.5033 -0.2121
  118OSM   H13G12450   3.651   4.389   7.637 -2.7083  0.7188 -2.3810
  118OSM   C14F12451   3.617   4.572   7.759 -0.3486  0.2398  0.2989
  118OSM   H14F12452   3.648   4.529   7.856 -1.4237 -0.9315  0.1422
  118OSM   H14G12453   3.507   4.557   7.767 -0.5941  2.2647  1.2699
  118OSM   C15F12454   3.655   4.726   7.764 -0.2563 -0.3264 -0.2401
  118OSM   H15F12455   3.598   4.772   7.681  0.2541  0.6172 -0.0814
  118OSM   H15G12456   3.764   4.734   7.741 -0.5143  1.0260 -1.1271
  118OSM   C16F12457   3.622   4.782   7.902  0.4396 -0.7408 -0.1292
  118OSM   H16F12458   3.682   4.742   7.986  1.0199 -0.6237 -0.4874
  118OSM   H16G12459   3.517   4.756   7.927  0.9261 -2.1463  0.5934
  118OSM   C17F12460   3.640   4.937   7.883  0.2586  0.0067 -0.4157
  118OSM   H17F12461   3.596   4.957   7.783 -1.2228 -3.2877 -0.5627
  118OSM   H17G12462   3.750   4.955   7.879  0.7117 -1.9761  1.2727
  118OSM   C18F12463   3.577   5.015   7.995  0.0357 -0.7372  0.1444
  118OSM   H18F12464   3.467   5.012   7.977  0.1702  1.4462 -1.4830
  118OSM   H18G12465   3.597   5.123   7.979 -1.4055 -0.0826  2.4321
  118OSM   H18H12466   3.607   4.993   8.099 -0.8639 -1.6898  0.2277
  119OSM      N12467   6.149   2.579   5.688  0.1477  0.1472  0.3152
  119OSM    C1512468   6.059   2.593   5.574 -0.1697  0.1183 -0.1580
  119OSM   H15A12469   6.029   2.697   5.569  0.4768  0.5978  3.3180
  119OSM   H15B12470   5.982   2.519   5.591 -0.5256  0.7176  0.8690
  119OSM   H15C12471   6.098   2.558   5.479 -0.1165 -0.6375  0.1381
  119OSM    C1412472   6.239   2.455   5.682  0.0758  0.7828  0.1653
  119OSM   H14A12473   6.183   2.363   5.686 -0.8510  1.3027 -0.6124
  119OSM   H14B12474   6.309   2.453   5.765 -0.0592 -2.5587  0.3337
  119OSM   H14C12475   6.293   2.441   5.590 -1.7438 -1.4829 -0.6303
  119OSM    C1312476   6.242   2.695   5.692 -0.3038  0.3395  0.5340
  119OSM   H13A12477   6.326   2.675   5.756  0.2911 -0.0593 -0.3545
  119OSM   H13B12478   6.201   2.792   5.715 -0.2384  0.7287 -0.8861
  119OSM   H13C12479   6.285   2.711   5.594  0.1821  0.1956  0.7245
  119OSM    C1212480   6.059   2.566   5.815 -0.1836  0.1522 -0.4235
  119OSM   H12A12481   5.990   2.484   5.819 -1.0821  0.7144 -2.5106
  119OSM   H12B12482   5.989   2.648   5.807  1.6632  2.1287  2.0369
  119OSM    C1112483   6.124   2.581   5.953 -0.5816  0.0574  0.5030
  119OSM   H11A12484   6.049   2.606   6.031  0.3968  0.2967  1.3890
  119OSM   H11B12485   6.190   2.670   5.949  2.5121 -2.1063 -0.4180
  119OSM      P12486   6.144   2.345   6.047  0.1991 -0.3464  0.5358
  119OSM    O1312487   6.003   2.332   6.000 -0.3804 -1.0072  0.2477
  119OSM    O1412488   6.240   2.233   6.021 -0.2901  0.0113 -0.1155
  119OSM    O1112489   6.157   2.393   6.199 -0.3640  0.4827  0.8835
  119OSM    O1212490   6.209   2.468   5.979  0.1942  0.3549  0.3652
  119OSM    C1S12491   6.099   2.306   6.297 -0.1909 -0.0461 -0.2265
  119OSM    H1S12492   6.172   2.243   6.352 -0.0181  0.3190 -0.0324
  119OSM    H1T12493   6.011   2.249   6.260 -1.2610  2.2731 -1.5279
  119OSM     NF12494   6.025   2.311   6.531 -0.0170  0.3181 -0.3575
  119OSM    HNF12495   5.929   2.294   6.552  0.1707  0.1483  0.3809
  119OSM    C2S12496   6.038   2.395   6.412 -0.5106  0.0937 -0.4404
  119OSM    H2S12497   6.118   2.471   6.427 -1.4410  1.5767 -2.4915
  119OSM    C3S12498   5.909   2.464   6.355  0.4114  0.4733  0.3756
  119OSM    H3S12499   5.825   2.392   6.348 -1.0989  2.0806  1.1085
  119OSM     O312500   5.911   2.533   6.231  0.1871 -0.6689  0.8660
  119OSM    HO312501   5.987   2.501   6.183 -1.5787 -2.9989 -0.5814
  119OSM    C4S12502   5.872   2.563   6.465  0.6390  0.0232 -1.0155
  119OSM    H4S12503   5.942   2.644   6.489  1.9536 -1.3193 -0.1349
  119OSM    C5S12504   5.745   2.574   6.518 -0.0890 -0.1743  0.1248
  119OSM    H5S12505   5.663   2.509   6.486 -0.4700  0.2234  0.2921
  119OSM    C6S12506   5.718   2.685   6.612 -0.2319  0.1626 -0.4914
  119OSM    H6S12507   5.641   2.756   6.575  1.1899  2.1526  0.2488
  119OSM    H6T12508   5.807   2.748   6.634  0.1944 -1.1790  1.9590
  119OSM    C7S12509   5.665   2.632   6.747 -0.2730  0.6253  0.3984
  119OSM    H7S12510   5.583   2.560   6.729 -0.9934  1.5140  0.0067
  119OSM    H7T12511   5.623   2.723   6.795 -1.3271  0.0923  0.5134
  119OSM    C8S12512   5.764   2.553   6.836 -0.2196 -0.3181  0.0552
  119OSM    H8S12513   5.858   2.612   6.840 -1.8072  2.4211 -0.8039
  119OSM    H8T12514   5.778   2.458   6.781 -2.5477 -0.4497 -0.3973
  119OSM    C9S12515   5.711   2.541   6.985  0.4999  0.5748  0.3840
  119OSM    H9S12516   5.766   2.454   7.026 -0.8263  0.0965  1.2274
  119OSM    H9T12517   5.602   2.518   6.983  0.3697  1.1800 -1.3298
  119OSM   C10S12518   5.749   2.651   7.081  0.2616 -0.2540  0.0526
  119OSM   H10S12519   5.701   2.751   7.075  1.1082  0.2100  0.6849
  119OSM   H10T12520   5.858   2.675   7.078 -0.3305  2.9920  0.4101
  119OSM   C11S12521   5.732   2.611   7.226  0.2798  0.4819  0.1221
  119OSM   H11S12522   5.764   2.689   7.297 -1.0626 -1.3176  2.8813
  119OSM   H11T12523   5.809   2.535   7.252 -0.2484 -0.2940 -0.5090
  119OSM   C12S12524   5.593   2.556   7.266 -0.1855 -0.0737  0.0133
  119OSM   H12S12525   5.575   2.449   7.240  2.2865 -0.2869 -1.0121
  119OSM   H12T12526   5.514   2.623   7.225  1.4874  1.0613 -1.4732
  119OSM   C13S12527   5.563   2.555   7.415  0.3918 -0.5834  0.2592
  119OSM   H13S12528   5.581   2.658   7.453 -0.5067 -1.0906  2.2386
  119OSM   H13T12529   5.630   2.481   7.466  0.5037 -1.8929 -1.6896
  119OSM   C14S12530   5.425   2.507   7.447 -0.2954  0.0288 -0.4739
  119OSM   H14S12531   5.400   2.407   7.404  0.5911 -0.0143 -0.9118
  119OSM   H14T12532   5.364   2.579   7.389 -0.3764  1.5365  1.3937
  119OSM   C15S12533   5.392   2.511   7.592  0.2439  0.3244 -0.5709
  119OSM   H15S12534   5.406   2.612   7.636 -0.2305 -0.5566  1.7573
  119OSM   H15T12535   5.461   2.451   7.655 -2.2490 -1.9895  0.1361
  119OSM   C16S12536   5.251   2.475   7.630  0.1982  0.1411 -0.2687
  119OSM   H16S12537   5.221   2.385   7.572  1.4728  0.0244 -0.7720
  119OSM   H16T12538   5.179   2.555   7.600 -1.2515 -0.8355  0.4674
  119OSM   C17S12539   5.238   2.434   7.778  0.0674 -0.2763  0.7636
  119OSM   H17S12540   5.241   2.522   7.845 -0.0957 -0.3342  0.8487
  119OSM   H17T12541   5.316   2.358   7.800  0.2815 -0.1931  0.3115
  119OSM   C18S12542   5.092   2.380   7.789 -0.0317  0.3061 -0.0935
  119OSM   H18S12543   5.068   2.357   7.895 -1.1036 -1.9960 -0.7506
  119OSM   H18T12544   5.073   2.287   7.731 -0.2611  0.4916 -0.3140
  119OSM   H18U12545   5.016   2.455   7.759 -1.1871  0.1059  2.1579
  119OSM    C1F12546   6.124   2.258   6.613 -0.0313  0.2319  0.3908
  119OSM     OF12547   6.242   2.273   6.583  0.2772  0.3096  0.0965
  119OSM    C2F12548   6.073   2.182   6.735 -0.4150  0.9171  0.0535
  119OSM    H2F12549   6.098   2.075   6.718  5.0588  1.8303  0.4257
  119OSM    H2G12550   5.963   2.193   6.735 -0.6076 -0.5141  2.0216
  119OSM    C3F12551   6.133   2.223   6.865 -0.6635  0.1531  0.2642
  119OSM    H3F12552   6.135   2.334   6.864 -0.4290  0.1510 -0.5885
  119OSM    H3G12553   6.238   2.195   6.889 -0.0773  1.4192 -0.7385
  119OSM    C4F12554   6.041   2.185   6.979 -0.2140 -0.4749 -0.3752
  119OSM    H4F12555   6.017   2.077   6.973 -0.1823 -0.4912 -0.2187
  119OSM    H4G12556   5.946   2.242   6.966  0.6522  0.6762 -2.1216
  119OSM    C5F12557   6.111   2.198   7.118  0.5354  0.4213  0.2927
  119OSM    H5F12558   6.132   2.304   7.142 -0.7327  1.0001 -0.9661
  119OSM    H5G12559   6.208   2.143   7.118 -0.1697 -1.4395  5.7650
  119OSM    C6F12560   6.031   2.127   7.229 -0.2535  0.0457  0.9932
  119OSM    H6F12561   6.068   2.023   7.237 -1.0398 -0.1269  3.1914
  119OSM    H6G12562   5.922   2.139   7.209 -0.2380  3.6222  2.2651
  119OSM    C7F12563   6.055   2.191   7.368  0.0943  0.3207  0.6602
  119OSM    H7F12564   5.999   2.141   7.450  1.2878 -0.0476  1.2869
  119OSM    H7G12565   6.013   2.293   7.358 -1.0446 -0.3228 -1.5865
  119OSM    C8F12566   6.202   2.184   7.412 -0.4866  0.3431  0.4026
  119OSM    H8F12567   6.270   2.217   7.330  1.8059 -2.1451  1.1648
  119OSM    H8G12568   6.228   2.077   7.428 -1.2342 -0.1467 -1.4428
  119OSM    C9F12569   6.220   2.263   7.539  0.5824 -0.0709 -0.0207
  119OSM    H9F12570   6.244   2.370   7.526 -2.6093  0.5481 -1.6710
  119OSM   C10F12571   6.211   2.220   7.667 -0.9418 -0.0138 -0.4282
  119OSM   H10F12572   6.223   2.286   7.754 -0.7396 -1.3237  0.5560
  119OSM   C11F12573   6.179   2.085   7.722  0.2279  0.1661  0.6363
  119OSM   H11F12574   6.247   2.060   7.807  0.0041 -0.2079  0.7065
  119OSM   H11G12575   6.205   2.008   7.647  2.1757  2.6969 -1.4529
  119OSM   C12F12576   6.035   2.052   7.769  0.4655  0.0630  0.4480
  119OSM   H12F12577   6.030   1.946   7.800  0.9463 -0.6826 -1.8265
  119OSM   H12G12578   5.955   2.063   7.693  1.6411  0.8238 -0.7410
  119OSM   C13F12579   5.971   2.140   7.883 -0.5462  0.5247 -0.2212
  119OSM   H13F12580   5.871   2.098   7.906 -1.4072  1.5733 -1.8360
  119OSM   H13G12581   5.958   2.236   7.829  0.3331  0.3322 -0.8013
  119OSM   C14F12582   6.056   2.172   8.006  0.2420  0.1345 -0.0860
  119OSM   H14F12583   6.159   2.210   7.992  1.7531 -1.8169  4.2129
  119OSM   H14G12584   6.071   2.089   8.078 -2.7195  0.1747  0.7243
  119OSM   C15F12585   5.996   2.287   8.093 -0.1212 -0.5016 -0.2833
  119OSM   H15F12586   5.893   2.264   8.127 -0.2666  1.3832  0.6579
  119OSM   H15G12587   5.990   2.380   8.031  0.6011  0.9912  1.7914
  119OSM   C16F12588   6.081   2.320   8.215 -0.2766  1.0749 -0.5723
  119OSM   H16F12589   6.017   2.372   8.289  0.7947  2.6792 -0.7034
  119OSM   H16G12590   6.167   2.385   8.186  1.2339 -0.3402  0.5467
  119OSM   C17F12591   6.140   2.197   8.295 -0.9041 -0.0265  0.5843
  119OSM   H17F12592   6.201   2.130   8.232  0.1432  0.8290  0.6501
  119OSM   H17G12593   6.056   2.131   8.324 -0.6420 -0.0617  1.2698
  119OSM   C18F12594   6.225   2.229   8.418 -0.3857  0.3693  0.4701
  119OSM   H18F12595   6.331   2.254   8.396 -0.5822 -0.3840 -1.5525
  119OSM   H18G12596   6.237   2.135   8.477 -3.1669 -0.4053 -0.0170
  119OSM   H18H12597   6.182   2.310   8.482  2.6456 -0.5175  3.9637
  120OSM      N12598   3.838   6.790   6.382 -0.1213  0.3048  0.3703
  120OSM    C1512599   3.926   6.681   6.330  0.9307  0.1057 -0.0670
  120OSM   H15A12600   3.878   6.585   6.343  0.6968  0.4195  1.6036
  120OSM   H15B12601   4.024   6.677   6.375  0.9489  0.3962 -0.0778
  120OSM   H15C12602   3.925   6.691   6.223  1.1891 -1.8828 -0.2950
  120OSM    C1412603   3.710   6.791   6.293 -0.1859 -0.2813  0.7397
  120OSM   H14A12604   3.734   6.828   6.195  0.8069 -1.4422  0.5372
  120OSM   H14B12605   3.642   6.861   6.341 -0.2288  0.7096 -0.7100
  120OSM   H14C12606   3.661   6.695   6.281  0.2372 -0.7586  2.5510
  120OSM    C1312607   3.786   6.761   6.519  0.4655 -0.1481  0.0223
  120OSM   H13A12608   3.853   6.728   6.597  0.4396 -1.1425 -0.3587
  120OSM   H13B12609   3.721   6.675   6.517  2.7997 -2.0288  0.0504
  120OSM   H13C12610   3.718   6.841   6.543 -1.2182 -0.4637 -3.1535
  120OSM    C1212611   3.898   6.929   6.373 -0.5229 -0.8304  0.6125
  120OSM   H12A12612   3.972   6.941   6.450 -0.9783 -0.3560  0.9857
  120OSM   H12B12613   3.821   7.005   6.381  1.5151  1.4117  0.1256
  120OSM    C1112614   3.978   6.968   6.243 -0.2742 -0.1744  0.5010
  120OSM   H11A12615   3.990   7.079   6.249  1.7181 -0.2453 -1.2318
  120OSM   H11B12616   3.912   6.942   6.158 -1.2434  2.1676  0.4314
  120OSM      P12617   4.223   6.904   6.341 -0.0911 -0.0195 -0.1774
  120OSM    O1312618   4.259   6.766   6.394 -0.0073  0.0163  0.2203
  120OSM    O1412619   4.323   6.982   6.271  0.3403 -0.2893  0.6792
  120OSM    O1112620   4.172   6.999   6.459 -0.6752  0.1556  0.3833
  120OSM    O1212621   4.100   6.893   6.248 -0.1920 -0.6248  0.3638
  120OSM    C1S12622   4.169   6.949   6.593 -0.4760 -0.0044 -0.4829
  120OSM    H1S12623   4.209   6.846   6.600  1.3458  0.5880 -1.4701
  120OSM    H1T12624   4.064   6.954   6.628 -0.9348  2.2269 -1.9254
  120OSM     NF12625   4.246   6.955   6.824 -0.2725  0.2166 -0.1792
  120OSM    HNF12626   4.182   6.995   6.889  0.4344  2.2302 -0.6358
  120OSM    C2S12627   4.259   7.028   6.697  0.3146  0.0699 -0.2933
  120OSM    H2S12628   4.364   7.026   6.659  0.8856 -2.0477  1.2203
  120OSM    C3S12629   4.222   7.178   6.697  0.5466  0.9783  0.0780
  120OSM    H3S12630   4.116   7.190   6.729 -0.3420 -0.6933 -1.9447
  120OSM     O312631   4.237   7.252   6.576 -0.1070 -0.3558  0.2890
  120OSM    HO312632   4.276   7.193   6.512 -1.2706  0.1195 -0.9011
  120OSM    C4S12633   4.315   7.239   6.802  0.3959  0.4389 -0.7465
  120OSM    H4S12634   4.421   7.217   6.785 -0.0441 -2.4012 -0.2927
  120OSM    C5S12635   4.273   7.313   6.901  0.6075  0.5607 -0.2352
  120OSM    H5S12636   4.171   7.347   6.921 -0.6934 -2.1101 -1.8123
  120OSM    C6S12637   4.366   7.385   6.994  0.0154 -0.1619 -0.4282
  120OSM    H6S12638   4.299   7.463   7.034 -1.9888 -1.0080 -2.0022
  120OSM    H6T12639   4.438   7.433   6.924 -0.3711  2.8821  1.1202
  120OSM    C7S12640   4.415   7.291   7.105 -0.4399 -0.3283 -0.0891
  120OSM    H7S12641   4.492   7.227   7.056 -3.1699 -1.7216 -2.9745
  120OSM    H7T12642   4.327   7.229   7.133 -0.6337  1.1849  2.9590
  120OSM    C8S12643   4.476   7.362   7.229  0.1426 -0.0299  0.0528
  120OSM    H8S12644   4.542   7.441   7.189 -0.3462  0.4554  0.1857
  120OSM    H8T12645   4.532   7.296   7.298 -0.8494 -0.9149  0.0485
  120OSM    C9S12646   4.356   7.438   7.307 -0.4498 -0.5021  1.0085
  120OSM    H9S12647   4.334   7.364   7.387  1.0909  0.3420  2.2814
  120OSM    H9T12648   4.265   7.447   7.244  1.1121  0.4427 -1.2593
  120OSM   C10S12649   4.411   7.575   7.356  0.2124 -0.1384 -0.6286
  120OSM   H10S12650   4.323   7.642   7.364  0.5333  0.5791 -2.4656
  120OSM   H10T12651   4.488   7.614   7.286  2.7265 -2.8968  0.4239
  120OSM   C11S12652   4.465   7.578   7.501 -0.3529  0.0055 -0.0313
  120OSM   H11S12653   4.525   7.670   7.510 -2.6223  1.7027 -1.1352
  120OSM   H11T12654   4.535   7.494   7.522 -0.3098 -0.2504 -1.1444
  120OSM   C12S12655   4.357   7.586   7.607 -0.3233  0.2846 -0.7294
  120OSM   H12S12656   4.270   7.539   7.557 -0.1095 -0.0071 -0.8269
  120OSM   H12T12657   4.331   7.694   7.605 -0.8721  0.1720 -3.2942
  120OSM   C13S12658   4.390   7.522   7.747  0.7913  0.2618 -0.2958
  120OSM   H13S12659   4.435   7.421   7.737  2.5307  1.0641 -1.0198
  120OSM   H13T12660   4.293   7.509   7.800  1.3326 -0.9969  0.4135
  120OSM   C14S12661   4.476   7.619   7.830  0.2827 -0.3913  0.2171
  120OSM   H14S12662   4.431   7.719   7.845  0.8011  0.2607 -2.1661
  120OSM   H14T12663   4.569   7.628   7.770  0.4852 -1.2937  0.3755
  120OSM   C15S12664   4.508   7.572   7.971 -0.2347  0.0329  0.3458
  120OSM   H15S12665   4.567   7.653   8.019  3.6173 -2.8711  1.0422
  120OSM   H15T12666   4.582   7.490   7.968 -0.2930  0.0131 -1.0123
  120OSM   C16S12667   4.386   7.537   8.063 -0.3684  0.2292 -0.2774
  120OSM   H16S12668   4.320   7.457   8.022 -1.3761  2.3750 -3.2142
  120OSM   H16T12669   4.332   7.634   8.057 -0.2269  0.2264 -2.2626
  120OSM   C17S12670   4.412   7.506   8.214  0.1140 -0.0083 -0.5909
  120OSM   H17S12671   4.473   7.413   8.221 -3.4748 -2.6718 -1.9986
  120OSM   H17T12672   4.318   7.474   8.264 -0.4449  0.3209 -1.4080
  120OSM   C18S12673   4.491   7.612   8.300  0.4300  0.2039 -0.1193
  120OSM   H18S12674   4.591   7.628   8.254  0.4467 -1.1488 -0.5723
  120OSM   H18T12675   4.503   7.577   8.405  1.1528  0.3542 -0.1408
  120OSM   H18U12676   4.432   7.706   8.306  1.1512  0.7431 -1.0885
  120OSM    C1F12677   4.309   6.841   6.846 -0.2580  0.7122 -0.6585
  120OSM     OF12678   4.381   6.797   6.756 -0.3228  0.1257 -0.1862
  120OSM    C2F12679   4.280   6.780   6.985  0.2772  0.7498 -0.1780
  120OSM    H2F12680   4.178   6.738   6.976  0.3899  0.8428 -2.4306
  120OSM    H2G12681   4.287   6.851   7.071  0.8354  1.2120 -0.5921
  120OSM    C3F12682   4.380   6.667   7.018  0.2551 -0.7153 -0.0389
  120OSM    H3F12683   4.481   6.712   7.035  0.4315 -1.6477  1.6412
  120OSM    H3G12684   4.368   6.596   6.934  0.1713 -1.2993  0.4628
  120OSM    C4F12685   4.356   6.588   7.145 -0.2008 -0.0520 -0.1056
  120OSM    H4F12686   4.257   6.536   7.151 -1.0213  1.6369  2.3004
  120OSM    H4G12687   4.365   6.652   7.235 -0.2477  0.7388 -0.6487
  120OSM    C5F12688   4.462   6.476   7.163 -1.2223 -0.7029 -0.1278
  120OSM    H5F12689   4.518   6.473   7.067 -2.5238  0.6962 -0.9687
  120OSM    H5G12690   4.417   6.375   7.171  0.4414 -1.3257  3.7744
  120OSM    C6F12691   4.564   6.494   7.284  0.5389 -0.1220  0.6255
  120OSM    H6F12692   4.626   6.585   7.272  1.5708 -0.7457  1.0663
  120OSM    H6G12693   4.632   6.406   7.275 -0.4544 -0.8918  0.5275
  120OSM    C7F12694   4.497   6.477   7.419 -0.3013  0.1208 -0.1684
  120OSM    H7F12695   4.447   6.378   7.423 -3.3991  1.5608 -0.0603
  120OSM    H7G12696   4.414   6.547   7.445  1.2089  2.0422 -0.3186
  120OSM    C8F12697   4.592   6.486   7.537 -0.1529  0.4490  0.2766
  120OSM    H8F12698   4.680   6.417   7.534  0.1477  0.7083  2.1107
  120OSM    H8G12699   4.545   6.441   7.627 -0.8035  1.2389  0.3381
  120OSM    C9F12700   4.642   6.619   7.566  0.2805 -1.5382  0.0939
  120OSM    H9F12701   4.719   6.657   7.498 -0.3587  1.7076  1.0313
  120OSM   C10F12702   4.604   6.704   7.661  0.0431  0.1246 -0.4191
  120OSM   H10F12703   4.650   6.804   7.661  2.6157 -0.9600  0.7052
  120OSM   C11F12704   4.502   6.686   7.770 -0.6520 -0.3655 -0.2016
  120OSM   H11F12705   4.429   6.605   7.750 -1.3995  0.7546 -2.2874
  120OSM   H11G12706   4.438   6.777   7.777  0.4428  0.3409  1.2060
  120OSM   C12F12707   4.567   6.674   7.903 -0.1795  0.0267  0.2855
  120OSM   H12F12708   4.491   6.682   7.984 -0.5553  1.3838 -0.1703
  120OSM   H12G12709   4.645   6.752   7.915  0.5042 -0.2007 -2.1520
  120OSM   C13F12710   4.658   6.550   7.939 -0.0960  0.0402 -0.2670
  120OSM   H13F12711   4.729   6.526   7.857  2.5716  1.3197  1.4818
  120OSM   H13G12712   4.594   6.460   7.954  1.9630 -0.8789  5.3810
  120OSM   C14F12713   4.749   6.563   8.053 -0.1109 -0.0086  0.2093
  120OSM   H14F12714   4.817   6.650   8.039 -1.1907  0.6093 -1.5755
  120OSM   H14G12715   4.809   6.469   8.051 -0.0133  0.0593 -0.1949
  120OSM   C15F12716   4.673   6.568   8.188 -0.2048  0.0363  0.4472
  120OSM   H15F12717   4.667   6.465   8.229 -3.1676  0.1480  0.4967
  120OSM   H15G12718   4.574   6.615   8.173 -0.7474 -1.2562 -0.1898
  120OSM   C16F12719   4.755   6.648   8.291 -0.5286 -0.1845  0.2744
  120OSM   H16F12720   4.739   6.756   8.271  0.6060 -0.1378 -0.4627
  120OSM   H16G12721   4.866   6.635   8.291 -0.5598 -1.2398  3.2615
  120OSM   C17F12722   4.714   6.627   8.438 -0.2434 -0.5136  0.1110
  120OSM   H17F12723   4.692   6.519   8.450 -0.0281 -0.6838 -0.9291
  120OSM   H17G12724   4.624   6.687   8.462 -1.1200 -1.3226 -1.0670
  120OSM   C18F12725   4.829   6.678   8.524 -0.4379  0.3504 -0.0998
  120OSM   H18F12726   4.890   6.763   8.485  1.4577 -0.2620  1.3893
  120OSM   H18G12727   4.906   6.599   8.534  1.5435  1.9732 -1.5413
  120OSM   H18H12728   4.793   6.715   8.622 -0.3229  1.0543 -0.3142
  121OSM      N12729   5.601   1.102   6.189 -0.3944  0.3002 -0.0599
  121OSM    C1512730   5.536   1.047   6.063 -0.7570  0.6076 -0.2779
  121OSM   H15A12731   5.431   1.025   6.071  0.0133 -3.0552  3.0911
  121OSM   H15B12732   5.580   0.949   6.051  0.9142  1.3130 -0.1637
  121OSM   H15C12733   5.568   1.102   5.976  2.1977  0.3158  0.5013
  121OSM    C1412734   5.578   1.245   6.196 -0.2661  0.7167  0.3541
  121OSM   H14A12735   5.479   1.277   6.169 -0.1272  0.7642 -0.1130
  121OSM   H14B12736   5.641   1.296   6.123  0.3529  2.0948  1.7806
  121OSM   H14C12737   5.600   1.280   6.296  1.8924 -0.1283  0.2362
  121OSM    C1312738   5.522   1.042   6.294 -0.3867  0.9145 -0.0705
  121OSM   H13A12739   5.559   1.072   6.391  0.6755 -0.8721  0.1245
  121OSM   H13B12740   5.537   0.935   6.292  0.1177  0.9927 -0.6202
  121OSM   H13C12741   5.422   1.083   6.299 -0.7363  0.0123  0.5980
  121OSM    C1212742   5.743   1.053   6.192 -0.0580  0.0749 -0.5282
  121OSM   H12A12743   5.788   1.098   6.105 -0.5392  1.7053  0.0269
  121OSM   H12B12744   5.741   0.947   6.170 -2.5603  0.2588 -1.5681
  121OSM    C1112745   5.825   1.084   6.320  0.2504  0.2833 -0.1732
  121OSM   H11A12746   5.924   1.038   6.298 -0.1407 -0.7290  0.1129
  121OSM   H11B12747   5.787   1.030   6.409  0.1994 -0.4722 -0.6414
  121OSM      P12748   5.929   1.318   6.264 -0.0653 -0.5339  0.3503
  121OSM    O1312749   5.933   1.308   6.121 -0.2017  0.2807  0.3610
  121OSM    O1412750   5.897   1.457   6.305  0.4219  0.0484 -0.2563
  121OSM    O1112751   6.063   1.278   6.322  0.7103  0.6231 -0.2713
  121OSM    O1212752   5.834   1.224   6.342  0.1946 -0.4292 -0.3192
  121OSM    C1S12753   6.107   1.316   6.451 -0.5075  0.0753 -0.2034
  121OSM    H1S12754   6.027   1.376   6.500 -0.2185  0.4132 -0.1411
  121OSM    H1T12755   6.198   1.378   6.437  0.8959 -1.6338  0.8299
  121OSM     NF12756   6.207   1.236   6.669 -0.2446  0.6417  0.7409
  121OSM    HNF12757   6.301   1.268   6.674  0.3000 -0.6340 -0.5341
  121OSM    C2S12758   6.155   1.192   6.539  0.9191  0.3250  0.4313
  121OSM    H2S12759   6.071   1.122   6.556  2.5281 -1.6556  0.5553
  121OSM    C3S12760   6.261   1.125   6.440  0.6435 -0.1107 -0.1687
  121OSM    H3S12761   6.335   1.201   6.407  0.0753  0.2573 -0.6057
  121OSM     O312762   6.207   1.062   6.322  0.1664 -0.0111  0.0200
  121OSM    HO312763   6.131   1.120   6.311  0.7106  0.6166 -0.6052
  121OSM    C4S12764   6.346   1.026   6.517  0.3351 -0.7405  0.8365
  121OSM    H4S12765   6.436   1.066   6.566 -0.0205  1.0599  0.1094
  121OSM    C5S12766   6.332   0.897   6.530  0.6443 -0.2517  0.6955
  121OSM    H5S12767   6.253   0.854   6.468  0.5855  1.1840 -0.2943
  121OSM    C6S12768   6.418   0.803   6.608  0.6816  0.0127 -0.1321
  121OSM    H6S12769   6.487   0.741   6.547  1.0644  0.3891 -0.0924
  121OSM    H6T12770   6.358   0.730   6.666 -1.0496  1.6388  0.2194
  121OSM    C7S12771   6.515   0.861   6.718  0.1549  0.5788  0.1569
  121OSM    H7S12772   6.583   0.938   6.676  1.1611  0.2140  1.0791
  121OSM    H7T12773   6.575   0.775   6.754  1.4288  2.0304  1.6392
  121OSM    C8S12774   6.439   0.929   6.838  0.6855  0.0243 -0.2633
  121OSM    H8S12775   6.365   0.860   6.884  0.3720  0.8661  0.5424
  121OSM    H8T12776   6.381   1.018   6.805  2.1866  0.5986 -1.4794
  121OSM    C9S12777   6.536   0.975   6.947 -0.9344 -0.5836  0.3070
  121OSM    H9S12778   6.633   1.004   6.900 -1.0252 -1.5275 -0.4926
  121OSM    H9T12779   6.558   0.885   7.009 -3.5574 -0.6806  1.2287
  121OSM   C10S12780   6.491   1.089   7.034  0.6309 -0.5127  0.1718
  121OSM   H10S12781   6.386   1.067   7.064 -0.1002 -1.8789 -2.9850
  121OSM   H10T12782   6.484   1.186   6.981 -2.0760 -1.5472 -1.5695
  121OSM   C11S12783   6.580   1.108   7.163 -0.2996  0.2026 -0.4036
  121OSM   H11S12784   6.684   1.138   7.135  0.5333  0.6916  2.7504
  121OSM   H11T12785   6.591   1.016   7.224  0.9364  1.7923  1.9578
  121OSM   C12S12786   6.521   1.211   7.260 -0.0996  0.4736 -1.3650
  121OSM   H12S12787   6.422   1.178   7.299 -0.7101  0.4571 -2.8849
  121OSM   H12T12788   6.496   1.309   7.215 -0.6246  1.1238  0.2669
  121OSM   C13S12789   6.606   1.237   7.386  0.7135 -0.8128 -0.7098
  121OSM   H13S12790   6.703   1.270   7.342 -0.7457  3.1562 -1.3930
  121OSM   H13T12791   6.608   1.145   7.447 -0.2974 -1.3867 -1.5155
  121OSM   C14S12792   6.558   1.351   7.479  0.2465  0.1312  0.0113
  121OSM   H14S12793   6.454   1.347   7.517 -0.1565  2.0645 -0.7763
  121OSM   H14T12794   6.563   1.450   7.428 -0.9096 -0.0790 -0.5400
  121OSM   C15S12795   6.650   1.364   7.603  0.2874 -0.4445  0.1490
  121OSM   H15S12796   6.756   1.359   7.569  0.0048  1.5884 -1.2340
  121OSM   H15T12797   6.645   1.276   7.670  0.6138 -0.3902  0.2492
  121OSM   C16S12798   6.633   1.491   7.697 -0.0328  1.1284  0.9192
  121OSM   H16S12799   6.526   1.505   7.725  0.1070 -0.4024  2.3911
  121OSM   H16T12800   6.669   1.571   7.629  2.5280 -0.9794 -0.3888
  121OSM   C17S12801   6.718   1.490   7.816  0.6903  0.3594 -0.1064
  121OSM   H17S12802   6.713   1.588   7.869  1.9070  1.2020 -1.4483
  121OSM   H17T12803   6.821   1.473   7.776  0.3655 -1.5468 -0.1888
  121OSM   C18S12804   6.689   1.384   7.922 -0.1773 -0.0681 -0.2431
  121OSM   H18S12805   6.737   1.401   8.021 -2.7666  1.4967  0.8517
  121OSM   H18T12806   6.707   1.280   7.887 -4.0376 -1.0445  0.1841
  121OSM   H18U12807   6.578   1.388   7.936 -0.1380  1.3906 -0.2169
  121OSM    C1F12808   6.116   1.269   6.766 -0.0311 -0.2490 -0.7273
  121OSM     OF12809   5.997   1.250   6.749  0.1847  0.2557 -0.7528
  121OSM    C2F12810   6.176   1.327   6.892 -0.8163  0.3773  0.7067
  121OSM    H2F12811   6.118   1.421   6.902  0.4735  1.4469 -1.1718
  121OSM    H2G12812   6.284   1.339   6.874 -0.3734 -2.2658  1.1015
  121OSM    C3F12813   6.139   1.253   7.020 -0.2968  0.1391  0.7799
  121OSM    H3F12814   6.202   1.164   7.039 -0.8853 -0.1690  1.3192
  121OSM    H3G12815   6.030   1.228   7.016 -0.7874  2.1979 -2.4611
  121OSM    C4F12816   6.159   1.333   7.142 -0.2843 -0.2769 -0.3654
  121OSM    H4F12817   6.096   1.422   7.122  0.8697  0.2171 -2.0918
  121OSM    H4G12818   6.267   1.358   7.152  0.3826 -2.1868 -1.9635
  121OSM    C5F12819   6.115   1.246   7.267 -0.7412 -0.0372 -0.1598
  121OSM    H5F12820   6.162   1.146   7.258 -0.1464  0.2516 -0.3166
  121OSM    H5G12821   6.005   1.232   7.270 -1.1027  2.3693  0.1841
  121OSM    C6F12822   6.128   1.318   7.407 -0.1066  0.2887  0.3576
  121OSM    H6F12823   6.058   1.403   7.414 -1.6592 -0.9807  0.9694
  121OSM    H6G12824   6.232   1.352   7.425  1.1801 -2.7153 -0.6437
  121OSM    C7F12825   6.101   1.221   7.516 -0.2216 -0.2406 -0.1910
  121OSM    H7F12826   6.165   1.130   7.521 -1.3351 -1.0027  0.5760
  121OSM    H7G12827   6.003   1.176   7.492 -1.0643  1.3248  0.1369
  121OSM    C8F12828   6.066   1.293   7.648 -0.3679  0.2580  0.2364
  121OSM    H8F12829   6.029   1.206   7.706 -1.4511  0.0047 -0.8011
  121OSM    H8G12830   5.976   1.355   7.632  0.0901  0.7468 -0.4978
  121OSM    C9F12831   6.165   1.368   7.726 -0.1053 -0.0651 -0.7294
  121OSM    H9F12832   6.232   1.442   7.679  0.5273 -0.5822 -0.6600
  121OSM   C10F12833   6.191   1.363   7.857 -0.5593  0.7305 -0.0463
  121OSM   H10F12834   6.260   1.429   7.911  1.2777 -1.4580  0.4327
  121OSM   C11F12835   6.117   1.279   7.953  1.0953  0.2146  0.0191
  121OSM   H11F12836   6.158   1.176   7.954 -0.9000 -0.6221  0.8250
  121OSM   H11G12837   6.020   1.255   7.905  1.1488 -1.3666  0.6418
  121OSM   C12F12838   6.104   1.327   8.101  0.4038  0.5301  0.2805
  121OSM   H12F12839   6.035   1.261   8.158  1.0248 -0.1931  0.2239
  121OSM   H12G12840   6.085   1.436   8.110 -0.5044  0.4105 -0.0705
  121OSM   C13F12841   6.232   1.294   8.184  0.0479 -0.7998  1.0114
  121OSM   H13F12842   6.297   1.370   8.135 -0.9012  0.0210  0.9909
  121OSM   H13G12843   6.276   1.197   8.154 -1.3263 -1.2849  0.4718
  121OSM   C14F12844   6.211   1.337   8.332 -0.1590 -0.0606 -0.8758
  121OSM   H14F12845   6.123   1.287   8.377  2.3262 -1.2842  3.1114
  121OSM   H14G12846   6.209   1.448   8.340 -1.7954 -0.1549  0.5795
  121OSM   C15F12847   6.335   1.303   8.420  0.4748 -0.5636  0.2159
  121OSM   H15F12848   6.417   1.353   8.366 -0.1698  0.7269  0.3982
  121OSM   H15G12849   6.350   1.193   8.424  0.1387 -0.6642 -1.0528
  121OSM   C16F12850   6.330   1.365   8.560  0.8080 -0.0411  1.3433
  121OSM   H16F12851   6.240   1.326   8.611  0.3951  0.6046  1.1122
  121OSM   H16G12852   6.325   1.475   8.544 -0.1945 -0.2714 -0.1048
  121OSM   C17F12853   6.450   1.338   8.640  0.0753  0.2925  0.0636
  121OSM   H17F12854   6.451   1.409   8.725  1.0647  2.4917 -1.6860
  121OSM   H17G12855   6.546   1.372   8.595  0.8495  2.6359  3.1250
  121OSM   C18F12856   6.466   1.195   8.701  0.4778  0.1851 -0.3502
  121OSM   H18F12857   6.412   1.123   8.636 -2.7331  0.8102  1.4142
  121OSM   H18G12858   6.422   1.188   8.803  0.8899 -3.1086 -0.2958
  121OSM   H18H12859   6.571   1.165   8.716  0.1747 -0.0566  1.5608
  122OSM      N12860   2.053   3.639   6.112 -0.5570 -0.1329  0.0995
  122OSM    C1512861   2.100   3.511   6.067 -0.2163 -0.7480  0.1954
  122OSM   H15A12862   2.068   3.428   6.128  0.0972 -0.4673  0.7468
  122OSM   H15B12863   2.204   3.510   6.036 -0.9668 -0.0629 -2.6957
  122OSM   H15C12864   2.050   3.492   5.973 -0.3857  0.1259  0.1003
  122OSM    C1412865   1.909   3.623   6.154  0.0629  0.3641  0.4584
  122OSM   H14A12866   1.869   3.721   6.173  1.3157  1.1007 -0.5448
  122OSM   H14B12867   1.905   3.560   6.242 -0.0599  2.9660  2.4302
  122OSM   H14C12868   1.840   3.597   6.076 -0.7241 -0.9274  1.5405
  122OSM    C1312869   2.127   3.676   6.236 -0.0783 -0.0084  0.2728
  122OSM   H13A12870   2.137   3.784   6.237 -1.5489  0.1707 -1.3825
  122OSM   H13B12871   2.229   3.639   6.232  0.1463  0.7333 -1.4924
  122OSM   H13C12872   2.081   3.646   6.329  1.3793  0.6627  1.2616
  122OSM    C1212873   2.082   3.742   6.003 -0.2995  0.1584  0.5930
  122OSM   H12A12874   2.033   3.710   5.912 -1.0214  0.9835  0.6762
  122OSM   H12B12875   2.188   3.743   5.984 -0.4413 -1.2022 -0.4848
  122OSM    C1112876   2.044   3.886   6.038  0.9625  0.3362 -0.0422
  122OSM   H11A12877   1.935   3.887   6.061  1.0558 -1.8440  0.6437
  122OSM   H11B12878   2.055   3.944   5.944  1.0147 -0.6273 -0.6428
  122OSM      P12879   2.271   3.982   6.119  0.4625 -0.1872 -0.3022
  122OSM    O1312880   2.326   3.889   6.021 -0.5011  0.0095 -0.0510
  122OSM    O1412881   2.295   4.128   6.097 -0.3378 -0.3494 -0.1385
  122OSM    O1112882   2.331   3.945   6.258  0.0216 -0.4906  0.2985
  122OSM    O1212883   2.118   3.945   6.140 -0.1179 -0.2693 -0.8080
  122OSM    C1S12884   2.263   3.983   6.378  0.3613  0.3804  0.4272
  122OSM    H1S12885   2.161   3.941   6.385  0.8882 -1.2206 -0.9177
  122OSM    H1T12886   2.264   4.093   6.391 -1.7820  0.3225  1.4869
  122OSM     NF12887   2.240   3.959   6.620 -0.4620 -0.2125  0.4645
  122OSM    HNF12888   2.287   4.025   6.678  1.8030 -0.4807 -0.9491
  122OSM    C2S12889   2.325   3.924   6.507 -1.3840  0.3093 -0.3091
  122OSM    H2S12890   2.321   3.813   6.497 -0.6455  0.1740  0.7457
  122OSM    C3S12891   2.470   3.966   6.521  0.0006  0.0237 -0.7590
  122OSM    H3S12892   2.470   4.077   6.534 -0.2512 -0.1190  0.5492
  122OSM     O312893   2.558   3.932   6.417  0.2199  0.0945  0.3485
  122OSM    HO312894   2.493   3.919   6.347 -1.0397  0.9662  1.2983
  122OSM    C4S12895   2.540   3.912   6.648  0.4284 -0.6583 -0.1220
  122OSM    H4S12896   2.515   3.807   6.669  0.7206 -0.4262  1.5401
  122OSM    C5S12897   2.614   3.974   6.741  0.1836  0.1050  0.1077
  122OSM    H5S12898   2.636   4.081   6.727 -1.7180  0.2746 -2.1317
  122OSM    C6S12899   2.667   3.909   6.862 -0.3811  0.5022 -0.8373
  122OSM    H6S12900   2.754   3.962   6.906 -0.5744 -1.0538  1.6044
  122OSM    H6T12901   2.703   3.805   6.847 -1.5684 -0.2848  1.3301
  122OSM    C7S12902   2.575   3.906   6.982 -0.6651 -0.7071  0.3139
  122OSM    H7S12903   2.496   3.832   6.956 -0.1397 -1.1117 -0.1397
  122OSM    H7T12904   2.526   4.004   7.002  0.8579  0.4440 -1.3312
  122OSM    C8S12905   2.640   3.858   7.113 -1.8786  0.5746 -0.5086
  122OSM    H8S12906   2.728   3.922   7.135 -0.2160 -1.3085 -1.3332
  122OSM    H8T12907   2.690   3.763   7.087 -0.1205  0.7583  1.8799
  122OSM    C9S12908   2.553   3.832   7.227 -0.1864  0.2150  0.0130
  122OSM    H9S12909   2.488   3.742   7.217  1.6650 -1.4450  1.8823
  122OSM    H9T12910   2.498   3.925   7.248 -1.2330 -0.2148 -0.7231
  122OSM   C10S12911   2.631   3.806   7.356  0.9242  0.0835 -0.4447
  122OSM   H10S12912   2.683   3.895   7.397  1.2746  0.6457 -2.0707
  122OSM   H10T12913   2.695   3.715   7.354  0.6086 -0.1305 -1.0965
  122OSM   C11S12914   2.548   3.767   7.483  0.0708 -0.4555  0.4548
  122OSM   H11S12915   2.472   3.697   7.441 -1.5747  1.8885 -0.7526
  122OSM   H11T12916   2.495   3.857   7.522 -2.1427 -0.5641 -1.9621
  122OSM   C12S12917   2.637   3.711   7.598 -0.2823  0.5562 -0.1678
  122OSM   H12S12918   2.712   3.782   7.639 -1.4699  0.2004  2.9036
  122OSM   H12T12919   2.691   3.630   7.545 -0.3759  1.6363 -1.9928
  122OSM   C13S12920   2.563   3.641   7.709 -0.1347 -0.3230 -0.2846
  122OSM   H13S12921   2.635   3.573   7.758 -1.2409  0.4617  2.6645
  122OSM   H13T12922   2.483   3.568   7.684 -1.9238  0.8171  1.7586
  122OSM   C14S12923   2.507   3.747   7.807 -0.1513  0.2355  0.5080
  122OSM   H14S12924   2.412   3.786   7.765  0.0941  2.7563  2.0954
  122OSM   H14T12925   2.584   3.826   7.816 -0.3142  0.3477  0.9493
  122OSM   C15S12926   2.470   3.693   7.949  0.0252  0.8795  0.3975
  122OSM   H15S12927   2.408   3.603   7.932  2.1133 -0.8944  1.6683
  122OSM   H15T12928   2.401   3.769   7.991 -0.1749  0.8530  0.1200
  122OSM   C16S12929   2.585   3.655   8.037  0.4993  0.5774  0.2258
  122OSM   H16S12930   2.652   3.735   8.075  1.6810 -0.4827  0.4078
  122OSM   H16T12931   2.651   3.596   7.970  1.2343  4.4351 -2.8422
  122OSM   C17S12932   2.528   3.581   8.167  0.6584  0.1218  0.5906
  122OSM   H17S12933   2.479   3.490   8.128  1.3530 -0.2719  0.6293
  122OSM   H17T12934   2.444   3.648   8.196 -0.3405  0.0060 -1.7464
  122OSM   C18S12935   2.639   3.564   8.265 -0.0416  0.3678  0.1546
  122OSM   H18S12936   2.598   3.553   8.368  1.7507  2.5117  1.1753
  122OSM   H18T12937   2.718   3.641   8.257 -0.1583  0.4271 -0.4679
  122OSM   H18U12938   2.698   3.473   8.243 -0.6512  0.3665 -1.6038
  122OSM    C1F12939   2.114   3.923   6.651 -0.2579  0.0584 -1.3268
  122OSM     OF12940   2.052   3.839   6.596  0.3632 -0.0133  0.2794
  122OSM    C2F12941   2.054   4.003   6.760  0.5884  0.5371 -0.4049
  122OSM    H2F12942   1.950   3.966   6.767  1.6631 -2.9725 -0.8368
  122OSM    H2G12943   2.060   4.113   6.745 -1.9525  1.4224  3.5518
  122OSM    C3F12944   2.123   3.966   6.888 -0.0777 -1.0806 -0.6935
  122OSM    H3F12945   2.073   4.027   6.966 -1.3985 -0.1658 -2.1949
  122OSM    H3G12946   2.228   4.002   6.885 -0.1918 -0.6658 -0.0235
  122OSM    C4F12947   2.102   3.818   6.922  0.0873  0.2349  0.6162
  122OSM    H4F12948   2.143   3.759   6.838 -2.9223 -0.8726 -0.2235
  122OSM    H4G12949   1.992   3.799   6.919 -0.1858  1.7634 -1.6328
  122OSM    C5F12950   2.173   3.772   7.052  0.7145 -0.1808 -0.0787
  122OSM    H5F12951   2.270   3.827   7.045 -0.9111  2.6276 -2.7932
  122OSM    H5G12952   2.179   3.663   7.032 -0.7881  0.0700 -2.1711
  122OSM    C6F12953   2.094   3.798   7.182 -0.3175  0.0257 -0.0813
  122OSM    H6F12954   1.999   3.740   7.187  1.2855 -2.9242 -1.0255
  122OSM    H6G12955   2.067   3.905   7.174  0.1741  0.0237 -2.9144
  122OSM    C7F12956   2.189   3.771   7.303  0.0747  0.3959  0.0139
  122OSM    H7F12957   2.283   3.811   7.259  0.4309 -2.3778 -2.0125
  122OSM    H7G12958   2.197   3.661   7.321 -0.1696  0.4072  0.1985
  122OSM    C8F12959   2.170   3.852   7.433 -0.0925 -0.0138  0.1183
  122OSM    H8F12960   2.171   3.962   7.417 -0.0213  0.2845  1.9993
  122OSM    H8G12961   2.253   3.832   7.503  1.2440 -0.0749 -1.4077
  122OSM    C9F12962   2.035   3.802   7.493 -0.0363 -0.0371  0.5366
  122OSM    H9F12963   2.034   3.692   7.504 -1.5380  0.0597  1.6711
  122OSM   C10F12964   1.928   3.878   7.528 -0.1393  0.2991 -0.3865
  122OSM   H10F12965   1.839   3.825   7.565 -2.6431  2.1804 -3.2954
  122OSM   C11F12966   1.932   4.024   7.526  1.0466  1.0187  0.7683
  122OSM   H11F12967   2.009   4.058   7.454  1.8743 -1.7858  0.1979
  122OSM   H11G12968   1.953   4.062   7.628  1.4769  0.5859  0.8463
  122OSM   C12F12969   1.803   4.102   7.471 -0.3125 -0.5613 -0.6478
  122OSM   H12F12970   1.729   4.094   7.554 -1.0383  2.5516 -0.8400
  122OSM   H12G12971   1.768   4.054   7.378 -0.6000  1.0812 -1.4171
  122OSM   C13F12972   1.822   4.257   7.459 -0.0340  1.0802  0.1125
  122OSM   H13F12973   1.914   4.275   7.399  0.1566 -1.4312 -0.4787
  122OSM   H13G12974   1.828   4.298   7.562 -2.7613  2.4494 -0.1659
  122OSM   C14F12975   1.705   4.314   7.377  0.0094  0.1674 -0.7121
  122OSM   H14F12976   1.705   4.424   7.388  0.7422  0.2362 -1.3108
  122OSM   H14G12977   1.615   4.278   7.432  0.8400  0.6519  1.0557
  122OSM   C15F12978   1.696   4.261   7.235 -0.1103  0.2447  0.4158
  122OSM   H15F12979   1.615   4.321   7.189  0.5147  1.8473  1.3384
  122OSM   H15G12980   1.660   4.156   7.237 -0.2164  0.2849  0.6683
  122OSM   C16F12981   1.822   4.274   7.162  0.0031 -0.2325  0.0690
  122OSM   H16F12982   1.895   4.200   7.200 -0.6033 -0.3614  1.0012
  122OSM   H16G12983   1.865   4.371   7.195  2.5241 -1.4017  0.4693
  122OSM   C17F12984   1.809   4.252   7.010 -0.4770 -0.7412 -1.1661
  122OSM   H17F12985   1.912   4.238   6.972  0.0866  0.9105 -0.3578
  122OSM   H17G12986   1.762   4.339   6.958  2.2634  1.6707  0.1343
  122OSM   C18F12987   1.743   4.123   6.953  0.0372 -0.9469 -0.4650
  122OSM   H18F12988   1.742   4.127   6.842 -1.2257 -2.0289 -0.5254
  122OSM   H18G12989   1.640   4.109   6.994  0.7952  0.4721  2.1902
  122OSM   H18H12990   1.804   4.041   6.997 -0.7399 -0.7850  0.9938
  123OSM      N12991   1.672   5.231   5.994 -0.1522 -0.7768  0.1761
  123OSM    C1512992   1.552   5.135   5.998  0.0913 -0.3514 -0.1974
  123OSM   H15A12993   1.503   5.137   6.094  0.1588  1.8180 -0.1612
  123OSM   H15B12994   1.581   5.033   5.978  0.0990 -0.5394  0.7336
  123OSM   H15C12995   1.482   5.161   5.920 -0.4492 -0.1300  0.3612
  123OSM    C1412996   1.746   5.208   5.865 -0.4789 -0.4220 -0.6955
  123OSM   H14A12997   1.841   5.260   5.860  0.0390 -1.1926  0.6034
  123OSM   H14B12998   1.690   5.232   5.776 -0.2360  1.3885 -0.3862
  123OSM   H14C12999   1.773   5.103   5.870 -0.1039 -0.3008 -0.0264
  123OSM    C1313000   1.613   5.375   5.991 -0.1025 -0.4802  0.4723
  123OSM   H13A13001   1.697   5.441   5.976  0.6236 -1.5890 -0.4424
  123OSM   H13B13002   1.575   5.405   6.088 -0.9175 -3.2473  1.0986
  123OSM   H13C13003   1.544   5.395   5.911  2.5421 -0.2001 -1.8630
  123OSM    C1213004   1.753   5.205   6.125 -0.5083 -0.4135  0.4122
  123OSM   H12A13005   1.849   5.252   6.106 -0.5680 -0.1282  0.8002
  123OSM   H12B13006   1.773   5.099   6.129 -1.4283 -0.5481  2.3337
  123OSM    C1113007   1.703   5.259   6.260 -0.2717 -0.2086 -0.4021
  123OSM   H11A13008   1.761   5.220   6.346 -0.6546  1.0415  0.4408
  123OSM   H11B13009   1.600   5.219   6.270 -0.6613  0.5688 -1.1595
  123OSM      P13010   1.773   5.496   6.342 -0.1293  0.1164  0.1192
  123OSM    O1313011   1.901   5.530   6.272  0.2425  0.2005 -0.2366
  123OSM    O1413012   1.694   5.615   6.384  0.4668 -0.5097  0.4318
  123OSM    O1113013   1.800   5.412   6.471 -0.4225  0.0372  0.5267
  123OSM    O1213014   1.691   5.401   6.252  0.1594 -0.5165  0.0143
  123OSM    C1S13015   1.722   5.423   6.594  0.1606 -0.4383 -0.0694
  123OSM    H1S13016   1.612   5.421   6.579  0.3663 -1.6118 -1.8045
  123OSM    H1T13017   1.738   5.523   6.641  0.2709 -0.6950  0.4360
  123OSM     NF13018   1.704   5.333   6.824 -0.0082 -0.1652  0.5281
  123OSM    HNF13019   1.766   5.375   6.889  0.7107 -1.8496  0.9555
  123OSM    C2S13020   1.770   5.318   6.693  0.1794 -0.7584 -0.7199
  123OSM    H2S13021   1.747   5.220   6.646  0.1713 -0.9659 -0.2922
  123OSM    C3S13022   1.921   5.323   6.713 -0.2464 -0.3248 -0.4059
  123OSM    H3S13023   1.953   5.426   6.737 -0.1809 -0.9972  2.7711
  123OSM     O313024   2.001   5.298   6.597  0.0418  1.0035  0.0456
  123OSM    HO313025   1.947   5.341   6.531 -0.1334  0.0370 -0.4669
  123OSM    C4S13026   1.972   5.230   6.819 -0.4289  0.2379  0.5366
  123OSM    H4S13027   1.945   5.125   6.799 -1.2998  0.3319  1.1726
  123OSM    C5S13028   2.057   5.252   6.919 -0.2107 -0.1556  0.0161
  123OSM    H5S13029   2.103   5.352   6.923  2.0165 -0.9941 -2.0532
  123OSM    C6S13030   2.094   5.159   7.025 -0.2279  0.0167 -0.8396
  123OSM    H6S13031   2.205   5.156   7.024 -0.1279  0.0872  2.2414
  123OSM    H6T13032   2.069   5.053   7.004  1.6447 -0.5409 -0.4733
  123OSM    C7S13033   2.052   5.193   7.168 -0.0279  0.0807  0.1367
  123OSM    H7S13034   1.948   5.160   7.188 -0.1673  0.3205 -0.1925
  123OSM    H7T13035   2.062   5.301   7.190  0.1816  0.0062  0.4155
  123OSM    C8S13036   2.131   5.109   7.271 -0.1150 -0.7741  0.2629
  123OSM    H8S13037   2.237   5.129   7.245 -0.1854  1.2070  1.3471
  123OSM    H8T13038   2.106   5.004   7.244 -0.3296 -0.6222 -0.1464
  123OSM    C9S13039   2.092   5.141   7.412  0.0083 -0.0752  0.4690
  123OSM    H9S13040   1.981   5.134   7.414  0.0499 -1.2424 -0.1303
  123OSM    H9T13041   2.125   5.245   7.428  1.2364 -0.8192  3.2709
  123OSM   C10S13042   2.175   5.053   7.507  0.2015 -0.3150 -0.6645
  123OSM   H10S13043   2.279   5.042   7.470  0.7264  1.6149  0.1271
  123OSM   H10T13044   2.126   4.953   7.502 -1.9913  0.6388  0.5415
  123OSM   C11S13045   2.183   5.124   7.648  0.1520 -0.3418  0.1094
  123OSM   H11S13046   2.209   5.231   7.635 -2.7454  0.2557 -1.9144
  123OSM   H11T13047   2.263   5.076   7.708  0.7972  0.7243  0.1188
  123OSM   C12S13048   2.062   5.111   7.739  0.2274 -0.2044  0.3231
  123OSM   H12S13049   2.011   5.012   7.738 -1.8109  0.7871 -0.9167
  123OSM   H12T13050   1.982   5.178   7.700  0.8259 -0.3970 -1.3153
  123OSM   C13S13051   2.099   5.150   7.882 -0.3065  0.3425  0.0220
  123OSM   H13S13052   2.180   5.226   7.881  1.0132 -1.0298  0.0917
  123OSM   H13T13053   2.161   5.069   7.925  0.8667  0.5631 -1.1849
  123OSM   C14S13054   1.976   5.177   7.966 -0.7481 -0.0986 -0.0214
  123OSM   H14S13055   1.917   5.083   7.970 -1.7895  0.5401 -0.2184
  123OSM   H14T13056   1.911   5.251   7.914  0.3203  0.0650 -1.1755
  123OSM   C15S13057   2.012   5.210   8.110 -0.1883 -0.1650 -0.6689
  123OSM   H15S13058   2.058   5.310   8.118 -1.5124  0.3752  0.6817
  123OSM   H15T13059   2.092   5.138   8.137  0.6048  0.9487  0.0131
  123OSM   C16S13060   1.888   5.228   8.208 -0.2281 -0.1149 -1.2073
  123OSM   H16S13061   1.817   5.146   8.187 -0.0371 -0.2116 -1.4914
  123OSM   H16T13062   1.830   5.314   8.169  0.4583 -0.2257 -2.5464
  123OSM   C17S13063   1.933   5.249   8.354 -0.3396 -0.4153 -0.3297
  123OSM   H17S13064   1.838   5.272   8.407 -0.2889 -0.3729 -0.2561
  123OSM   H17T13065   1.990   5.342   8.374 -1.1421 -0.0337  0.2615
  123OSM   C18S13066   2.010   5.133   8.419 -0.1131  0.9940  0.3489
  123OSM   H18S13067   1.969   5.040   8.375  1.3524  1.0673 -1.3019
  123OSM   H18T13068   2.027   5.130   8.528  0.4207 -1.4535  0.2409
  123OSM   H18U13069   2.112   5.145   8.376  0.4310  2.2654  1.8827
  123OSM    C1F13070   1.576   5.305   6.836 -0.5297 -0.4753 -0.2072
  123OSM     OF13071   1.511   5.260   6.740 -0.1517 -0.0571 -0.6168
  123OSM    C2F13072   1.511   5.348   6.975 -0.0621  0.0133 -0.1146
  123OSM    H2F13073   1.452   5.441   6.959 -3.1084 -2.0793 -2.0246
  123OSM    H2G13074   1.599   5.375   7.038 -0.3241 -2.5573  1.5096
  123OSM    C3F13075   1.432   5.232   7.034  0.2568  0.0588  0.5804
  123OSM    H3F13076   1.506   5.151   7.050  0.1841 -0.0440  0.3930
  123OSM    H3G13077   1.351   5.200   6.964  0.7500  1.7884 -0.8557
  123OSM    C4F13078   1.360   5.275   7.166 -0.0194 -0.2909  0.3589
  123OSM    H4F13079   1.316   5.189   7.221  0.6946 -1.6649 -1.1671
  123OSM    H4G13080   1.281   5.352   7.152  1.9853  2.0903  1.2472
  123OSM    C5F13081   1.444   5.340   7.277 -0.0184 -0.9036 -0.2135
  123OSM    H5F13082   1.486   5.441   7.254  2.0252 -1.6832 -0.0883
  123OSM    H5G13083   1.531   5.275   7.298  1.6752  1.1308 -0.5413
  123OSM    C6F13084   1.373   5.344   7.409  0.1138  0.1483 -0.3436
  123OSM    H6F13085   1.359   5.244   7.456 -0.3514  0.1351 -0.5025
  123OSM    H6G13086   1.271   5.386   7.398  0.9618  2.9149  1.2801
  123OSM    C7F13087   1.444   5.426   7.517 -0.2944  0.1692 -0.1145
  123OSM    H7F13088   1.453   5.532   7.484  0.6781  0.2194  0.2742
  123OSM    H7G13089   1.541   5.383   7.548 -2.1900 -2.7880  2.3346
  123OSM    C8F13090   1.355   5.435   7.647 -0.5433 -0.2677  0.7555
  123OSM    H8F13091   1.254   5.463   7.610 -0.4025  0.3486  0.8327
  123OSM    H8G13092   1.398   5.517   7.709  2.4738  0.7323 -2.3299
  123OSM    C9F13093   1.356   5.300   7.726  0.2613 -0.1703 -0.4745
  123OSM    H9F13094   1.296   5.219   7.682 -2.4150  1.8591 -0.8043
  123OSM   C10F13095   1.415   5.283   7.844 -0.2345 -0.2972 -0.2762
  123OSM   H10F13096   1.410   5.182   7.888 -1.9152  0.7345  2.0731
  123OSM   C11F13097   1.502   5.377   7.926  0.3173  0.0626  0.8121
  123OSM   H11F13098   1.472   5.481   7.899 -3.5553 -1.4848 -1.7392
  123OSM   H11G13099   1.608   5.364   7.896 -0.1302 -0.1706 -0.7426
  123OSM   C12F13100   1.473   5.365   8.073 -0.3908 -0.2573  0.1763
  123OSM   H12F13101   1.511   5.272   8.119 -2.6394 -1.5540 -0.4548
  123OSM   H12G13102   1.363   5.354   8.084 -0.0673 -3.1371  1.3064
  123OSM   C13F13103   1.527   5.484   8.151 -0.2446 -0.0481 -0.7810
  123OSM   H13F13104   1.512   5.576   8.090  1.1114 -0.1789 -1.3530
  123OSM   H13G13105   1.636   5.472   8.167 -0.8198 -1.0032  3.5281
  123OSM   C14F13106   1.462   5.505   8.292  0.3072 -0.4729 -0.0160
  123OSM   H14F13107   1.351   5.498   8.292  0.4067 -3.5876 -0.4607
  123OSM   H14G13108   1.495   5.609   8.312 -1.1685  0.6384 -2.8245
  123OSM   C15F13109   1.515   5.397   8.392  0.4181  0.0974  0.3024
  123OSM   H15F13110   1.625   5.415   8.398  0.4566  0.0431 -0.1706
  123OSM   H15G13111   1.486   5.293   8.366  0.7784 -0.4210  1.8564
  123OSM   C16F13112   1.458   5.424   8.534  0.1395 -0.3489 -0.0250
  123OSM   H16F13113   1.461   5.532   8.561 -0.6823  0.2475 -2.0736
  123OSM   H16G13114   1.515   5.359   8.604 -0.3554 -1.1145 -0.3176
  123OSM   C17F13115   1.310   5.398   8.554 -0.7042  1.0105  0.0760
  123OSM   H17F13116   1.302   5.287   8.544 -0.1247  0.9666  0.0716
  123OSM   H17G13117   1.257   5.450   8.472  0.2389 -2.2693 -2.8691
  123OSM   C18F13118   1.256   5.419   8.690  0.5101  0.0130 -1.0866
  123OSM   H18F13119   1.305   5.358   8.769 -2.3883 -0.9478  0.1193
  123OSM   H18G13120   1.146   5.401   8.691  0.4408  0.3855 -1.5781
  123OSM   H18H13121   1.256   5.529   8.705 -1.1485  0.0271 -0.9496
  124OSM      N13122   1.393   2.497   6.269  0.2523  0.0237 -0.5281
  124OSM    C1513123   1.400   2.544   6.405 -0.0684  0.3664 -0.4954
  124OSM   H15A13124   1.352   2.476   6.474  0.7411  1.3514  1.0952
  124OSM   H15B13125   1.337   2.631   6.418 -0.2883 -0.1354  2.5414
  124OSM   H15C13126   1.499   2.573   6.437  0.9791 -2.6020 -0.7290
  124OSM    C1413127   1.448   2.607   6.178  0.4088 -0.0725  0.4453
  124OSM   H14A13128   1.380   2.691   6.181 -1.4755 -1.5217  2.9856
  124OSM   H14B13129   1.463   2.572   6.077 -1.1458  0.4698 -0.0044
  124OSM   H14C13130   1.547   2.632   6.211 -0.2708 -0.1905  2.8099
  124OSM    C1313131   1.489   2.383   6.254  0.9248 -0.7609 -0.1950
  124OSM   H13A13132   1.487   2.354   6.150  1.5958 -1.0011 -0.1506
  124OSM   H13B13133   1.464   2.293   6.308 -0.0923 -0.7996 -0.7068
  124OSM   H13C13134   1.584   2.407   6.299  0.9464 -3.3731  1.3316
  124OSM    C1213135   1.242   2.466   6.228 -0.1184 -1.0014 -0.1743
  124OSM   H12A13136   1.208   2.390   6.297 -1.2885  0.1316  0.5505
  124OSM   H12B13137   1.242   2.416   6.132 -0.4986  0.6512 -1.0750
  124OSM    C1113138   1.137   2.579   6.222 -0.4984  0.5335  0.0204
  124OSM   H11A13139   1.131   2.622   6.325 -0.4806 -0.1269  0.2986
  124OSM   H11B13140   1.036   2.537   6.206 -0.4076  0.8650 -1.5311
  124OSM      P13141   1.084   2.788   6.082  0.2303  0.2459 -0.1064
  124OSM    O1313142   1.155   2.893   6.009 -0.4439  0.2259  0.1978
  124OSM    O1413143   0.963   2.728   6.018  0.0788 -0.1198 -0.2945
  124OSM    O1113144   1.041   2.849   6.227  1.1788  0.4704  0.5678
  124OSM    O1213145   1.176   2.668   6.120 -0.2679 -0.0729  0.2480
  124OSM    C1S13146   1.120   2.949   6.288 -0.2706  0.5820  0.3534
  124OSM    H1S13147   1.105   3.045   6.234 -2.2484 -0.2629 -0.6940
  124OSM    H1T13148   1.225   2.915   6.295 -0.1960  0.3276 -1.5216
  124OSM     NF13149   1.176   3.064   6.494 -0.0019 -0.5567  0.2199
  124OSM    HNF13150   1.248   3.030   6.554  0.8157  0.9131  0.1204
  124OSM    C2S13151   1.084   2.970   6.441 -0.4443  0.4131  0.5573
  124OSM    H2S13152   0.983   3.016   6.452 -2.1345 -3.0827  1.0958
  124OSM    C3S13153   1.061   2.832   6.520  0.3145  0.5835 -0.2617
  124OSM    H3S13154   1.147   2.764   6.508 -0.6717 -1.5989  3.4279
  124OSM     O313155   0.942   2.761   6.471 -0.3526 -0.8369  0.2370
  124OSM    HO313156   0.961   2.783   6.380  3.8642 -0.2962  1.0406
  124OSM    C4S13157   1.049   2.853   6.670  0.4028  0.0471  0.1571
  124OSM    H4S13158   1.141   2.810   6.715  1.4037  1.7870 -0.1342
  124OSM    C5S13159   0.947   2.897   6.746 -0.1433 -0.0221 -0.2677
  124OSM    H5S13160   0.857   2.934   6.693  0.2331 -0.2609 -1.0928
  124OSM    C6S13161   0.944   2.912   6.896  0.3710 -0.1001  0.4969
  124OSM    H6S13162   0.839   2.906   6.931  0.4952  0.1112  0.9128
  124OSM    H6T13163   0.984   3.009   6.934  0.6615  0.0862 -0.2794
  124OSM    C7S13164   1.022   2.804   6.978  0.8350 -0.1754  0.5182
  124OSM    H7S13165   1.130   2.805   6.954  0.3115 -2.0852 -2.3924
  124OSM    H7T13166   0.978   2.712   6.935  0.6221  0.0891  0.1671
  124OSM    C8S13167   0.996   2.808   7.126 -0.0241  0.4017  0.2232
  124OSM    H8S13168   0.888   2.787   7.141 -0.1647  0.9331 -0.0304
  124OSM    H8T13169   1.020   2.905   7.174 -0.4015  1.3918 -1.5221
  124OSM    C9S13170   1.083   2.704   7.194 -0.1906  0.0207 -0.0520
  124OSM    H9S13171   1.191   2.725   7.180 -0.4763  1.3506 -0.3900
  124OSM    H9T13172   1.054   2.613   7.138 -0.0142 -0.1880  0.1947
  124OSM   C10S13173   1.050   2.676   7.342 -0.4225 -0.1847 -0.1651
  124OSM   H10S13174   1.107   2.587   7.378  2.1244  2.1510  1.9698
  124OSM   H10T13175   0.941   2.658   7.359  0.0067 -0.7979  2.4327
  124OSM   C11S13176   1.070   2.790   7.435 -0.2071 -0.1713 -0.6266
  124OSM   H11S13177   0.991   2.866   7.414 -0.6783 -0.9384 -1.7383
  124OSM   H11T13178   1.164   2.843   7.411  1.1863 -2.0282  0.4669
  124OSM   C12S13179   1.082   2.747   7.582  0.9782  0.2891  0.2750
  124OSM   H12S13180   1.148   2.658   7.589 -0.8935 -1.2892 -1.1139
  124OSM   H12T13181   0.983   2.706   7.610 -0.1121  0.5001 -2.9463
  124OSM   C13S13182   1.121   2.854   7.683  0.5219 -0.3583  1.1122
  124OSM   H13S13183   1.032   2.921   7.691 -0.4178 -1.5948  1.4203
  124OSM   H13T13184   1.219   2.896   7.652  0.5604 -1.7992 -0.9182
  124OSM   C14S13185   1.126   2.801   7.821 -0.1968 -0.2353  0.6901
  124OSM   H14S13186   1.192   2.714   7.840  0.4656  0.4995  1.9321
  124OSM   H14T13187   1.025   2.769   7.855 -1.0354  0.7068 -0.7871
  124OSM   C15S13188   1.179   2.911   7.913  0.5939  0.3785 -0.1065
  124OSM   H15S13189   1.237   2.977   7.846 -0.1262  1.7236  0.5586
  124OSM   H15T13190   1.245   2.861   7.987  3.0201 -0.0233 -2.3917
  124OSM   C16S13191   1.067   2.988   7.986  0.3907 -0.4333  0.6005
  124OSM   H16S13192   1.015   2.915   8.052  1.0580 -0.6440  0.8979
  124OSM   H16T13193   0.992   3.040   7.922 -0.3824  0.4743  2.1743
  124OSM   C17S13194   1.115   3.095   8.072  0.1461  0.1346 -0.3320
  124OSM   H17S13195   1.025   3.153   8.101 -0.7809 -0.8637 -1.1604
  124OSM   H17T13196   1.174   3.168   8.012 -1.8311  0.0017 -2.5698
  124OSM   C18S13197   1.182   3.055   8.206  0.0052  0.2397  0.4557
  124OSM   H18S13198   1.170   3.142   8.274  0.0905  1.2705 -0.8121
  124OSM   H18T13199   1.290   3.045   8.183 -0.0410 -0.0556  0.3670
  124OSM   H18U13200   1.127   2.969   8.249 -0.8471  0.0792 -0.9089
  124OSM    C1F13201   1.188   3.189   6.451  0.1096 -0.4419  0.7010
  124OSM     OF13202   1.110   3.231   6.364  0.0095 -0.0078  0.6093
  124OSM    C2F13203   1.312   3.266   6.494  0.3861  0.2595 -0.0341
  124OSM    H2F13204   1.388   3.284   6.416  0.2112 -2.0911 -0.8194
  124OSM    H2G13205   1.362   3.211   6.577 -0.7131 -1.1193 -0.2538
  124OSM    C3F13206   1.270   3.407   6.536  0.4854 -0.5554  0.7096
  124OSM    H3F13207   1.213   3.465   6.460  1.5083 -1.0388 -0.4570
  124OSM    H3G13208   1.367   3.460   6.543  1.2058 -1.9908  2.3032
  124OSM    C4F13209   1.182   3.417   6.667  0.5766 -0.6593  0.4908
  124OSM    H4F13210   1.083   3.377   6.637 -0.2121 -0.0584  2.1785
  124OSM    H4G13211   1.181   3.526   6.687  0.5999 -0.2420 -1.5595
  124OSM    C5F13212   1.230   3.331   6.785 -0.0562  0.1290  0.5871
  124OSM    H5F13213   1.336   3.358   6.805 -0.9136  3.7008  0.9590
  124OSM    H5G13214   1.213   3.223   6.763  0.4818  0.1884 -0.1397
  124OSM    C6F13215   1.161   3.360   6.921 -0.2849 -0.6647  0.1638
  124OSM    H6F13216   1.191   3.280   6.993 -0.7186  0.5051  1.6966
  124OSM    H6G13217   1.051   3.352   6.915 -0.2877 -0.4453 -0.0770
  124OSM    C7F13218   1.208   3.493   6.981 -0.5416 -0.2195 -0.0744
  124OSM    H7F13219   1.193   3.577   6.910 -1.4348 -0.0188  0.3307
  124OSM    H7G13220   1.318   3.481   6.992 -0.7215 -1.0319  1.0342
  124OSM    C8F13221   1.137   3.537   7.115  0.0673 -1.0280  0.0187
  124OSM    H8F13222   1.026   3.532   7.108 -0.0525  0.4294  0.5500
  124OSM    H8G13223   1.160   3.643   7.139 -1.2353 -0.9245  0.9140
  124OSM    C9F13224   1.181   3.449   7.223  0.4008 -0.2129 -0.1176
  124OSM    H9F13225   1.245   3.363   7.195 -0.5981 -0.9064 -0.3404
  124OSM   C10F13226   1.133   3.463   7.348  0.1473  0.1330  0.3934
  124OSM   H10F13227   1.165   3.387   7.421  1.8364 -0.0639 -0.5183
  124OSM   C11F13228   1.036   3.569   7.407 -0.0874  0.0674  1.0848
  124OSM   H11F13229   0.930   3.538   7.403  0.1387 -0.6488  0.2848
  124OSM   H11G13230   1.040   3.658   7.340 -3.1501  0.8127  1.7642
  124OSM   C12F13231   1.096   3.597   7.547  0.1287 -0.1467  0.7684
  124OSM   H12F13232   1.075   3.699   7.585  0.4855  0.0206  0.5161
  124OSM   H12G13233   1.205   3.577   7.548 -0.2093 -2.1790  1.5266
  124OSM   C13F13234   1.035   3.504   7.657 -0.1264 -0.2096 -0.7665
  124OSM   H13F13235   1.050   3.399   7.625 -3.7586 -1.2064  0.3605
  124OSM   H13G13236   0.926   3.519   7.666  0.1208  0.6424  1.4604
  124OSM   C14F13237   1.113   3.522   7.794  0.9864  0.3035  0.4214
  124OSM   H14F13238   1.106   3.625   7.834 -1.5070  0.2587  0.2361
  124OSM   H14G13239   1.214   3.478   7.779 -0.2307 -2.6328  0.1816
  124OSM   C15F13240   1.045   3.426   7.896 -0.5453  0.2183 -0.1143
  124OSM   H15F13241   1.109   3.422   7.986 -2.1045 -0.4023  1.0028
  124OSM   H15G13242   1.048   3.323   7.853  1.1102 -0.5648  1.7534
  124OSM   C16F13243   0.903   3.445   7.929  0.5158  0.1752  0.1494
  124OSM   H16F13244   0.845   3.441   7.835  0.5841  0.6687  0.0841
  124OSM   H16G13245   0.893   3.549   7.967  1.8580  1.1064 -1.8370
  124OSM   C17F13246   0.840   3.347   8.034  0.1007  0.0213  0.4746
  124OSM   H17F13247   0.907   3.348   8.122 -0.2617  1.9502  0.7720
  124OSM   H17G13248   0.840   3.242   8.000  0.8949 -0.3109  1.4493
  124OSM   C18F13249   0.699   3.401   8.068 -0.2269  0.5642 -0.0580
  124OSM   H18F13250   0.716   3.483   8.141  1.2697 -1.0022  1.4574
  124OSM   H18G13251   0.651   3.326   8.134  1.5058 -1.1107 -0.6190
  124OSM   H18H13252   0.640   3.424   7.977  0.0199  0.4264 -0.2556
  125OSM      N13253   6.548   0.930   6.162  0.0368  0.3875 -0.1664
  125OSM    C1513254   6.450   0.820   6.114 -0.2213  0.1346 -0.1130
  125OSM   H15A13255   6.424   0.839   6.011  0.1505  1.1852 -0.0216
  125OSM   H15B13256   6.353   0.823   6.160 -0.1506  2.7087 -0.0255
  125OSM   H15C13257   6.487   0.718   6.118  1.8871  0.6972 -2.4889
  125OSM    C1413258   6.662   0.926   6.072 -0.6654 -0.5646 -0.4477
  125OSM   H14A13259   6.641   0.962   5.972 -5.1027  0.8420  0.7592
  125OSM   H14B13260   6.693   0.824   6.056  0.0785 -0.7020  1.5633
  125OSM   H14C13261   6.750   0.976   6.110 -0.2810 -2.0547  0.7468
  125OSM    C1313262   6.475   1.056   6.155 -0.2090 -0.5368  0.3159
  125OSM   H13A13263   6.441   1.057   6.052 -0.2061  0.6501  0.3142
  125OSM   H13B13264   6.541   1.140   6.172 -1.4306  0.7825 -1.1145
  125OSM   H13C13265   6.384   1.062   6.212 -0.1891 -0.5863  0.3523
  125OSM    C1213266   6.588   0.904   6.300  0.0653  0.4617  1.2280
  125OSM   H12A13267   6.630   0.804   6.300  1.3848  0.9830 -0.0915
  125OSM   H12B13268   6.502   0.896   6.366  1.4503 -0.3359  3.0506
  125OSM    C1113269   6.678   1.010   6.361  0.1143  0.8854  0.1268
  125OSM   H11A13270   6.674   0.994   6.471 -0.7108 -2.1968 -0.2762
  125OSM   H11B13271   6.622   1.105   6.347  1.6879  1.6774 -1.2277
  125OSM      P13272   6.917   0.922   6.357  0.1220  0.2589  0.0331
  125OSM    O1313273   6.871   0.792   6.314 -0.1093 -0.5353  0.4203
  125OSM    O1413274   7.050   0.962   6.309 -0.1073  0.6409 -0.1054
  125OSM    O1113275   6.904   0.932   6.511  0.5619  0.5558 -0.1473
  125OSM    O1213276   6.815   1.026   6.305  0.1797 -0.7970  0.1389
  125OSM    C1S13277   6.941   1.054   6.586  0.1554 -0.2239  0.1463
  125OSM    H1S13278   6.878   1.138   6.550  1.7874  1.0625  0.1117
  125OSM    H1T13279   7.040   1.102   6.567 -0.9546  2.3277  0.3352
  125OSM     NF13280   6.920   1.176   6.794  0.1286 -0.0726 -0.5119
  125OSM    HNF13281   6.991   1.199   6.860 -0.6487  1.5846 -0.2145
  125OSM    C2S13282   6.919   1.042   6.736  0.3658 -0.0903  0.1749
  125OSM    H2S13283   6.822   0.993   6.760 -0.1038 -0.1545 -1.6731
  125OSM    C3S13284   7.022   0.948   6.793 -0.7362  0.3226 -0.5837
  125OSM    H3S13285   7.119   1.000   6.774 -1.3108  1.1656 -1.2551
  125OSM     O313286   7.040   0.820   6.733  0.1543  0.3855 -0.1750
  125OSM    HO313287   6.984   0.813   6.655 -0.3923 -1.2150  0.3255
  125OSM    C4S13288   6.999   0.927   6.939 -0.4929  0.0775 -0.5539
  125OSM    H4S13289   7.046   1.000   7.007  2.1859 -2.6447  0.7946
  125OSM    C5S13290   6.930   0.830   6.998  0.2173 -0.3310  0.8209
  125OSM    H5S13291   6.891   0.755   6.927  1.8267  1.6068 -2.3373
  125OSM    C6S13292   6.898   0.808   7.143  0.2354  0.2353  0.6571
  125OSM    H6S13293   6.951   0.716   7.176  2.0737  0.7736 -0.6055
  125OSM    H6T13294   6.791   0.785   7.158  0.5998 -1.1386  1.2733
  125OSM    C7S13295   6.951   0.916   7.238  0.0525 -0.2546 -0.0110
  125OSM    H7S13296   6.918   1.017   7.206  1.7989  1.2384  2.5989
  125OSM    H7T13297   7.062   0.920   7.233 -0.0290  1.6704 -1.5386
  125OSM    C8S13298   6.905   0.891   7.380  0.4075 -0.7149 -0.7066
  125OSM    H8S13299   6.960   0.804   7.423 -0.1458 -0.3864  0.6978
  125OSM    H8T13300   6.794   0.884   7.381  0.1274  2.4265  0.4153
  125OSM    C9S13301   6.939   1.014   7.471  0.1708  0.3335 -0.6074
  125OSM    H9S13302   6.865   1.093   7.446  0.1815  1.0692  1.5018
  125OSM    H9T13303   7.041   1.049   7.445  0.7768 -0.4713  0.6460
  125OSM   C10S13304   6.952   0.981   7.623 -0.1503  0.2325  0.4363
  125OSM   H10S13305   6.942   1.070   7.689 -0.5719  1.0481 -0.6971
  125OSM   H10T13306   7.053   0.934   7.631 -0.7702 -1.6382 -1.8010
  125OSM   C11S13307   6.842   0.882   7.671  0.1100 -0.0498 -1.0365
  125OSM   H11S13308   6.866   0.782   7.628 -0.5976 -0.8203  0.3245
  125OSM   H11T13309   6.743   0.920   7.639 -0.2882  0.9296  1.2074
  125OSM   C12S13310   6.823   0.875   7.821 -0.1260  0.1112  0.2087
  125OSM   H12S13311   6.760   0.785   7.841 -0.2125 -0.1764 -1.2186
  125OSM   H12T13312   6.773   0.970   7.850 -0.3044  0.0671  0.0538
  125OSM   C13S13313   6.957   0.866   7.895  0.0824  0.1141 -0.0021
  125OSM   H13S13314   7.009   0.964   7.894  1.0930 -0.4048 -0.5860
  125OSM   H13T13315   7.014   0.786   7.843 -2.1474 -1.0340 -0.8191
  125OSM   C14S13316   6.936   0.824   8.042 -0.4538 -0.2670 -1.1155
  125OSM   H14S13317   7.033   0.803   8.091 -0.6650 -0.6716 -0.8645
  125OSM   H14T13318   6.870   0.735   8.045 -1.3919  0.3846 -1.5471
  125OSM   C15S13319   6.864   0.922   8.134  0.3027 -0.1896  0.2302
  125OSM   H15S13320   6.873   0.877   8.235 -0.7873  0.5447  0.6746
  125OSM   H15T13321   6.758   0.913   8.102  0.1393  1.5776  0.1622
  125OSM   C16S13322   6.909   1.070   8.133 -0.4767 -0.4723  0.0551
  125OSM   H16S13323   6.893   1.109   8.030 -0.6985 -0.5598  0.0559
  125OSM   H16T13324   7.018   1.072   8.155  0.0275  0.9709 -2.1753
  125OSM   C17S13325   6.830   1.166   8.226 -0.1348 -0.2583 -0.1571
  125OSM   H17S13326   6.727   1.125   8.223  0.8958 -3.1441  0.8696
  125OSM   H17T13327   6.841   1.273   8.198  2.8251 -0.5358 -0.4123
  125OSM   C18S13328   6.882   1.155   8.372 -0.4090 -0.1126 -0.4991
  125OSM   H18S13329   6.842   1.243   8.427 -0.2889 -2.9997  4.8042
  125OSM   H18T13330   6.993   1.163   8.376 -0.5621  2.9171  0.8989
  125OSM   H18U13331   6.839   1.068   8.426  0.3854  0.0069  0.3449
  125OSM    C1F13332   6.822   1.271   6.772 -0.2972  0.6249  0.3934
  125OSM     OF13333   6.736   1.260   6.683  0.1278  0.7123  0.1623
  125OSM    C2F13334   6.839   1.390   6.856  0.2652  0.0089  0.0066
  125OSM    H2F13335   6.851   1.479   6.790 -1.4202  0.0596 -0.3011
  125OSM    H2G13336   6.931   1.384   6.917  1.3675  2.2051 -1.3260
  125OSM    C3F13337   6.717   1.407   6.948  0.0985 -0.4805 -0.0114
  125OSM    H3F13338   6.698   1.310   6.999  3.0399 -0.7383  0.8302
  125OSM    H3G13339   6.632   1.423   6.879 -1.3233  0.8908  1.9827
  125OSM    C4F13340   6.709   1.536   7.042  0.3165  0.3708  0.3347
  125OSM    H4F13341   6.602   1.554   7.065  0.0951 -0.4708  0.0083
  125OSM    H4G13342   6.740   1.623   6.981 -0.1174  0.6390  0.4957
  125OSM    C5F13343   6.796   1.520   7.164  0.3211 -0.1064 -0.2359
  125OSM    H5F13344   6.897   1.478   7.143  1.8494  2.6194  1.1743
  125OSM    H5G13345   6.755   1.445   7.234  2.6628 -1.6586 -0.4150
  125OSM    C6F13346   6.817   1.653   7.241 -0.0093  0.1875  0.4215
  125OSM    H6F13347   6.713   1.686   7.263 -0.1925 -0.8072  1.1272
  125OSM    H6G13348   6.868   1.718   7.167 -1.8314 -0.0298 -1.0890
  125OSM    C7F13349   6.882   1.633   7.380 -0.4466  0.0792 -0.0845
  125OSM    H7F13350   6.992   1.618   7.383 -0.4859 -0.1927 -0.0037
  125OSM    H7G13351   6.825   1.548   7.423 -0.8235  0.8638  1.0025
  125OSM    C8F13352   6.850   1.759   7.463 -0.1538 -1.0559  0.0508
  125OSM    H8F13353   6.873   1.750   7.572  0.4385 -0.0018  0.0149
  125OSM    H8G13354   6.740   1.775   7.472 -0.1764  0.5561 -2.3316
  125OSM    C9F13355   6.925   1.879   7.406 -0.1140  0.6414  0.1721
  125OSM    H9F13356   6.904   1.893   7.299 -1.4586 -0.5092  0.2599
  125OSM   C10F13357   7.033   1.938   7.458 -0.9462 -0.4295 -0.6639
  125OSM   H10F13358   7.102   1.999   7.398 -1.3330  1.9459  1.1472
  125OSM   C11F13359   7.091   1.921   7.602  0.3135 -0.1801 -0.3236
  125OSM   H11F13360   7.176   1.851   7.618  1.7198  1.6309  0.4721
  125OSM   H11G13361   7.012   1.887   7.672  1.6006 -0.9197  0.8309
  125OSM   C12F13362   7.122   2.057   7.666 -0.6055 -0.4064  0.9977
  125OSM   H12F13363   7.029   2.113   7.689 -1.3477  0.1485 -2.7691
  125OSM   H12G13364   7.181   2.120   7.596  0.5311 -1.8059  0.6544
  125OSM   C13F13365   7.219   2.060   7.783 -0.3820  0.0625  0.8885
  125OSM   H13F13366   7.317   2.019   7.748 -1.4232  0.2150 -2.4952
  125OSM   H13G13367   7.170   2.001   7.864 -1.7164  1.8773  1.4556
  125OSM   C14F13368   7.240   2.205   7.836 -0.8008  0.2106  0.1784
  125OSM   H14F13369   7.271   2.275   7.756 -0.8971 -0.0100 -0.0518
  125OSM   H14G13370   7.322   2.208   7.911 -0.8789 -1.2751  0.3583
  125OSM   C15F13371   7.113   2.277   7.890  0.0795 -0.8203 -0.5113
  125OSM   H15F13372   7.052   2.206   7.950 -1.4992 -0.8711 -2.0968
  125OSM   H15G13373   7.053   2.310   7.803  0.1818  0.7736 -0.0161
  125OSM   C16F13374   7.151   2.403   7.979  0.4168  0.6785 -0.0521
  125OSM   H16F13375   7.118   2.491   7.920  2.2002  0.3451 -1.6554
  125OSM   H16G13376   7.261   2.410   7.963  0.5940 -0.1672  0.7186
  125OSM   C17F13377   7.113   2.401   8.128 -0.3154 -0.0461  0.2398
  125OSM   H17F13378   7.012   2.359   8.147 -0.6908  1.5373  1.9333
  125OSM   H17G13379   7.105   2.507   8.158 -0.9337 -0.6730  2.4696
  125OSM   C18F13380   7.215   2.320   8.214 -0.3675 -0.2049  0.6001
  125OSM   H18F13381   7.208   2.213   8.185 -0.9325  0.1902 -0.8209
  125OSM   H18G13382   7.192   2.320   8.322 -3.1957 -2.2046  0.0925
  125OSM   H18H13383   7.321   2.342   8.188 -0.0091 -2.2284  0.1764
  126OSM      N13384   3.173   6.225   6.696 -0.0270  0.3639  0.0286
  126OSM    C1513385   3.263   6.346   6.657 -0.0532  0.3123 -0.4043
  126OSM   H15A13386   3.249   6.372   6.553  0.8488  1.9236 -0.1480
  126OSM   H15B13387   3.365   6.316   6.678 -0.6553 -1.9123 -0.3737
  126OSM   H15C13388   3.239   6.428   6.722 -1.5288 -0.3216 -0.1003
  126OSM    C1413389   3.228   6.107   6.620  0.5863  0.1055  0.7962
  126OSM   H14A13390   3.308   6.067   6.682  1.9159  1.0279 -0.2688
  126OSM   H14B13391   3.280   6.135   6.530  1.7491 -2.2414  0.6474
  126OSM   H14C13392   3.163   6.028   6.586  0.5429  0.1302  0.8209
  126OSM    C1313393   3.178   6.201   6.839  0.2100 -0.4161  0.6057
  126OSM   H13A13394   3.280   6.191   6.871  0.1059 -2.2514  0.4598
  126OSM   H13B13395   3.120   6.113   6.859  2.9092 -2.7407 -1.0299
  126OSM   H13C13396   3.136   6.285   6.893 -1.6645 -1.1739  0.3863
  126OSM    C1213397   3.031   6.260   6.661  0.6264  0.3332  0.0526
  126OSM   H12A13398   3.019   6.284   6.557  0.2621 -0.4296 -0.0890
  126OSM   H12B13399   3.004   6.351   6.712  1.9377  0.2904  0.8546
  126OSM    C1113400   2.918   6.164   6.701 -0.2036  0.6979  0.4168
  126OSM   H11A13401   2.819   6.205   6.673 -0.3903  0.5535  0.8604
  126OSM   H11B13402   2.913   6.154   6.812  2.3680  2.0847  0.7305
  126OSM      P13403   2.863   5.983   6.534  0.7473 -0.0760  0.1029
  126OSM    O1313404   2.849   6.098   6.439 -0.1829 -0.2526 -0.0726
  126OSM    O1413405   2.922   5.858   6.481 -0.6504  0.1613 -0.3303
  126OSM    O1113406   2.728   5.952   6.604  0.2542  0.3406  0.0254
  126OSM    O1213407   2.948   6.034   6.647 -0.5319 -0.1312 -0.0039
  126OSM    C1S13408   2.716   5.840   6.700  0.1320  0.4529  0.2896
  126OSM    H1S13409   2.797   5.765   6.685 -0.1788  0.1885 -0.0863
  126OSM    H1T13410   2.625   5.781   6.677 -0.2070  0.1550  2.2306
  126OSM     NF13411   2.711   5.758   6.932  0.0283 -0.3676  0.1389
  126OSM    HNF13412   2.621   5.739   6.969 -0.6845  3.0873  0.5071
  126OSM    C2S13413   2.719   5.879   6.851  0.4168 -0.4564  0.3275
  126OSM    H2S13414   2.811   5.940   6.864  0.0653  0.2980 -0.5498
  126OSM    C3S13415   2.592   5.959   6.883  0.7425 -0.6357  0.3425
  126OSM    H3S13416   2.505   5.890   6.890  1.3416 -1.5891 -1.2770
  126OSM     O313417   2.561   6.065   6.788 -0.0796 -0.6099 -0.3997
  126OSM    HO313418   2.625   6.059   6.716  0.9512  1.0913  0.3242
  126OSM    C4S13419   2.608   6.023   7.020  0.5320 -0.6360 -0.5559
  126OSM    H4S13420   2.661   6.119   7.013 -0.1967 -0.2951 -1.7817
  126OSM    C5S13421   2.560   5.976   7.141 -0.4378  0.3453  0.2339
  126OSM    H5S13422   2.509   5.879   7.151  1.8424 -0.8167  1.4423
  126OSM    C6S13423   2.593   6.044   7.270 -0.0435  0.3434  0.0767
  126OSM    H6S13424   2.513   6.118   7.291 -0.0901  0.4671 -0.5199
  126OSM    H6T13425   2.697   6.085   7.273  0.4499 -0.8667  0.6637
  126OSM    C7S13426   2.601   5.947   7.383  0.1423 -0.2439 -0.2001
  126OSM    H7S13427   2.690   5.881   7.386 -0.7886 -1.5295  1.1358
  126OSM    H7T13428   2.513   5.879   7.379 -1.3112  1.5016  0.5137
  126OSM    C8S13429   2.594   6.019   7.527 -0.1960  0.1465 -0.1099
  126OSM    H8S13430   2.646   6.117   7.528 -1.0233  0.5922  0.0099
  126OSM    H8T13431   2.638   5.940   7.591  1.5965  1.4428  0.3082
  126OSM    C9S13432   2.448   6.038   7.575 -0.0892 -0.5808  0.4364
  126OSM    H9S13433   2.394   6.088   7.492  2.1236 -1.4416 -1.6344
  126OSM    H9T13434   2.452   6.100   7.667  1.1185 -0.4324  0.3029
  126OSM   C10S13435   2.374   5.912   7.625 -0.3265 -0.5945  0.1417
  126OSM   H10S13436   2.451   5.876   7.696  0.5147 -0.9761 -0.9293
  126OSM   H10T13437   2.357   5.843   7.540 -1.6065  1.2627 -1.1811
  126OSM   C11S13438   2.235   5.946   7.693  0.2481  0.3757 -0.1004
  126OSM   H11S13439   2.204   5.852   7.744  1.1897  1.1308  1.9751
  126OSM   H11T13440   2.159   5.959   7.613  0.0192 -0.1907  0.0220
  126OSM   C12S13441   2.229   6.059   7.792  0.4700 -0.3768 -0.1537
  126OSM   H12S13442   2.120   6.068   7.811  0.7732 -0.7632  2.0491
  126OSM   H12T13443   2.262   6.157   7.751  0.8565 -0.9363 -1.2275
  126OSM   C13S13444   2.294   6.030   7.927 -0.5060  0.2738  0.3041
  126OSM   H13S13445   2.405   6.040   7.925 -0.3999  0.2548  2.9511
  126OSM   H13T13446   2.275   5.923   7.950 -0.0474  0.3140  0.9190
  126OSM   C14S13447   2.233   6.112   8.040 -0.0596  0.7179 -0.2172
  126OSM   H14S13448   2.130   6.073   8.058  0.4527 -1.1906 -1.1275
  126OSM   H14T13449   2.230   6.219   8.010 -0.3768  1.1398  1.2277
  126OSM   C15S13450   2.306   6.082   8.175 -0.0002  0.5088 -0.4303
  126OSM   H15S13451   2.411   6.108   8.150  0.2407  0.3372  0.3692
  126OSM   H15T13452   2.300   5.974   8.202  1.8872  1.1610  3.2967
  126OSM   C16S13453   2.259   6.170   8.287  0.4163  0.2829 -1.2026
  126OSM   H16S13454   2.164   6.134   8.331  0.1396 -0.3489 -2.2944
  126OSM   H16T13455   2.251   6.280   8.276  1.5526  0.3883 -1.1035
  126OSM   C17S13456   2.360   6.164   8.405 -0.0718 -0.6659 -0.2882
  126OSM   H17S13457   2.460   6.178   8.359 -0.4046  1.1357 -0.5353
  126OSM   H17T13458   2.354   6.064   8.453  4.1179  0.0754  2.2981
  126OSM   C18S13459   2.328   6.272   8.513 -0.2805 -0.4459  0.1887
  126OSM   H18S13460   2.301   6.364   8.457  2.5934 -0.5606 -1.5781
  126OSM   H18T13461   2.423   6.277   8.570 -0.0655 -1.5268 -0.0427
  126OSM   H18U13462   2.234   6.245   8.567 -0.2955  1.4314  1.1670
  126OSM    C1F13463   2.808   5.667   6.928 -0.1511  1.5484  1.0019
  126OSM     OF13464   2.920   5.690   6.881 -0.1305  0.3479  0.6118
  126OSM    C2F13465   2.784   5.536   6.998  0.0734 -0.7398 -0.4999
  126OSM    H2F13466   2.813   5.450   6.935  0.8849  0.9604 -2.5568
  126OSM    H2G13467   2.678   5.508   7.017  0.5043 -0.7730  2.3578
  126OSM    C3F13468   2.851   5.542   7.140 -0.2446 -0.7243 -0.4217
  126OSM    H3F13469   2.955   5.579   7.131 -0.4595  0.3438  1.2091
  126OSM    H3G13470   2.854   5.443   7.191  0.9805 -0.0754  0.8063
  126OSM    C4F13471   2.780   5.647   7.239  0.1091  0.5464 -0.4227
  126OSM    H4F13472   2.671   5.626   7.231  0.4715 -0.7638 -2.9276
  126OSM    H4G13473   2.797   5.752   7.207  0.4516  0.8999  0.8395
  126OSM    C5F13474   2.823   5.621   7.385  0.7360  0.7536  0.2373
  126OSM    H5F13475   2.884   5.707   7.418  1.3527  0.1038  0.8445
  126OSM    H5G13476   2.898   5.538   7.388  0.7106  0.7439  0.6527
  126OSM    C6F13477   2.701   5.586   7.470  0.0684  0.5702 -0.2335
  126OSM    H6F13478   2.647   5.504   7.418 -0.3848  1.6066 -1.4877
  126OSM    H6G13479   2.622   5.665   7.463  1.0531  1.6334  0.2922
  126OSM    C7F13480   2.728   5.563   7.623 -0.7937  0.0582 -0.6250
  126OSM    H7F13481   2.745   5.453   7.624 -1.1448 -0.0138  1.1915
  126OSM    H7G13482   2.634   5.581   7.679 -1.2275  1.3297 -1.7010
  126OSM    C8F13483   2.843   5.657   7.678  0.3932 -0.2366 -0.0837
  126OSM    H8F13484   2.812   5.759   7.645  2.6202  0.4376 -0.2505
  126OSM    H8G13485   2.938   5.632   7.627 -0.1578  1.9018 -2.3581
  126OSM    C9F13486   2.859   5.638   7.830 -0.4226  0.4268 -0.5215
  126OSM    H9F13487   2.898   5.538   7.853 -0.0135  0.4630 -1.0314
  126OSM   C10F13488   2.823   5.725   7.925 -0.0875 -0.5009  0.0781
  126OSM   H10F13489   2.832   5.701   8.032 -1.3240  1.9229  0.8245
  126OSM   C11F13490   2.751   5.858   7.896 -0.6222  0.3428 -0.2865
  126OSM   H11F13491   2.683   5.852   7.809  0.4857 -2.2447 -1.0903
  126OSM   H11G13492   2.826   5.931   7.860 -0.4543 -0.2818 -1.2536
  126OSM   C12F13493   2.678   5.906   8.025 -0.4743 -0.7430  0.4838
  126OSM   H12F13494   2.638   5.816   8.076 -0.5523 -0.6026  0.6698
  126OSM   H12G13495   2.597   5.970   7.985 -1.0905 -0.7698  1.6766
  126OSM   C13F13496   2.770   5.986   8.114  0.0040 -0.2608 -0.0966
  126OSM   H13F13497   2.793   6.085   8.070  3.0591 -1.2774 -1.0733
  126OSM   H13G13498   2.871   5.942   8.103  0.0330  0.1279 -1.5474
  126OSM   C14F13499   2.732   5.993   8.265  0.7593 -0.2452 -0.0896
  126OSM   H14F13500   2.721   5.885   8.289 -0.0982 -0.7201 -2.3387
  126OSM   H14G13501   2.638   6.040   8.301  0.0307 -1.8699  0.1883
  126OSM   C15F13502   2.839   6.059   8.348  0.1073  0.6764  0.6955
  126OSM   H15F13503   2.829   6.167   8.326 -2.9682  0.5668  1.0418
  126OSM   H15G13504   2.937   6.009   8.337  0.1342  0.8307  0.2334
  126OSM   C16F13505   2.797   6.057   8.501 -0.6179 -0.3845  0.9388
  126OSM   H16F13506   2.881   6.050   8.574 -0.9553 -3.5316  1.1756
  126OSM   H16G13507   2.740   5.964   8.520 -1.2698 -0.2649 -0.3139
  126OSM   C17F13508   2.709   6.180   8.549 -0.0172  0.4282  0.3313
  126OSM   H17F13509   2.611   6.178   8.497 -0.3478 -1.0331  0.9672
  126OSM   H17G13510   2.774   6.268   8.528  1.5437 -1.0046 -1.3070
  126OSM   C18F13511   2.688   6.178   8.695 -0.1701  0.6554  0.0558
  126OSM   H18F13512   2.782   6.161   8.752 -1.3366 -3.8406  1.1016
  126OSM   H18G13513   2.629   6.089   8.729 -0.3673  1.0839  0.8669
  126OSM   H18H13514   2.626   6.264   8.727 -1.7946 -0.2956 -0.3889
  127OSM      N13515   6.346   4.093   6.372  0.1716  0.3849 -0.6958
  127OSM    C1513516   6.409   4.048   6.499 -0.3745  0.4502 -0.4176
  127OSM   H15A13517   6.361   4.106   6.577 -3.0540 -0.4452 -1.2810
  127OSM   H15B13518   6.517   4.052   6.492 -0.1849 -3.2816 -1.9511
  127OSM   H15C13519   6.391   3.943   6.518 -0.2682  0.8689  2.5317
  127OSM    C1413520   6.389   4.005   6.258  0.1288  0.0910  0.7167
  127OSM   H14A13521   6.464   4.048   6.193 -0.4694 -0.3409 -0.2853
  127OSM   H14B13522   6.310   3.980   6.188  0.0868  1.3317  0.2824
  127OSM   H14C13523   6.434   3.912   6.286  0.3045 -0.5034 -1.3797
  127OSM    C1313524   6.195   4.091   6.372  0.2478 -0.2772 -0.5071
  127OSM   H13A13525   6.162   4.133   6.278 -1.1713  1.5294  0.7359
  127OSM   H13B13526   6.162   4.168   6.441 -1.3530  0.1032 -1.6474
  127OSM   H13C13527   6.153   3.994   6.389  0.4234 -0.3663 -0.5759
  127OSM    C1213528   6.392   4.236   6.341 -0.3027  0.1470  0.4294
  127OSM   H12A13529   6.359   4.264   6.242 -0.1092 -0.4458  0.1911
  127OSM   H12B13530   6.500   4.233   6.342 -0.2130  0.2146 -2.1044
  127OSM    C1113531   6.356   4.358   6.433  0.4520 -0.9141 -0.5036
  127OSM   H11A13532   6.427   4.434   6.395 -0.5950 -0.5480 -1.8340
  127OSM   H11B13533   6.387   4.334   6.537 -0.1145 -1.4547 -0.4514
  127OSM      P13534   6.169   4.482   6.304 -0.6560  0.0148 -0.2242
  127OSM    O1313535   6.220   4.432   6.175 -0.1912  0.0419  0.5019
  127OSM    O1413536   6.022   4.493   6.318  0.4921 -0.0065  0.2647
  127OSM    O1113537   6.239   4.617   6.340  0.3728 -0.2741 -0.1474
  127OSM    O1213538   6.217   4.389   6.422  0.5730 -0.0245 -0.9053
  127OSM    C1S13539   6.195   4.688   6.459  0.4152  0.0093  0.7040
  127OSM    H1S13540   6.101   4.651   6.504 -2.1560  2.0417 -2.4846
  127OSM    H1T13541   6.169   4.793   6.431  0.8740 -0.2587 -0.8174
  127OSM     NF13542   6.233   4.729   6.700  0.2586  0.0958 -0.1925
  127OSM    HNF13543   6.226   4.825   6.727 -1.2165 -0.3146  1.0261
  127OSM    C2S13544   6.301   4.685   6.579 -0.5389  0.0977  0.6053
  127OSM    H2S13545   6.332   4.578   6.585 -1.0700  0.0223  2.7273
  127OSM    C3S13546   6.428   4.767   6.546 -0.0765  0.6174  0.9387
  127OSM    H3S13547   6.402   4.862   6.495  0.4061 -0.8411 -2.3372
  127OSM     O313548   6.511   4.697   6.446 -0.1747  0.2433  0.0064
  127OSM    HO313549   6.448   4.634   6.410 -0.7137 -0.3495  1.8710
  127OSM    C4S13550   6.513   4.798   6.662 -0.5250  0.2187  0.1136
  127OSM    H4S13551   6.539   4.711   6.724  0.4608  1.3232  1.2919
  127OSM    C5S13552   6.555   4.919   6.703 -1.0321 -0.1828  0.6202
  127OSM    H5S13553   6.530   5.003   6.637 -0.3728  1.0421  1.8759
  127OSM    C6S13554   6.651   4.945   6.813 -0.1647 -0.4442 -0.4688
  127OSM    H6S13555   6.596   5.000   6.893  0.6227 -0.2906 -0.0209
  127OSM    H6T13556   6.737   5.011   6.789  0.1206  0.2952  2.2515
  127OSM    C7S13557   6.713   4.832   6.892  0.1883  0.5585  0.2661
  127OSM    H7S13558   6.785   4.762   6.844 -1.0705 -0.5041 -0.1380
  127OSM    H7T13559   6.632   4.778   6.947 -0.3986 -0.1190 -1.1995
  127OSM    C8S13560   6.800   4.880   7.005 -0.4488 -0.3275  0.1726
  127OSM    H8S13561   6.742   4.954   7.065 -0.3137  1.4719 -1.8193
  127OSM    H8T13562   6.875   4.952   6.966 -0.1038  0.0666  1.5064
  127OSM    C9S13563   6.848   4.764   7.093 -0.6607  0.3669  0.0736
  127OSM    H9S13564   6.913   4.690   7.042 -1.5357  0.5827 -1.4031
  127OSM    H9T13565   6.762   4.701   7.125  0.6344 -2.2252 -1.2301
  127OSM   C10S13566   6.928   4.826   7.213 -0.0623 -0.1177 -0.0100
  127OSM   H10S13567   6.998   4.907   7.182  0.7570 -0.3031  1.2830
  127OSM   H10T13568   6.986   4.743   7.258 -0.1898 -0.5017 -0.5358
  127OSM   C11S13569   6.838   4.895   7.313  0.2556 -0.4237  0.0011
  127OSM   H11S13570   6.737   4.848   7.317  0.3515 -0.5448  1.4368
  127OSM   H11T13571   6.838   5.001   7.280  1.1415 -0.4678 -0.1506
  127OSM   C12S13572   6.899   4.891   7.455  0.7710  0.8216  0.2131
  127OSM   H12S13573   6.955   4.985   7.473  3.1499 -0.3397 -0.6972
  127OSM   H12T13574   6.962   4.800   7.466 -2.1681 -1.2021  1.4856
  127OSM   C13S13575   6.798   4.872   7.563  0.6510  0.0641  0.4066
  127OSM   H13S13576   6.753   4.770   7.558  0.1097  0.2534  1.2693
  127OSM   H13T13577   6.706   4.933   7.549 -1.1736 -2.0918  2.2114
  127OSM   C14S13578   6.853   4.889   7.706 -0.4816 -0.4829 -0.2471
  127OSM   H14S13579   6.931   4.968   7.704 -1.4175  0.4597 -1.1143
  127OSM   H14T13580   6.911   4.799   7.735 -0.7999 -0.5315  0.2662
  127OSM   C15S13581   6.750   4.925   7.812  0.4188 -0.2157  0.2334
  127OSM   H15S13582   6.652   4.874   7.795 -0.3437  1.7486 -1.7532
  127OSM   H15T13583   6.722   5.031   7.794  0.7602 -0.2424 -0.4585
  127OSM   C16S13584   6.791   4.885   7.952 -0.1975 -0.1277  0.6085
  127OSM   H16S13585   6.901   4.894   7.964  0.2634  1.1357 -3.1941
  127OSM   H16T13586   6.762   4.780   7.972  0.5600 -0.6237 -0.7249
  127OSM   C17S13587   6.724   4.962   8.065  1.2090  0.1202  0.0318
  127OSM   H17S13588   6.738   4.896   8.154 -0.9707 -2.1751 -1.1905
  127OSM   H17T13589   6.615   4.957   8.047  1.0326  0.0508  1.0650
  127OSM   C18S13590   6.770   5.106   8.078  0.1544  0.2862  0.0725
  127OSM   H18S13591   6.729   5.155   8.169 -0.7630 -0.8389  0.2904
  127OSM   H18T13592   6.726   5.160   7.992  0.3011 -0.8880 -0.7696
  127OSM   H18U13593   6.881   5.103   8.071  0.1012 -3.2153 -1.4653
  127OSM    C1F13594   6.152   4.645   6.761  0.1468  0.2710  0.9540
  127OSM     OF13595   6.145   4.533   6.721  0.0982 -0.4898 -0.1893
  127OSM    C2F13596   6.070   4.685   6.873 -0.2453  0.5782 -0.1993
  127OSM    H2F13597   5.963   4.671   6.846  0.4247 -1.8577 -1.8606
  127OSM    H2G13598   6.093   4.790   6.902  1.1842  0.9710 -2.5004
  127OSM    C3F13599   6.097   4.587   6.991 -0.0211 -0.7862 -0.7440
  127OSM    H3F13600   6.201   4.579   7.028 -0.2747 -0.4936  0.0743
  127OSM    H3G13601   6.055   4.487   6.970 -1.9247 -0.9050  2.7959
  127OSM    C4F13602   6.015   4.651   7.110 -0.5545 -0.3189 -0.2708
  127OSM    H4F13603   5.910   4.669   7.078  0.3633  1.3105 -2.6867
  127OSM    H4G13604   6.075   4.744   7.124 -0.8061 -0.1019 -0.6230
  127OSM    C5F13605   6.017   4.567   7.241  0.2417  0.2149 -0.8164
  127OSM    H5F13606   6.123   4.561   7.275  0.3163  0.5321 -0.9895
  127OSM    H5G13607   5.976   4.468   7.213 -0.7293  0.5775 -0.7204
  127OSM    C6F13608   5.940   4.631   7.362  0.1579  0.4383 -0.1281
  127OSM    H6F13609   5.845   4.674   7.326 -0.0676  1.1543  1.2608
  127OSM    H6G13610   5.999   4.720   7.392  1.4710 -0.9701  1.7170
  127OSM    C7F13611   5.920   4.545   7.483  0.0426 -1.5231 -0.1204
  127OSM    H7F13612   6.019   4.507   7.519  0.3210 -2.4704 -1.7683
  127OSM    H7G13613   5.862   4.455   7.454  0.7789 -3.0239  2.6407
  127OSM    C8F13614   5.844   4.626   7.595 -0.4408  0.0245 -0.5218
  127OSM    H8F13615   5.804   4.545   7.660 -0.4874 -0.2942 -0.9420
  127OSM    H8G13616   5.761   4.677   7.542 -1.2435  1.0300  1.6144
  127OSM    C9F13617   5.916   4.731   7.665  0.1060  0.1386  0.3312
  127OSM    H9F13618   5.960   4.811   7.603 -2.0503  1.7880  0.8131
  127OSM   C10F13619   5.938   4.749   7.796  0.0936 -0.6319  0.0581
  127OSM   H10F13620   6.008   4.832   7.816  0.1131 -0.6194 -0.0607
  127OSM   C11F13621   5.903   4.654   7.902 -0.8902  0.0861 -0.3114
  127OSM   H11F13622   6.001   4.636   7.951 -1.5672 -0.1209  1.0001
  127OSM   H11G13623   5.879   4.552   7.865  0.9246 -1.5451  2.6162
  127OSM   C12F13624   5.804   4.709   8.004 -1.2950 -0.7291 -0.1993
  127OSM   H12F13625   5.839   4.803   8.053 -0.6503 -1.6065  1.0676
  127OSM   H12G13626   5.795   4.646   8.095  1.2231 -0.6992  0.1490
  127OSM   C13F13627   5.671   4.734   7.943  0.4454  0.1962 -0.2260
  127OSM   H13F13628   5.618   4.636   7.936 -1.9059  1.3290  0.6297
  127OSM   H13G13629   5.676   4.778   7.841  0.0319  0.4246 -0.1514
  127OSM   C14F13630   5.584   4.822   8.031 -0.1244 -0.1401  0.0015
  127OSM   H14F13631   5.575   4.803   8.140  1.6548 -0.7163  0.0809
  127OSM   H14G13632   5.481   4.807   7.992  0.4211 -3.0567 -0.5818
  127OSM   C15F13633   5.631   4.969   8.010  0.0272 -0.2518 -0.4877
  127OSM   H15F13634   5.666   4.988   7.906  0.0539 -0.8320 -0.5911
  127OSM   H15G13635   5.712   4.998   8.081  0.1238 -0.6990 -0.4110
  127OSM   C16F13636   5.519   5.072   8.024  0.3258 -0.5997  0.1479
  127OSM   H16F13637   5.452   5.076   7.936  1.5672 -1.7283 -0.8891
  127OSM   H16G13638   5.569   5.171   8.019 -1.2099  0.2280  0.6773
  127OSM   C17F13639   5.437   5.057   8.152  0.1354 -0.0411  0.1616
  127OSM   H17F13640   5.397   4.954   8.162 -0.8311  0.4232  1.2601
  127OSM   H17G13641   5.349   5.123   8.141  1.3228  1.3352 -1.8539
  127OSM   C18F13642   5.513   5.089   8.278  0.1615  0.1048 -0.3793
  127OSM   H18F13643   5.447   5.082   8.367  0.9829  1.2406  0.3470
  127OSM   H18G13644   5.560   5.190   8.279  1.5114 -0.5041  1.3137
  127OSM   H18H13645   5.597   5.020   8.296  0.0194  0.0731  0.1687
  128OSM      N13646   6.450   3.294   6.163  0.2324 -0.5482  0.5941
  128OSM    C1513647   6.470   3.400   6.050 -0.1176 -0.1055  0.6223
  128OSM   H15A13648   6.397   3.388   5.972  2.7862  0.8213 -2.4804
  128OSM   H15B13649   6.562   3.390   5.995 -0.5645 -0.4958 -0.0618
  128OSM   H15C13650   6.477   3.497   6.097  2.4524 -1.3805  3.1965
  128OSM    C1413651   6.319   3.308   6.226 -0.2416 -0.0847  0.1365
  128OSM   H14A13652   6.302   3.224   6.291 -0.3316  0.4557  0.8212
  128OSM   H14B13653   6.236   3.300   6.158  1.2003 -0.8580 -1.6150
  128OSM   H14C13654   6.307   3.392   6.293  2.2186 -2.0283  3.2865
  128OSM    C1313655   6.449   3.154   6.106 -0.4144  0.3760  0.2053
  128OSM   H13A13656   6.542   3.127   6.059  0.2229 -0.2332  1.7793
  128OSM   H13B13657   6.382   3.138   6.022  0.6147  0.5215 -0.6651
  128OSM   H13C13658   6.418   3.073   6.170 -0.4944  1.1968  1.2229
  128OSM    C1213659   6.567   3.299   6.264  0.3611  0.6162 -0.4328
  128OSM   H12A13660   6.664   3.282   6.220  0.4369  1.1925 -0.5022
  128OSM   H12B13661   6.545   3.217   6.331  1.0338  0.3365 -0.5489
  128OSM    C1113662   6.588   3.427   6.344 -0.1339  0.1244 -0.3813
  128OSM   H11A13663   6.654   3.396   6.427 -1.6081  0.9127  1.1311
  128OSM   H11B13664   6.486   3.456   6.377  0.0843  0.9942 -0.4391
  128OSM      P13665   6.797   3.546   6.240 -0.2719  0.2319 -0.2645
  128OSM    O1313666   6.841   3.415   6.191 -0.2877  0.1890  0.0145
  128OSM    O1413667   6.816   3.668   6.158 -0.0967  0.2597  0.1124
  128OSM    O1113668   6.866   3.573   6.386  0.5801  0.5814 -0.3780
  128OSM    O1213669   6.638   3.533   6.267 -0.2546 -0.4841 -0.0510
  128OSM    C1S13670   6.798   3.669   6.467  0.3507 -0.5091 -0.7315
  128OSM    H1S13671   6.699   3.624   6.490  1.5015 -1.4714  3.0321
  128OSM    H1T13672   6.788   3.762   6.408  1.3075 -1.0818 -1.8355
  128OSM     NF13673   6.778   3.769   6.695  0.3089 -0.0058 -0.8283
  128OSM    HNF13674   6.794   3.867   6.703 -1.5396  0.2304  0.5794
  128OSM    C2S13675   6.869   3.687   6.609 -0.5402  0.2243 -0.2584
  128OSM    H2S13676   6.880   3.586   6.654 -0.7335  0.2278 -0.1994
  128OSM    C3S13677   7.006   3.752   6.591  0.5484  0.5965  0.1648
  128OSM    H3S13678   7.002   3.858   6.559  1.6168  0.4267 -0.6072
  128OSM     O313679   7.078   3.700   6.484 -0.3645 -0.0455 -0.2105
  128OSM    HO313680   7.011   3.643   6.445  0.6647 -0.5301 -1.3450
  128OSM    C4S13681   7.103   3.749   6.715 -0.1013  0.6863  0.4538
  128OSM    H4S13682   7.110   3.646   6.753 -3.1079 -1.0491 -3.0236
  128OSM    C5S13683   7.162   3.854   6.768 -0.3454 -1.3042  0.0852
  128OSM    H5S13684   7.126   3.953   6.736  1.3916 -0.6547  0.0604
  128OSM    C6S13685   7.245   3.868   6.888 -0.1808  0.2267 -0.1628
  128OSM    H6S13686   7.204   3.941   6.962 -0.4210 -1.8230  1.8134
  128OSM    H6T13687   7.349   3.892   6.859  0.2630 -0.7507  0.5713
  128OSM    C7S13688   7.253   3.736   6.969 -0.8061  0.2654 -0.6867
  128OSM    H7S13689   7.304   3.658   6.908 -1.0081 -1.5291  1.3244
  128OSM    H7T13690   7.156   3.687   6.989 -0.0348 -0.9359  0.3163
  128OSM    C8S13691   7.335   3.755   7.099 -0.4733  0.6272 -0.0495
  128OSM    H8S13692   7.291   3.834   7.163 -1.9690  1.3749 -1.9328
  128OSM    H8T13693   7.439   3.786   7.076  0.3997 -1.4002  0.8702
  128OSM    C9S13694   7.341   3.627   7.191  0.1679  0.4757  0.6848
  128OSM    H9S13695   7.400   3.552   7.134 -0.4814  0.6889 -0.2863
  128OSM    H9T13696   7.236   3.591   7.199 -0.4728  1.1246 -2.9007
  128OSM   C10S13697   7.413   3.655   7.326 -0.1267  0.0580  0.5956
  128OSM   H10S13698   7.363   3.747   7.363  0.6480 -0.1048  2.1217
  128OSM   H10T13699   7.520   3.679   7.310  0.3174 -1.4259  1.1794
  128OSM   C11S13700   7.397   3.558   7.436  0.0340 -0.2973 -0.3973
  128OSM   H11S13701   7.440   3.459   7.411 -0.4734 -0.6211  0.0117
  128OSM   H11T13702   7.290   3.551   7.461 -0.1102 -1.2520 -1.2190
  128OSM   C12S13703   7.461   3.622   7.565 -0.0211  0.3437  0.4926
  128OSM   H12S13704   7.571   3.639   7.557 -0.3255  2.3061  0.0127
  128OSM   H12T13705   7.444   3.546   7.645  0.2103 -2.1909 -1.7181
  128OSM   C13S13706   7.406   3.754   7.616 -0.1247 -0.2605  0.0665
  128OSM   H13S13707   7.308   3.773   7.567 -1.0845  0.3931  2.1339
  128OSM   H13T13708   7.487   3.827   7.593 -1.3574  1.0536 -0.2914
  128OSM   C14S13709   7.384   3.771   7.770  0.0231 -0.1894  0.4948
  128OSM   H14S13710   7.367   3.876   7.804  1.9119  0.7933 -1.3727
  128OSM   H14T13711   7.475   3.733   7.821 -0.8738  0.8327  3.0448
  128OSM   C15S13712   7.263   3.692   7.810 -0.1932 -0.7639  0.8689
  128OSM   H15S13713   7.267   3.590   7.766  0.0038 -0.4067  0.0346
  128OSM   H15T13714   7.174   3.742   7.767 -0.2173  1.2429  3.0615
  128OSM   C16S13715   7.245   3.675   7.962  0.2206 -0.5342  0.3882
  128OSM   H16S13716   7.248   3.779   8.002 -1.4361 -0.0190 -0.7183
  128OSM   H16T13717   7.323   3.620   8.019 -0.1769 -0.2382  1.2194
  128OSM   C17S13718   7.106   3.614   7.993 -0.1088  0.4604 -0.4366
  128OSM   H17S13719   7.115   3.508   7.961 -0.9352 -0.2803  1.6200
  128OSM   H17T13720   7.036   3.669   7.927  0.6621 -0.1052 -1.7511
  128OSM   C18S13721   7.055   3.633   8.137 -0.1671  0.6526  0.6621
  128OSM   H18S13722   7.025   3.740   8.135  1.5172  1.3261 -4.4890
  128OSM   H18T13723   7.145   3.621   8.202  0.4602  0.1219 -0.2758
  128OSM   H18U13724   6.969   3.569   8.166 -0.6357 -0.1395 -2.1766
  128OSM    C1F13725   6.667   3.724   6.751  0.1713 -0.1599  0.9971
  128OSM     OF13726   6.628   3.610   6.744  0.4714  0.2407 -0.2697
  128OSM    C2F13727   6.599   3.832   6.833  0.1194 -0.1834 -0.1307
  128OSM    H2F13728   6.565   3.900   6.752 -0.7834 -0.2521  0.1683
  128OSM    H2G13729   6.668   3.862   6.915 -0.7176 -0.1908  0.5933
  128OSM    C3F13730   6.467   3.778   6.896  0.0182  0.2994  0.7843
  128OSM    H3F13731   6.495   3.703   6.973 -1.1530 -3.6856 -2.2871
  128OSM    H3G13732   6.405   3.728   6.818 -2.4150  0.7840  2.2903
  128OSM    C4F13733   6.384   3.884   6.969 -0.8864  0.5661 -0.3747
  128OSM    H4F13734   6.289   3.897   6.913 -1.2032 -0.1785 -0.0236
  128OSM    H4G13735   6.438   3.980   6.953 -0.8086  0.5656 -0.1083
  128OSM    C5F13736   6.365   3.865   7.118 -0.6725 -0.6961  0.1074
  128OSM    H5F13737   6.338   3.762   7.150  0.9945 -0.4281  2.6903
  128OSM    H5G13738   6.294   3.940   7.158  1.4481  0.9321  0.9962
  128OSM    C6F13739   6.494   3.900   7.191 -0.6363 -0.8166 -0.5337
  128OSM    H6F13740   6.514   4.005   7.161 -3.3709 -0.3591 -1.0395
  128OSM    H6G13741   6.577   3.836   7.155 -0.2330 -0.8287  0.3952
  128OSM    C7F13742   6.479   3.883   7.342 -0.5810  0.0470  0.1321
  128OSM    H7F13743   6.440   3.782   7.363  0.6374 -0.6174 -0.7211
  128OSM    H7G13744   6.413   3.964   7.380 -0.5692 -0.4582  1.2531
  128OSM    C8F13745   6.607   3.883   7.428  0.0202  0.4016  0.0838
  128OSM    H8F13746   6.684   3.815   7.388 -0.7467 -1.1852  1.1946
  128OSM    H8G13747   6.578   3.850   7.530  2.0852 -0.6162  0.3958
  128OSM    C9F13748   6.663   4.025   7.420 -0.6728 -0.1075 -0.1414
  128OSM    H9F13749   6.666   4.069   7.320 -0.4114 -0.2210 -0.1836
  128OSM   C10F13750   6.681   4.112   7.526  0.3374  0.5508  0.7262
  128OSM   H10F13751   6.702   4.219   7.511 -0.7120  0.5657 -0.9008
  128OSM   C11F13752   6.656   4.067   7.665 -0.0536  0.5399 -0.4374
  128OSM   H11F13753   6.596   3.975   7.682 -1.2001  1.2795 -0.3224
  128OSM   H11G13754   6.604   4.154   7.712  0.7947  0.2364  1.1279
  128OSM   C12F13755   6.791   4.033   7.727 -0.0722 -0.0475  0.6943
  128OSM   H12F13756   6.876   4.078   7.673  0.8857 -1.1036  1.2548
  128OSM   H12G13757   6.802   3.922   7.721 -0.9184 -0.0583 -2.1083
  128OSM   C13F13758   6.792   4.072   7.875  0.6379  1.0772 -0.1319
  128OSM   H13F13759   6.738   4.167   7.892 -1.2454  0.0437 -0.0410
  128OSM   H13G13760   6.891   4.088   7.924 -0.7758 -0.1347  3.4471
  128OSM   C14F13761   6.737   3.963   7.967 -0.0016  0.1293 -0.4071
  128OSM   H14F13762   6.807   3.877   7.971 -0.0204  0.1601  1.0131
  128OSM   H14G13763   6.643   3.922   7.923  0.1934  0.1211 -0.8268
  128OSM   C15F13764   6.713   4.020   8.106  0.1787  0.0116 -0.3872
  128OSM   H15F13765   6.665   4.118   8.088  0.5139  0.4258  0.8870
  128OSM   H15G13766   6.806   4.027   8.167 -0.0190  0.9874 -0.1967
  128OSM   C16F13767   6.612   3.934   8.183  0.2700 -0.4079 -0.4335
  128OSM   H16F13768   6.518   3.923   8.126 -2.2353 -0.6148  3.3719
  128OSM   H16G13769   6.574   3.996   8.267  0.1153  0.3478 -1.0506
  128OSM   C17F13770   6.662   3.810   8.252  0.3586  0.3292  0.2561
  128OSM   H17F13771   6.707   3.740   8.179 -0.7518 -1.1811  0.9769
  128OSM   H17G13772   6.576   3.749   8.287 -0.0927 -0.0306 -1.3881
  128OSM   C18F13773   6.756   3.839   8.366 -0.1253 -0.1555  0.4270
  128OSM   H18F13774   6.711   3.905   8.443 -0.2388  0.9766 -0.5639
  128OSM   H18G13775   6.848   3.883   8.320 -0.7828 -2.2099 -3.2650
  128OSM   H18H13776   6.794   3.746   8.413  0.1475  0.6177  1.8043
  129OSM      N13777   0.027   2.754   5.790 -0.6344 -0.0354 -0.3952
  129OSM    C1513778   0.093   2.828   5.678  0.1458 -0.8771 -0.0684
  129OSM   H15A13779   0.111   2.771   5.588 -2.7923 -0.2945 -1.1264
  129OSM   H15B13780   0.181   2.873   5.721 -0.6844 -0.3035  1.0752
  129OSM   H15C13781   0.033   2.915   5.656  0.8394  0.0314  1.4541
  129OSM    C1413782  -0.099   2.699   5.737  0.4965 -0.6415  0.0681
  129OSM   H14A13783  -0.172   2.774   5.711 -0.3771 -1.1730  0.8920
  129OSM   H14B13784  -0.149   2.636   5.809 -0.5723 -0.2202 -0.2748
  129OSM   H14C13785  -0.073   2.649   5.645 -0.0592 -0.9848  0.0931
  129OSM    C1313786   0.117   2.636   5.828  0.0326  0.3052  0.0606
  129OSM   H13A13787   0.066   2.576   5.901 -1.6777  1.5443 -0.0648
  129OSM   H13B13788   0.203   2.674   5.881  0.2020 -0.7748  0.5920
  129OSM   H13C13789   0.143   2.582   5.738 -1.8771  1.6723 -1.3745
  129OSM    C1213790   0.007   2.840   5.912  0.3469 -0.5689 -0.5875
  129OSM   H12A13791  -0.073   2.909   5.888  0.3540  0.0438  1.0311
  129OSM   H12B13792   0.093   2.905   5.923  0.7128 -1.3052  1.2869
  129OSM    C1113793  -0.005   2.782   6.052  0.3559 -0.3004  0.7500
  129OSM   H11A13794  -0.032   2.859   6.127 -0.0700 -0.2532  0.5524
  129OSM   H11B13795   0.097   2.741   6.071 -0.8865 -2.8208  2.7068
  129OSM      P13796  -0.107   2.548   6.127  0.0461 -0.0028 -0.1379
  129OSM    O1313797  -0.240   2.476   6.103 -0.1355  0.4405  0.4981
  129OSM    O1413798   0.019   2.479   6.090 -0.6361 -0.5996 -0.7559
  129OSM    O1113799  -0.094   2.591   6.283  0.5413 -0.1941 -0.0430
  129OSM    O1213800  -0.111   2.681   6.049 -0.9607 -0.7580 -0.4666
  129OSM    C1S13801  -0.194   2.684   6.336  0.1323  0.7323  0.2582
  129OSM    H1S13802  -0.296   2.639   6.332 -0.2280  1.4856  0.5594
  129OSM    H1T13803  -0.200   2.773   6.269  0.3643 -0.0489 -0.8146
  129OSM     NF13804  -0.278   2.844   6.513  0.9930 -0.0358  0.4563
  129OSM    HNF13805  -0.247   2.937   6.528  0.7459  1.2352 -4.8726
  129OSM    C2S13806  -0.181   2.738   6.486 -0.0880  0.3301 -0.4373
  129OSM    H2S13807  -0.199   2.656   6.558  1.8246 -0.4253 -0.7786
  129OSM    C3S13808  -0.031   2.788   6.496 -0.0135 -0.5724 -0.2600
  129OSM    H3S13809  -0.019   2.858   6.410 -1.8122 -1.2461 -1.1209
  129OSM     O313810   0.061   2.686   6.475 -0.2328 -0.5632 -0.2742
  129OSM    HO313811   0.028   2.639   6.398 -1.3232  1.8785 -1.4019
  129OSM    C4S13812  -0.013   2.859   6.619  0.6389 -0.1727  0.8434
  129OSM    H4S13813  -0.030   2.967   6.606 -1.4847 -0.3900  1.4593
  129OSM    C5S13814   0.012   2.815   6.745 -0.2144  0.0131  0.3567
  129OSM    H5S13815   0.021   2.706   6.760 -0.8766  0.1327  1.7288
  129OSM    C6S13816   0.046   2.894   6.869  0.1833  1.2144  0.2548
  129OSM    H6S13817  -0.047   2.935   6.914  0.5552  1.1964  1.0546
  129OSM    H6T13818   0.083   2.996   6.847 -0.7461  1.6966  0.8466
  129OSM    C7S13819   0.144   2.833   6.962  0.2148 -0.4120  0.4182
  129OSM    H7S13820   0.102   2.735   6.995 -2.1029  0.5989  0.6548
  129OSM    H7T13821   0.165   2.897   7.050 -0.0814  1.4568 -0.8155
  129OSM    C8S13822   0.281   2.809   6.897 -0.4983 -0.3353 -0.5331
  129OSM    H8S13823   0.310   2.902   6.845  0.6271  0.6456  1.6997
  129OSM    H8T13824   0.265   2.725   6.826 -0.8346 -0.4573 -0.3184
  129OSM    C9S13825   0.385   2.782   7.003 -0.4979 -0.0371  0.0690
  129OSM    H9S13826   0.448   2.696   6.970 -0.9582 -0.8366  1.1935
  129OSM    H9T13827   0.331   2.742   7.091  1.2666 -2.2955  0.2187
  129OSM   C10S13828   0.485   2.892   7.040  0.3982  0.3620 -0.2120
  129OSM   H10S13829   0.432   2.979   7.085  1.1518 -0.2480  1.9822
  129OSM   H10T13830   0.529   2.926   6.944  0.3881  0.4618 -0.1822
  129OSM   C11S13831   0.590   2.853   7.143  0.4768 -0.3198 -0.1482
  129OSM   H11S13832   0.624   2.952   7.180  0.0620 -1.0023  2.2705
  129OSM   H11T13833   0.665   2.789   7.092 -0.1092 -0.9653 -0.2134
  129OSM   C12S13834   0.538   2.770   7.265 -0.3874 -0.7416  0.0501
  129OSM   H12S13835   0.503   2.670   7.233 -0.9734 -0.8887  1.1246
  129OSM   H12T13836   0.452   2.827   7.306 -0.4927 -1.7236  1.2571
  129OSM   C13S13837   0.637   2.746   7.380 -0.0783 -0.3691 -0.0539
  129OSM   H13S13838   0.693   2.842   7.386  0.1612 -0.3912 -1.6165
  129OSM   H13T13839   0.710   2.665   7.361 -0.0927 -0.3799 -0.0637
  129OSM   C14S13840   0.581   2.735   7.523 -0.3230  0.3989  0.0222
  129OSM   H14S13841   0.513   2.648   7.507  0.8030 -0.1989 -1.7737
  129OSM   H14T13842   0.515   2.822   7.542 -0.8530 -0.0436  0.2370
  129OSM   C15S13843   0.683   2.716   7.626 -1.1305  0.3178  0.0415
  129OSM   H15S13844   0.740   2.810   7.640  1.5802 -1.4153  1.4097
  129OSM   H15T13845   0.751   2.634   7.594  0.3613  1.8690 -0.9343
  129OSM   C16S13846   0.619   2.667   7.759 -0.4433 -0.0755  0.5063
  129OSM   H16S13847   0.586   2.564   7.734 -0.1028 -0.2623  0.8258
  129OSM   H16T13848   0.526   2.725   7.781 -0.3245  0.5504 -0.5921
  129OSM   C17S13849   0.718   2.673   7.873 -0.2529 -0.9171 -0.2368
  129OSM   H17S13850   0.814   2.633   7.835 -1.2703 -0.6309 -3.4234
  129OSM   H17T13851   0.683   2.615   7.961 -1.7079  0.0196 -0.1619
  129OSM   C18S13852   0.757   2.817   7.924 -0.3138  0.1098 -0.4662
  129OSM   H18S13853   0.667   2.878   7.951  0.8960  1.5034  0.5938
  129OSM   H18T13854   0.813   2.864   7.840  3.3553 -2.3498  0.4085
  129OSM   H18U13855   0.817   2.817   8.018 -0.5964  0.2349 -0.2832
  129OSM    C1F13856  -0.405   2.817   6.531 -0.1301 -0.3273  0.1896
  129OSM     OF13857  -0.434   2.700   6.547  0.0408  0.6217 -0.1402
  129OSM    C2F13858  -0.507   2.928   6.545  0.4802 -0.1919  0.5071
  129OSM    H2F13859  -0.576   2.932   6.458 -0.3429 -0.8865  1.1124
  129OSM    H2G13860  -0.443   3.019   6.542  0.4138  0.0062  3.1435
  129OSM    C3F13861  -0.592   2.914   6.676  0.2754  0.4225  0.3385
  129OSM    H3F13862  -0.659   3.002   6.667 -0.3260 -0.0951 -0.3688
  129OSM    H3G13863  -0.529   2.923   6.767  2.0430 -1.0861 -0.6663
  129OSM    C4F13864  -0.680   2.789   6.686  0.4221 -0.2156  1.2911
  129OSM    H4F13865  -0.664   2.743   6.586 -0.3228  3.5862 -0.7428
  129OSM    H4G13866  -0.788   2.792   6.710  0.4256  0.0321  1.2737
  129OSM    C5F13867  -0.626   2.690   6.796  0.3130 -0.3311 -0.3422
  129OSM    H5F13868  -0.515   2.687   6.801  0.3193 -2.1264 -0.9063
  129OSM    H5G13869  -0.659   2.590   6.763  0.2437 -0.8704  1.2719
  129OSM    C6F13870  -0.690   2.715   6.933  0.5359  0.2520 -0.1927
  129OSM    H6F13871  -0.801   2.704   6.928  0.3960  2.0572 -3.4171
  129OSM    H6G13872  -0.663   2.814   6.975 -0.6250  0.6983 -0.4652
  129OSM    C7F13873  -0.630   2.610   7.030  0.3114 -0.5441 -0.0935
  129OSM    H7F13874  -0.527   2.644   7.056  0.0266 -0.2719  0.7112
  129OSM    H7G13875  -0.629   2.504   6.996  0.2253 -0.9567  1.1265
  129OSM    C8F13876  -0.702   2.612   7.167 -0.7544 -0.3119  1.1391
  129OSM    H8F13877  -0.775   2.528   7.167  1.8999 -3.1029 -3.7021
  129OSM    H8G13878  -0.757   2.707   7.179 -0.0394  0.3027 -0.2727
  129OSM    C9F13879  -0.597   2.570   7.267  0.2786  0.2159 -0.9819
  129OSM    H9F13880  -0.530   2.484   7.253 -0.3905 -0.2388 -1.5116
  129OSM   C10F13881  -0.578   2.632   7.389  0.5353 -0.2217 -0.6755
  129OSM   H10F13882  -0.507   2.593   7.464 -0.2474  1.2699  0.9098
  129OSM   C11F13883  -0.668   2.748   7.434 -0.6591 -0.2572 -0.7658
  129OSM   H11F13884  -0.686   2.815   7.347 -0.8159  1.2404  0.3853
  129OSM   H11G13885  -0.627   2.798   7.524 -0.5036  1.7334 -1.8750
  129OSM   C12F13886  -0.802   2.680   7.472  0.0164  0.2784 -0.4744
  129OSM   H12F13887  -0.837   2.611   7.392 -0.0956 -0.6497  0.3558
  129OSM   H12G13888  -0.879   2.760   7.483 -0.9949 -0.7080 -0.1465
  129OSM   C13F13889  -0.806   2.609   7.616  1.2105 -0.3114 -0.0675
  129OSM   H13F13890  -0.786   2.674   7.704 -1.7018  1.6395 -0.6882
  129OSM   H13G13891  -0.729   2.530   7.627  2.0476  0.6598  1.4299
  129OSM   C14F13892  -0.931   2.525   7.649  0.6776 -0.3883 -0.7513
  129OSM   H14F13893  -0.906   2.417   7.645  1.0338 -0.3150 -0.5045
  129OSM   H14G13894  -1.000   2.545   7.563  1.9133 -1.3074 -1.9963
  129OSM   C15F13895  -0.994   2.556   7.784  0.0461 -0.0516  0.4366
  129OSM   H15F13896  -1.053   2.650   7.777 -1.7531 -1.2112 -1.2851
  129OSM   H15G13897  -0.913   2.583   7.855  0.0423  2.8633 -0.5520
  129OSM   C16F13898  -1.088   2.450   7.838  0.1688  0.0226  0.4564
  129OSM   H16F13899  -1.028   2.357   7.827 -1.2210 -1.0629  1.6849
  129OSM   H16G13900  -1.162   2.436   7.757  1.5838 -1.3630 -0.6384
  129OSM   C17F13901  -1.140   2.476   7.978  0.1939  0.4866  0.3760
  129OSM   H17F13902  -1.059   2.492   8.052 -0.6029  0.1060  1.3370
  129OSM   H17G13903  -1.194   2.384   8.009  2.5168 -1.0219  0.2217
  129OSM   C18F13904  -1.232   2.596   7.994  0.4066  0.1658  0.3205
  129OSM   H18F13905  -1.327   2.573   7.941  0.9599 -2.7893  0.4383
  129OSM   H18G13906  -1.176   2.685   7.959  1.7795 -0.5373  0.6504
  129OSM   H18H13907  -1.256   2.611   8.102 -1.3772  0.2463 -0.0544
  130OSM      N13908   6.784   1.813   6.585  0.2220  0.3428  0.1349
  130OSM    C1513909   6.699   1.917   6.513 -0.2578 -0.4419 -0.2919
  130OSM   H15A13910   6.696   1.893   6.408  2.5273  0.6633 -0.7136
  130OSM   H15B13911   6.745   2.014   6.517  0.6256 -0.7963 -1.2099
  130OSM   H15C13912   6.604   1.929   6.562  0.9962  3.1023  1.5714
  130OSM    C1413913   6.774   1.840   6.734 -0.8746 -0.1468 -0.0994
  130OSM   H14A13914   6.847   1.774   6.779  1.0204 -0.0522 -2.7645
  130OSM   H14B13915   6.677   1.810   6.769 -0.9443 -2.5527 -2.0736
  130OSM   H14C13916   6.805   1.942   6.751  3.4478 -0.6502 -3.0815
  130OSM    C1313917   6.732   1.681   6.549  0.5463 -0.0833  0.4164
  130OSM   H13A13918   6.707   1.672   6.445  2.5678  2.1664 -0.3567
  130OSM   H13B13919   6.639   1.667   6.602 -0.2501  0.5841 -0.7690
  130OSM   H13C13920   6.797   1.597   6.568 -0.1733 -1.1808 -1.7220
  130OSM    C1213921   6.930   1.816   6.557 -0.6153  0.1842  0.3734
  130OSM   H12A13922   6.976   1.909   6.588  2.6636 -1.7237  1.7955
  130OSM   H12B13923   6.950   1.804   6.452  2.6369 -0.9213  0.9864
  130OSM    C1113924   7.024   1.704   6.618  0.0486  0.2678 -0.5973
  130OSM   H11A13925   6.999   1.713   6.726 -0.4206  0.2381 -0.6999
  130OSM   H11B13926   7.133   1.723   6.620 -0.1437  1.4564 -0.6042
  130OSM      P13927   7.073   1.493   6.473  0.6095  0.1547  0.1373
  130OSM    O1313928   6.976   1.445   6.374 -0.0849 -0.1845 -0.9557
  130OSM    O1413929   7.181   1.578   6.425  0.1207 -0.0069 -0.4777
  130OSM    O1113930   7.132   1.371   6.556 -0.3876  0.2204 -0.2281
  130OSM    O1213931   6.993   1.572   6.574  0.0929 -0.4487  0.5017
  130OSM    C1S13932   7.190   1.402   6.684  0.1196  0.2431 -0.0292
  130OSM    H1S13933   7.096   1.419   6.740 -0.3658  0.2593 -0.8262
  130OSM    H1T13934   7.265   1.483   6.697  0.1980  0.0254  0.9418
  130OSM     NF13935   7.292   1.292   6.884 -0.2669 -0.2144 -0.4356
  130OSM    HNF13936   7.384   1.327   6.896 -0.6438  0.9072 -0.6580
  130OSM    C2S13937   7.254   1.270   6.747  0.4345  0.1142  0.4853
  130OSM    H2S13938   7.172   1.196   6.735  0.5372  0.2114 -1.0837
  130OSM    C3S13939   7.371   1.224   6.656  0.3335  0.8455 -0.3497
  130OSM    H3S13940   7.449   1.300   6.676  1.7818 -0.5999 -0.2781
  130OSM     O313941   7.347   1.221   6.511 -0.4958  0.0642 -0.0649
  130OSM    HO313942   7.258   1.255   6.503 -0.5014  0.0525 -0.0534
  130OSM    C4S13943   7.421   1.098   6.713  0.2823 -0.2828 -0.0961
  130OSM    H4S13944   7.505   1.110   6.784  1.4003 -0.8153 -1.2918
  130OSM    C5S13945   7.361   0.984   6.683 -0.2540  0.3201 -0.0814
  130OSM    H5S13946   7.282   0.988   6.606  1.9102  2.4353 -2.3832
  130OSM    C6S13947   7.425   0.855   6.735 -0.3237  0.1272 -0.4030
  130OSM    H6S13948   7.535   0.872   6.736 -0.2285 -0.2177 -1.9525
  130OSM    H6T13949   7.413   0.767   6.668  1.6143 -0.5232  0.0131
  130OSM    C7S13950   7.374   0.807   6.867  0.3634 -0.5144 -0.3464
  130OSM    H7S13951   7.431   0.717   6.898  1.4446  0.4508  0.5552
  130OSM    H7T13952   7.267   0.778   6.856  0.6942 -2.1967  0.5188
  130OSM    C8S13953   7.390   0.905   6.986  0.3437 -0.4303 -0.1129
  130OSM    H8S13954   7.314   0.985   6.975  0.2656 -0.6187 -0.9789
  130OSM    H8T13955   7.488   0.958   6.987 -0.2826  0.8786  2.3993
  130OSM    C9S13956   7.370   0.848   7.118 -0.1223 -0.5825 -0.3239
  130OSM    H9S13957   7.437   0.760   7.129  0.7445 -0.1134 -1.6812
  130OSM    H9T13958   7.261   0.826   7.129 -0.4679  0.4106 -1.5543
  130OSM   C10S13959   7.395   0.937   7.228  0.2808 -0.2263 -0.3448
  130OSM   H10S13960   7.334   1.029   7.216 -0.2039 -0.7561 -2.4085
  130OSM   H10T13961   7.503   0.963   7.221  0.0874  0.7460  0.0831
  130OSM   C11S13962   7.365   0.871   7.362 -0.7446  0.5255 -0.8923
  130OSM   H11S13963   7.421   0.776   7.371 -1.9675 -0.0542  1.6473
  130OSM   H11T13964   7.255   0.854   7.368 -1.4945  3.9471 -2.5758
  130OSM   C12S13965   7.387   0.958   7.488 -0.1878 -0.9555  0.4790
  130OSM   H12S13966   7.332   1.053   7.470  0.4216 -0.7916 -0.5789
  130OSM   H12T13967   7.494   0.980   7.508 -0.3357 -2.1407  2.9451
  130OSM   C13S13968   7.342   0.890   7.615  0.2501 -0.1333 -0.5484
  130OSM   H13S13969   7.400   0.795   7.610 -0.0907 -0.2819 -3.6365
  130OSM   H13T13970   7.236   0.857   7.623  0.4976 -0.4774  2.3860
  130OSM   C14S13971   7.365   0.973   7.741  0.1340 -0.0377  0.5813
  130OSM   H14S13972   7.296   1.059   7.729  0.4109  0.1384  0.2737
  130OSM   H14T13973   7.461   1.023   7.718  0.1963 -1.7410 -3.7200
  130OSM   C15S13974   7.357   0.896   7.876 -0.1046 -0.0783 -0.4550
  130OSM   H15S13975   7.430   0.813   7.880  1.5658  1.3779  1.8553
  130OSM   H15T13976   7.256   0.854   7.894  0.2943 -0.4458  1.0421
  130OSM   C16S13977   7.413   0.982   7.997 -0.9646  0.7619 -0.1305
  130OSM   H16S13978   7.501   1.036   7.957 -0.6046  0.0302 -0.3418
  130OSM   H16T13979   7.443   0.914   8.079 -0.6637 -0.2246 -1.0409
  130OSM   C17S13980   7.307   1.081   8.053  0.4060  0.0358 -0.4669
  130OSM   H17S13981   7.222   1.026   8.098  0.8330  0.7210  1.2623
  130OSM   H17T13982   7.275   1.135   7.962 -1.3866 -0.5231 -0.2177
  130OSM   C18S13983   7.347   1.191   8.153 -0.4573 -0.1931 -0.2143
  130OSM   H18S13984   7.387   1.158   8.251  0.0284  1.1631  0.0659
  130OSM   H18T13985   7.250   1.231   8.191 -1.1168 -0.6408 -1.3905
  130OSM   H18U13986   7.416   1.265   8.107 -1.8668  1.0357 -0.4400
  130OSM    C1F13987   7.210   1.284   6.993 -0.5315 -0.1776 -0.3012
  130OSM     OF13988   7.094   1.241   7.000  0.2070  0.3238  0.1386
  130OSM    C2F13989   7.272   1.333   7.123  0.2545 -0.5030  0.0698
  130OSM    H2F13990   7.304   1.436   7.097 -0.1267  0.1915  2.1655
  130OSM    H2G13991   7.361   1.270   7.143  0.6832 -0.1521 -0.6894
  130OSM    C3F13992   7.177   1.340   7.248  0.0005 -0.3665  0.5104
  130OSM    H3F13993   7.120   1.245   7.259  2.1447 -1.8804 -0.6982
  130OSM    H3G13994   7.101   1.420   7.234 -0.7506 -1.2574 -0.7535
  130OSM    C4F13995   7.245   1.371   7.383  0.7377 -0.0044 -0.2845
  130OSM    H4F13996   7.302   1.465   7.369  0.8106 -0.2223 -1.5657
  130OSM    H4G13997   7.324   1.293   7.397  0.8317  0.0571 -0.4621
  130OSM    C5F13998   7.151   1.364   7.501  0.1062  0.0588 -0.3705
  130OSM    H5F13999   7.137   1.257   7.529 -0.6009  0.0507 -0.7295
  130OSM    H5G14000   7.055   1.417   7.486  0.3947  0.5533 -0.4935
  130OSM    C6F14001   7.218   1.418   7.628 -0.5435  0.3602 -0.3753
  130OSM    H6F14002   7.232   1.526   7.607 -2.9429  1.0000  0.9662
  130OSM    H6G14003   7.315   1.364   7.640  0.1263  1.4912 -0.5355
  130OSM    C7F14004   7.126   1.407   7.752 -0.2510  0.3012 -0.7716
  130OSM    H7F14005   7.085   1.307   7.777 -2.0162  0.6972 -1.9049
  130OSM    H7G14006   7.035   1.464   7.725 -0.2125  0.4323 -0.6258
  130OSM    C8F14007   7.188   1.471   7.877  0.2762 -0.0711 -0.0194
  130OSM    H8F14008   7.213   1.571   7.834 -0.7580 -0.4626 -1.6032
  130OSM    H8G14009   7.293   1.443   7.896  0.6615  0.9481 -0.5240
  130OSM    C9F14010   7.101   1.492   8.006 -0.0287 -0.9963 -0.2424
  130OSM    H9F14011   7.106   1.412   8.081 -3.7567 -1.5820 -0.4096
  130OSM   C10F14012   7.019   1.598   8.039 -0.0790 -0.3750 -0.5945
  130OSM   H10F14013   6.963   1.595   8.134 -0.2288  2.7712 -0.4840
  130OSM   C11F14014   7.006   1.723   7.953  0.0448  0.3411 -0.3444
  130OSM   H11F14015   6.928   1.711   7.874  0.3776  0.5318 -0.7056
  130OSM   H11G14016   7.100   1.731   7.895 -0.3218 -3.3554 -1.7842
  130OSM   C12F14017   6.976   1.843   8.036  0.3024  0.3606  0.3379
  130OSM   H12F14018   6.996   1.928   7.967 -0.8232  0.0960 -0.3405
  130OSM   H12G14019   7.053   1.846   8.117 -1.1885  1.6490  1.7876
  130OSM   C13F14020   6.835   1.840   8.093 -0.2160 -0.2334  0.3055
  130OSM   H13F14021   6.830   1.748   8.153 -1.8649 -0.9172 -0.7906
  130OSM   H13G14022   6.759   1.840   8.012 -0.2588  0.5114  0.3311
  130OSM   C14F14023   6.805   1.966   8.172  0.2136  1.0699  0.1459
  130OSM   H14F14024   6.704   1.934   8.207  0.7715 -2.0292 -0.7310
  130OSM   H14G14025   6.809   2.058   8.111  1.1270  1.5687  0.9331
  130OSM   C15F14026   6.876   2.005   8.300  0.3246 -0.0332 -0.1434
  130OSM   H15F14027   6.976   2.050   8.284  0.5293 -0.1864  0.6328
  130OSM   H15G14028   6.890   1.911   8.358  0.2303  0.8624  1.3898
  130OSM   C16F14029   6.805   2.099   8.401  0.4798 -1.0828 -0.1898
  130OSM   H16F14030   6.704   2.058   8.422  0.4078 -1.7572 -1.7156
  130OSM   H16G14031   6.795   2.198   8.352  2.7164  0.4428  2.1514
  130OSM   C17F14032   6.890   2.107   8.528 -0.0630 -0.0242  0.2623
  130OSM   H17F14033   6.873   2.022   8.598  0.0022 -0.3342 -0.0982
  130OSM   H17G14034   6.847   2.194   8.582 -1.2236  0.1142 -0.8529
  130OSM   C18F14035   7.041   2.141   8.518 -0.0655  0.4750 -0.4440
  130OSM   H18F14036   7.067   2.184   8.618  1.5752 -2.8286  0.7032
  130OSM   H18G14037   7.067   2.217   8.442  0.0560  0.4188 -0.4593
  130OSM   H18H14038   7.101   2.048   8.510  0.2680  0.7045 -0.6300
  131OSM      N14039   1.507   6.789   5.939  0.1408  0.1064 -0.2204
  131OSM    C1514040   1.627   6.763   5.848 -0.3261  0.0915  0.0748
  131OSM   H15A14041   1.597   6.735   5.748  0.6269  0.4523 -0.3274
  131OSM   H15B14042   1.681   6.677   5.883 -0.5372  0.2656  0.8387
  131OSM   H15C14043   1.697   6.845   5.831  0.7426 -0.7551  0.2582
  131OSM    C1414044   1.447   6.922   5.892  0.1670 -0.2078  0.6276
  131OSM   H14A14045   1.409   6.909   5.791 -1.9845 -1.1038  1.4749
  131OSM   H14B14046   1.528   6.992   5.883 -1.7339  1.9706 -0.5179
  131OSM   H14C14047   1.374   6.965   5.958  0.9209  0.9562  0.7221
  131OSM    C1314048   1.399   6.683   5.917 -0.5562 -0.3769  0.9034
  131OSM   H13A14049   1.376   6.686   5.812  0.8110  1.3603  0.6193
  131OSM   H13B14050   1.315   6.718   5.976 -1.3230 -1.3044  0.3876
  131OSM   H13C14051   1.431   6.592   5.967  2.4442  0.9416  1.5973
  131OSM    C1214052   1.559   6.803   6.078 -0.2393  0.5278  0.1241
  131OSM   H12A14053   1.625   6.888   6.083  0.1211  0.2157  0.7939
  131OSM   H12B14054   1.611   6.712   6.102 -0.5007  0.2996 -0.1705
  131OSM    C1114055   1.450   6.824   6.196 -0.4444 -0.0854  0.2119
  131OSM   H11A14056   1.515   6.840   6.285 -0.1075  2.6676 -0.4406
  131OSM   H11B14057   1.380   6.739   6.207 -2.2144  1.2838 -0.0110
  131OSM      P14058   1.230   6.978   6.182  0.2722 -0.3926 -0.4823
  131OSM    O1314059   1.213   7.125   6.186  0.2887  0.0979  0.9617
  131OSM    O1414060   1.184   6.896   6.072  0.0795  0.4298  0.0001
  131OSM    O1114061   1.178   6.915   6.319 -0.1689 -0.1643 -0.3175
  131OSM    O1214062   1.390   6.957   6.183  0.2064 -0.1136 -0.6106
  131OSM    C1S14063   1.198   6.997   6.434 -0.1158  0.0632  0.0977
  131OSM    H1S14064   1.160   7.101   6.420  1.0621  0.4837 -0.1008
  131OSM    H1T14065   1.305   7.005   6.465 -0.0750  0.0089 -0.0270
  131OSM     NF14066   1.123   7.042   6.653  0.0417  0.5953  0.3512
  131OSM    HNF14067   1.165   7.023   6.742  0.1796  0.9720  0.3690
  131OSM    C2S14068   1.124   6.940   6.559  0.2269  0.1497 -0.0491
  131OSM    H2S14069   1.020   6.911   6.531 -0.1607 -0.7096  2.0855
  131OSM    C3S14070   1.186   6.811   6.609  0.6394  0.1083  0.4505
  131OSM    H3S14071   1.283   6.845   6.650  1.1626 -0.6371 -0.1209
  131OSM     O314072   1.207   6.719   6.500 -0.8804  0.0534 -0.4619
  131OSM    HO314073   1.191   6.770   6.420 -1.3704 -1.0366 -1.0769
  131OSM    C4S14074   1.099   6.755   6.723  0.3691 -0.5743 -0.0342
  131OSM    H4S14075   1.136   6.790   6.820 -0.2096  0.6445 -0.2376
  131OSM    C5S14076   0.985   6.685   6.707  0.2934 -0.4231  0.2091
  131OSM    H5S14077   0.944   6.665   6.607  0.3318  2.0456 -0.3393
  131OSM    C6S14078   0.907   6.648   6.830 -0.5976 -0.0825 -0.8725
  131OSM    H6S14079   0.961   6.686   6.919  0.5102  1.2214 -2.0439
  131OSM    H6T14080   0.918   6.538   6.840 -0.1992 -0.1245 -1.6477
  131OSM    C7S14081   0.765   6.710   6.836 -0.0603  1.0296  0.2121
  131OSM    H7S14082   0.701   6.669   6.755 -0.6127  1.0331  0.6435
  131OSM    H7T14083   0.783   6.819   6.845 -0.5065  1.1584 -0.4707
  131OSM    C8S14084   0.678   6.673   6.957  0.5714 -0.0945 -0.3914
  131OSM    H8S14085   0.671   6.562   6.958 -2.7091  0.0020 -0.8083
  131OSM    H8T14086   0.576   6.712   6.934  0.8860  1.9245  1.3003
  131OSM    C9S14087   0.730   6.723   7.094  0.3688  0.2033  0.6806
  131OSM    H9S14088   0.756   6.830   7.081 -3.1986  1.1650  0.5505
  131OSM    H9T14089   0.816   6.666   7.138 -0.1650 -0.2087  1.2049
  131OSM   C10S14090   0.616   6.724   7.197  0.0701  0.4127  0.8654
  131OSM   H10S14091   0.565   6.627   7.210 -3.6322  2.3231  1.9833
  131OSM   H10T14092   0.531   6.788   7.165 -0.5371 -0.5023  0.6338
  131OSM   C11S14093   0.671   6.771   7.334 -0.0028 -0.3652 -0.1777
  131OSM   H11S14094   0.699   6.876   7.311 -1.3041 -0.3960 -2.2112
  131OSM   H11T14095   0.764   6.713   7.350 -0.1853 -0.5391  0.2776
  131OSM   C12S14096   0.574   6.775   7.450 -0.5660 -0.2296 -0.1712
  131OSM   H12S14097   0.519   6.679   7.458 -1.4127  0.0407 -2.1684
  131OSM   H12T14098   0.501   6.857   7.435 -1.3155 -0.6387  1.0966
  131OSM   C13S14099   0.649   6.795   7.588 -0.5319 -0.3329 -0.4768
  131OSM   H13S14100   0.697   6.895   7.588 -3.3923  1.1769  0.4188
  131OSM   H13T14101   0.715   6.707   7.601 -1.1659 -0.8959 -0.9904
  131OSM   C14S14102   0.555   6.792   7.710  0.2142  0.3122  0.9209
  131OSM   H14S14103   0.518   6.688   7.725  2.7822 -0.6796  0.9832
  131OSM   H14T14104   0.465   6.852   7.683  1.1541  0.6233 -1.8140
  131OSM   C15S14105   0.609   6.853   7.843  0.1138  0.1479  0.0262
  131OSM   H15S14106   0.645   6.958   7.835 -2.2330  1.0417  0.4780
  131OSM   H15T14107   0.689   6.780   7.868 -0.1232 -0.0336  0.2670
  131OSM   C16S14108   0.507   6.852   7.953 -0.8329  0.3704  0.0030
  131OSM   H16S14109   0.431   6.775   7.929  0.7227 -1.0769 -0.5213
  131OSM   H16T14110   0.461   6.952   7.943  1.0886  1.7094  3.1134
  131OSM   C17S14111   0.564   6.832   8.091 -0.6128 -0.0987  0.9979
  131OSM   H17S14112   0.481   6.842   8.164 -1.1836  0.3009  0.3060
  131OSM   H17T14113   0.627   6.918   8.118  1.2106 -1.1631  0.3283
  131OSM   C18S14114   0.644   6.704   8.112 -0.5499 -0.4047 -0.5725
  131OSM   H18S14115   0.588   6.613   8.082  1.7044 -2.3273  0.6834
  131OSM   H18T14116   0.680   6.690   8.216 -2.4182 -2.8112 -0.1709
  131OSM   H18U14117   0.731   6.710   8.043  1.0765  3.5443  1.5524
  131OSM    C1F14118   1.042   7.143   6.647 -0.8018  0.1066 -0.2883
  131OSM     OF14119   0.961   7.165   6.559  0.0867 -0.3563 -0.7762
  131OSM    C2F14120   1.053   7.238   6.765 -0.4353  0.0304  0.2092
  131OSM    H2F14121   1.157   7.277   6.762 -0.4240  0.1590  1.5484
  131OSM    H2G14122   1.044   7.171   6.853  0.4240 -2.7940 -1.7095
  131OSM    C3F14123   0.933   7.340   6.770 -0.0634  0.3499  0.0077
  131OSM    H3F14124   0.837   7.285   6.756  0.4929 -0.3286 -1.2612
  131OSM    H3G14125   0.950   7.414   6.688 -2.2663  3.3184  1.9903
  131OSM    C4F14126   0.930   7.424   6.898  0.0685  0.5187 -0.1893
  131OSM    H4F14127   0.939   7.347   6.979  1.1094  1.2841  0.4443
  131OSM    H4G14128   0.824   7.455   6.908 -0.4594 -1.6132  1.8723
  131OSM    C5F14129   1.036   7.531   6.912 -0.1400  0.2197  0.8914
  131OSM    H5F14130   1.034   7.601   6.826  0.0505 -0.6068  0.2046
  131OSM    H5G14131   1.135   7.482   6.897  0.4608  1.5850  0.2213
  131OSM    C6F14132   1.045   7.606   7.046 -0.0183  0.3180  0.7157
  131OSM    H6F14133   0.952   7.664   7.066 -0.6328 -1.0115  1.8652
  131OSM    H6G14134   1.127   7.681   7.047  0.5325 -0.2532  2.5976
  131OSM    C7F14135   1.070   7.513   7.163 -0.5527  0.4696 -0.8999
  131OSM    H7F14136   1.170   7.464   7.158  0.3540  1.3495  3.7641
  131OSM    H7G14137   0.993   7.435   7.178 -2.4597  2.4451  0.1008
  131OSM    C8F14138   1.078   7.593   7.296 -0.4507  0.2079  0.1585
  131OSM    H8F14139   1.148   7.678   7.283 -1.6821  1.4194  1.1518
  131OSM    H8G14140   1.119   7.528   7.376  2.0949  0.2820 -0.9643
  131OSM    C9F14141   0.944   7.643   7.344  0.7419 -0.9822  0.5049
  131OSM    H9F14142   0.883   7.700   7.272  1.1039 -0.3586  0.6850
  131OSM   C10F14143   0.883   7.614   7.458  0.2277  0.2925 -0.3052
  131OSM   H10F14144   0.783   7.651   7.484 -0.1111 -0.4560 -0.5054
  131OSM   C11F14145   0.940   7.525   7.572  0.2677 -0.2648  0.4867
  131OSM   H11F14146   1.050   7.506   7.577  0.2412 -0.1916  1.9220
  131OSM   H11G14147   0.893   7.425   7.565  3.6304 -1.9423 -0.2741
  131OSM   C12F14148   0.926   7.594   7.708  0.3512  0.1626  0.4953
  131OSM   H12F14149   0.822   7.632   7.715  0.3142 -0.1710  1.9831
  131OSM   H12G14150   0.993   7.683   7.714 -1.2129  1.3807  0.6086
  131OSM   C13F14151   0.955   7.503   7.827 -0.5385  0.2448 -0.4343
  131OSM   H13F14152   1.053   7.452   7.814 -0.3093  0.7849 -0.8349
  131OSM   H13G14153   0.880   7.421   7.831  0.0804 -0.3055  0.0760
  131OSM   C14F14154   0.949   7.578   7.967 -0.3037  0.7720  0.3201
  131OSM   H14F14155   0.846   7.620   7.976 -0.0253  1.6704 -0.6109
  131OSM   H14G14156   1.015   7.666   7.959  1.8791 -0.7414  0.8355
  131OSM   C15F14157   0.998   7.486   8.083  0.6296 -0.6608  0.3805
  131OSM   H15F14158   1.075   7.418   8.040  0.1005 -0.9280 -0.1595
  131OSM   H15G14159   0.918   7.414   8.112 -1.8582  1.4945 -0.8406
  131OSM   C16F14160   1.062   7.561   8.200 -0.2259 -0.6380 -0.3260
  131OSM   H16F14161   0.985   7.626   8.246  0.6358  0.4782 -0.4316
  131OSM   H16G14162   1.137   7.633   8.161  0.4831 -1.8755 -1.3439
  131OSM   C17F14163   1.143   7.470   8.301  0.2213  0.2435  0.0836
  131OSM   H17F14164   1.231   7.515   8.351  0.3076  1.5411 -1.1701
  131OSM   H17G14165   1.183   7.380   8.248  0.4064 -0.1761  0.9165
  131OSM   C18F14166   1.043   7.420   8.402  0.5736 -0.0464  0.2401
  131OSM   H18F14167   1.093   7.367   8.486 -0.2278  1.1996  1.5507
  131OSM   H18G14168   0.971   7.355   8.349 -0.9221  2.5533 -1.1315
  131OSM   H18H14169   0.988   7.500   8.456  0.9741  1.2376 -1.1695
  132OSM      N14170   4.081   4.380   6.239 -0.1458  0.0532  0.8823
  132OSM    C1514171   3.953   4.439   6.183 -0.1282 -0.5504  0.2667
  132OSM   H15A14172   3.896   4.468   6.271 -1.4898 -0.1502 -0.7194
  132OSM   H15B14173   3.903   4.370   6.117  1.5371 -0.6470 -0.9360
  132OSM   H15C14174   3.975   4.522   6.118 -0.8168  0.1746  0.9207
  132OSM    C1414175   4.069   4.257   6.323 -0.3299  0.4750  0.0321
  132OSM   H14A14176   4.163   4.214   6.353 -0.4066 -0.1397 -0.5803
  132OSM   H14B14177   4.015   4.183   6.266  1.3016  1.2043 -2.6276
  132OSM   H14C14178   4.007   4.271   6.411 -0.4237 -4.1478  1.0002
  132OSM    C1314179   4.153   4.340   6.112 -0.3231  0.3956 -0.1730
  132OSM   H13A14180   4.096   4.275   6.048 -0.6480 -1.4369  1.8725
  132OSM   H13B14181   4.239   4.277   6.130 -1.0784 -0.3393  1.0346
  132OSM   H13C14182   4.197   4.426   6.063  0.3889 -0.1544 -0.5156
  132OSM    C1214183   4.160   4.482   6.316  0.1035 -0.0669 -1.0429
  132OSM   H12A14184   4.187   4.561   6.247 -2.7875  0.5245 -1.6324
  132OSM   H12B14185   4.254   4.445   6.353  0.3663  0.5962 -1.0245
  132OSM    C1114186   4.084   4.556   6.427  0.4134 -0.4557 -0.2182
  132OSM   H11A14187   4.153   4.603   6.500 -1.6988  0.5621  1.2176
  132OSM   H11B14188   4.027   4.482   6.487  0.3272  0.2080  0.5302
  132OSM      P14189   4.044   4.793   6.316  0.0365 -0.0198 -0.1978
  132OSM    O1314190   4.173   4.769   6.249 -0.3803 -0.1757 -0.5653
  132OSM    O1414191   3.931   4.859   6.242  0.6132  0.9943 -0.0165
  132OSM    O1114192   4.079   4.884   6.445 -0.1177  1.0986 -0.1976
  132OSM    O1214193   3.989   4.655   6.372 -0.4239 -0.0877 -0.6221
  132OSM    C1S14194   3.972   4.904   6.539 -0.3790 -0.1252 -0.5588
  132OSM    H1S14195   3.870   4.865   6.517 -0.5371 -2.2625  2.9804
  132OSM    H1T14196   3.977   5.006   6.583  1.8459  0.4643 -2.0330
  132OSM     NF14197   3.904   4.875   6.788 -0.5088 -0.1666  0.2315
  132OSM    HNF14198   3.926   4.947   6.853 -1.6369  1.0392 -0.6862
  132OSM    C2S14199   4.006   4.833   6.686  0.7075  0.2432  0.4009
  132OSM    H2S14200   4.002   4.723   6.669 -1.0866  0.4184 -0.6604
  132OSM    C3S14201   4.158   4.861   6.729  0.1204 -1.3861  0.0837
  132OSM    H3S14202   4.174   4.970   6.717 -0.0489 -1.3130  0.4938
  132OSM     O314203   4.253   4.808   6.639 -0.4758 -0.5884  0.3142
  132OSM    HO314204   4.205   4.816   6.556  0.7328 -0.0754 -0.3571
  132OSM    C4S14205   4.184   4.823   6.873  0.1084  0.5235 -0.3016
  132OSM    H4S14206   4.200   4.904   6.946 -0.2728  0.4950 -0.1821
  132OSM    C5S14207   4.216   4.697   6.921  0.3182 -0.8126 -0.5253
  132OSM    H5S14208   4.244   4.618   6.850  2.1080  0.2072 -1.0112
  132OSM    C6S14209   4.249   4.688   7.068  0.2592  0.5275 -0.2254
  132OSM    H6S14210   4.233   4.787   7.116 -1.1483 -0.1216  0.7122
  132OSM    H6T14211   4.355   4.658   7.081 -0.3921 -1.3113  1.3737
  132OSM    C7S14212   4.164   4.590   7.146  0.5595  0.3806 -0.2197
  132OSM    H7S14213   4.182   4.492   7.097 -1.7015  0.5612 -1.5114
  132OSM    H7T14214   4.058   4.614   7.126  0.5457  0.9505  0.5008
  132OSM    C8S14215   4.199   4.599   7.292  0.0544  0.2165  0.3774
  132OSM    H8S14216   4.188   4.702   7.332 -2.1599  0.7863 -1.4739
  132OSM    H8T14217   4.308   4.576   7.300  0.2633  0.6672 -0.9049
  132OSM    C9S14218   4.109   4.512   7.383  0.1984  0.1912  0.3866
  132OSM    H9S14219   4.095   4.429   7.310 -0.7554  3.0794 -2.9776
  132OSM    H9T14220   4.006   4.554   7.384  0.9324  2.1108  2.3119
  132OSM   C10S14221   4.158   4.480   7.520  0.5009  1.0196  0.4525
  132OSM   H10S14222   4.262   4.443   7.510 -0.0780 -0.7873  0.6702
  132OSM   H10T14223   4.104   4.394   7.566  1.5440 -0.8631 -1.6533
  132OSM   C11S14224   4.139   4.594   7.619 -0.0486 -0.0487 -0.3828
  132OSM   H11S14225   4.038   4.638   7.611 -0.3124 -0.3284  1.0967
  132OSM   H11T14226   4.222   4.666   7.602 -0.0527 -0.4481 -2.3703
  132OSM   C12S14227   4.138   4.537   7.764  0.6975  0.6426 -0.0618
  132OSM   H12S14228   4.246   4.511   7.776 -0.0516 -2.2433  1.4474
  132OSM   H12T14229   4.077   4.444   7.758  1.3222  0.3139 -3.0557
  132OSM   C13S14230   4.090   4.624   7.880  0.2142 -0.4808 -0.3500
  132OSM   H13S14231   3.988   4.661   7.854  1.4713  1.1545 -3.5753
  132OSM   H13T14232   4.165   4.705   7.893 -1.5272  1.0399  0.6620
  132OSM   C14S14233   4.087   4.550   8.013 -0.2037  0.0305  1.3176
  132OSM   H14S14234   4.185   4.497   8.020 -0.0361 -0.0751 -1.0443
  132OSM   H14T14235   4.018   4.464   8.003 -0.4883  0.5167 -2.6851
  132OSM   C15S14236   4.056   4.639   8.132 -0.0694 -0.0401  0.9070
  132OSM   H15S14237   3.999   4.726   8.093  3.3483  2.3184  0.6963
  132OSM   H15T14238   4.149   4.688   8.170 -0.5847  1.1551  0.6906
  132OSM   C16S14239   3.989   4.574   8.258 -0.8996 -0.4412  0.5658
  132OSM   H16S14240   3.982   4.661   8.328  2.6072  1.4511 -1.1687
  132OSM   H16T14241   4.057   4.508   8.316 -1.2706 -0.8298  0.5602
  132OSM   C17S14242   3.851   4.503   8.238 -0.4416 -0.3688  0.0086
  132OSM   H17S14243   3.868   4.429   8.158  2.5561  0.5047 -0.2992
  132OSM   H17T14244   3.783   4.579   8.193 -1.4324 -1.6259 -0.6803
  132OSM   C18S14245   3.799   4.441   8.367 -0.1987 -0.4365  0.6678
  132OSM   H18S14246   3.815   4.513   8.451 -1.4035  1.5970 -0.7588
  132OSM   H18T14247   3.838   4.338   8.377  2.8794  0.5341 -0.0893
  132OSM   H18U14248   3.689   4.428   8.359  0.0014 -1.1294 -1.6678
  132OSM    C1F14249   3.782   4.851   6.767 -0.3774 -0.3812 -0.8631
  132OSM     OF14250   3.747   4.776   6.676  0.8778  0.1593 -0.4897
  132OSM    C2F14251   3.683   4.924   6.855 -0.3932 -0.0149 -0.2241
  132OSM    H2F14252   3.631   5.010   6.808 -2.0678  0.9929  3.1666
  132OSM    H2G14253   3.724   4.971   6.946  0.0355 -1.2285  0.2306
  132OSM    C3F14254   3.581   4.814   6.901 -1.2193 -0.3253  0.3875
  132OSM    H3F14255   3.637   4.733   6.952 -0.9187 -0.3623  0.0060
  132OSM    H3G14256   3.522   4.773   6.816 -0.4812  2.6746 -1.7499
  132OSM    C4F14257   3.472   4.867   7.000 -0.0564  0.5024 -0.1402
  132OSM    H4F14258   3.410   4.782   7.035 -0.0618  0.1834 -0.9193
  132OSM    H4G14259   3.411   4.941   6.944  1.9041  1.8317 -0.6487
  132OSM    C5F14260   3.502   4.954   7.125 -0.6886 -0.0176  0.3715
  132OSM    H5F14261   3.411   5.004   7.164 -0.4742  0.9134 -0.2885
  132OSM    H5G14262   3.577   5.031   7.096 -1.4372  0.7090  0.3252
  132OSM    C6F14263   3.553   4.868   7.239  0.9054 -0.0632 -0.5447
  132OSM    H6F14264   3.661   4.853   7.216  1.0243 -0.4474  0.2448
  132OSM    H6G14265   3.502   4.770   7.235  2.5943 -0.9672 -0.9899
  132OSM    C7F14266   3.538   4.935   7.377 -0.0985 -0.5856  0.6509
  132OSM    H7F14267   3.591   5.032   7.373 -0.4494 -0.4432 -1.4210
  132OSM    H7G14268   3.589   4.865   7.447 -0.4510 -0.0574  1.4465
  132OSM    C8F14269   3.391   4.948   7.425  0.3097  0.8643 -0.0212
  132OSM    H8F14270   3.336   5.030   7.375 -0.0973  0.7213  0.1848
  132OSM    H8G14271   3.395   5.003   7.522  1.2089  1.5588 -0.4404
  132OSM    C9F14272   3.308   4.820   7.429  0.4470 -0.4681  0.4064
  132OSM    H9F14273   3.288   4.774   7.331  0.3150  2.1026 -0.8546
  132OSM   C10F14274   3.263   4.761   7.540 -0.3020  0.6086 -0.3735
  132OSM   H10F14275   3.196   4.674   7.533  0.5990 -0.1803  0.4570
  132OSM   C11F14276   3.296   4.798   7.685  0.2442 -0.3086  0.7490
  132OSM   H11F14277   3.330   4.904   7.684 -0.8920  0.0713 -0.7392
  132OSM   H11G14278   3.382   4.737   7.720  1.4085 -0.3483 -1.9392
  132OSM   C12F14279   3.170   4.789   7.780  0.2808  0.2224  0.0845
  132OSM   H12F14280   3.094   4.860   7.740  0.1919 -0.8507 -1.7191
  132OSM   H12G14281   3.200   4.820   7.883  0.3026  1.0576 -0.1622
  132OSM   C13F14282   3.090   4.654   7.785  0.2061  0.2842  0.3386
  132OSM   H13F14283   3.168   4.576   7.799 -0.2276 -0.6896 -2.1288
  132OSM   H13G14284   3.038   4.637   7.688 -1.4908  1.1100  1.0748
  132OSM   C14F14285   2.989   4.638   7.902 -0.5736 -0.3434  0.3235
  132OSM   H14F14286   3.043   4.676   7.991 -1.9515  1.0873  0.5914
  132OSM   H14G14287   2.960   4.532   7.919 -1.0232 -0.4361 -0.9290
  132OSM   C15F14288   2.861   4.718   7.873 -0.0024  0.4098  0.2734
  132OSM   H15F14289   2.847   4.712   7.763  1.4895 -1.6419  0.1307
  132OSM   H15G14290   2.866   4.827   7.895 -0.6371  0.7570 -1.1931
  132OSM   C16F14291   2.732   4.671   7.938  0.4324  0.4094 -0.0380
  132OSM   H16F14292   2.757   4.680   8.046  0.3033  0.9077 -0.0475
  132OSM   H16G14293   2.711   4.565   7.911  0.9410  0.0467  0.9398
  132OSM   C17F14294   2.627   4.776   7.907 -0.7454  0.0438  0.3909
  132OSM   H17F14295   2.669   4.875   7.879 -1.0169 -0.1325 -0.6937
  132OSM   H17G14296   2.571   4.780   8.002  2.7819  0.4928  2.6336
  132OSM   C18F14297   2.539   4.734   7.788  0.7887 -0.4627 -0.9748
  132OSM   H18F14298   2.466   4.814   7.768 -0.8716 -1.0726  2.0706
  132OSM   H18G14299   2.479   4.646   7.819 -1.3549  1.7932  1.8561
  132OSM   H18H14300   2.602   4.716   7.698  1.2070 -1.1497 -0.5642
  133SAPE     N14301   3.675   5.124  10.574 -1.1968  0.4861  0.1271
  133SAPE   HN114302   3.634   5.096  10.665  0.3059 -0.8133  0.4609
  133SAPE   HN214303   3.726   5.214  10.578  0.9558 -0.4871 -2.2897
  133SAPE   HN314304   3.602   5.128  10.500 -1.7736  0.4336  0.6927
  133SAPE   C1214305   3.785   5.017  10.549  0.1460  0.6303  0.4310
  133SAPE  H12A14306   3.857   5.064  10.479 -0.8837  0.2133 -0.9539
  133SAPE  H12B14307   3.736   4.931  10.498 -0.1582  0.8339  0.3740
  133SAPE   C1114308   3.850   4.953  10.674  0.2780  0.2724  0.0500
  133SAPE  H11A14309   3.909   4.862  10.650  0.9374  0.3870  1.1803
  133SAPE  H11B14310   3.760   4.938  10.737 -0.3780 -0.6326 -1.0580
  133SAPE     P14311   4.077   5.085  10.680 -0.3318 -0.1979  0.1460
  133SAPE   O1314312   4.071   5.221  10.623  0.3098  0.6206 -0.3815
  133SAPE   O1414313   4.179   5.073  10.786  0.6469  0.6109  0.9989
  133SAPE   O1214314   3.940   5.047  10.735  0.4714 -0.1938  0.1622
  133SAPE   O1114315   4.095   4.981  10.565 -0.6642 -0.0931  0.9414
  133SAPE    C114316   4.200   4.883  10.576 -0.5416  0.0708  0.0304
  133SAPE    HA14317   4.194   4.828  10.672  0.7991 -1.4241 -0.7013
  133SAPE    HB14318   4.186   4.814  10.490 -0.3647  0.0952 -0.0189
  133SAPE    C214319   4.348   4.930  10.563 -0.1621 -0.0381  0.4039
  133SAPE    HS14320   4.392   4.962  10.660  0.2236  1.9836 -0.3990
  133SAPE   O2114321   4.356   5.035  10.467  0.4200 -0.4639  0.1751
  133SAPE   C2114322   4.466   5.113  10.473 -0.2761  0.3628 -0.1786
  133SAPE   O2214323   4.561   5.101  10.549 -0.0088 -0.1926 -0.5727
  133SAPE   C2214324   4.453   5.226  10.374  0.2016 -0.7465  0.7190
  133SAPE   H2R14325   4.361   5.204  10.315  0.9914  0.5248 -1.0770
  133SAPE   H2S14326   4.447   5.326  10.421 -0.2093 -0.8931  0.9886
  133SAPE    C314327   4.440   4.805  10.521  0.4818 -0.6429  0.2043
  133SAPE    HX14328   4.415   4.741  10.608 -0.9076 -0.5891 -0.1198
  133SAPE    HY14329   4.541   4.850  10.526 -0.2767  1.3130 -0.9429
  133SAPE   O3114330   4.400   4.744  10.395 -0.2163  0.6443  0.6874
  133SAPE   C3114331   4.427   4.617  10.385 -1.0014 -0.4708  0.8744
  133SAPE   O3214332   4.491   4.551  10.468  0.0744  0.9855  0.6739
  133SAPE   C3214333   4.375   4.562  10.252 -0.0153 -0.0779  0.0093
  133SAPE   H2X14334   4.445   4.594  10.172  0.8977 -1.8033  0.0647
  133SAPE   H2Y14335   4.281   4.619  10.238 -0.5539 -0.6423  1.1690
  133SAPE   C2314336   4.574   5.232  10.277 -0.6016  0.1821 -0.2200
  133SAPE   H3R14337   4.666   5.220  10.338  0.1082  1.4365 -0.9901
  133SAPE   H3S14338   4.602   5.335  10.247  0.8306  0.4129  1.7567
  133SAPE   C2414339   4.575   5.127  10.166 -0.1615  0.2169 -0.2701
  133SAPE   H4R14340   4.575   5.023  10.206 -1.5839 -0.2234 -1.3264
  133SAPE   H4S14341   4.678   5.141  10.128  0.8382 -1.9498  1.4011
  133SAPE   C2514342   4.464   5.146  10.065 -0.1506 -0.0277  0.0490
  133SAPE   H5R14343   4.367   5.099  10.085 -1.4190  2.6758  0.7933
  133SAPE   C2614344   4.483   5.216   9.945  0.5448 -0.2705  0.2733
  133SAPE   H6R14345   4.394   5.236   9.884 -0.2708  1.1987  1.8572
  133SAPE   C2714346   4.616   5.286   9.899 -0.2345 -0.0774 -0.6007
  133SAPE   H7R14347   4.678   5.295   9.990  0.0826 -0.0301 -0.8201
  133SAPE   H7S14348   4.589   5.384   9.853  0.1018 -0.0885 -0.8264
  133SAPE   C2814349   4.691   5.207   9.799  0.3725 -0.2245  0.3956
  133SAPE   H8R14350   4.741   5.114   9.829 -1.8706 -2.5402 -2.4215
  133SAPE   C2914351   4.689   5.234   9.671  0.4543  0.8367  0.2135
  133SAPE   H9R14352   4.744   5.172   9.598 -2.3515  1.6148 -2.8249
  133SAPE  C21014353   4.612   5.344   9.600  0.0150  0.1718 -0.1034
  133SAPE  H10R14354   4.609   5.437   9.661  0.1442  2.3913 -3.2168
  133SAPE  H10S14355   4.505   5.319   9.583  0.2270 -2.4588  1.9146
  133SAPE  C21114356   4.690   5.380   9.471  0.3479  0.0113  0.1241
  133SAPE  H11R14357   4.762   5.462   9.488  0.8084 -0.2724 -0.4196
  133SAPE  C21214358   4.683   5.327   9.351  0.5716 -0.0942 -0.1362
  133SAPE  H12R14359   4.749   5.361   9.269 -1.6662  1.0924 -1.5542
  133SAPE  C21314360   4.593   5.209   9.333 -0.0818  0.3400  0.2327
  133SAPE  H13R14361   4.551   5.172   9.429 -0.7610 -0.4759 -0.3661
  133SAPE  H13S14362   4.654   5.128   9.287 -0.6852 -1.4966  2.4570
  133SAPE  C21414363   4.470   5.250   9.254 -0.0247 -0.0690  0.0612
  133SAPE  H14R14364   4.393   5.300   9.315 -0.3912  0.2887 -0.6834
  133SAPE  C21514365   4.460   5.250   9.120  0.6054 -0.2371  0.4802
  133SAPE  H15R14366   4.367   5.289   9.076  1.2521 -0.4654 -1.1757
  133SAPE  C21614367   4.569   5.199   9.025  0.1263 -0.6258 -0.0641
  133SAPE  H16R14368   4.667   5.190   9.076  0.5951 -0.1628 -0.8506
  133SAPE  H16S14369   4.565   5.261   8.932 -0.8853 -1.7412 -0.8046
  133SAPE  C21714370   4.544   5.058   8.959 -0.4020 -0.2945  0.2929
  133SAPE  H17R14371   4.442   5.054   8.914  0.0464  0.2292 -0.8247
  133SAPE  H17S14372   4.542   4.983   9.040  0.9579 -0.5779  0.0863
  133SAPE  C21814373   4.639   5.027   8.843  0.0346  0.3878 -0.3924
  133SAPE  H18R14374   4.740   5.030   8.888 -0.8673 -1.0745  1.8791
  133SAPE  H18S14375   4.636   5.118   8.778  2.9261  0.6123 -0.3466
  133SAPE  C21914376   4.609   4.901   8.776 -0.0685  0.1338  0.2409
  133SAPE  H19R14377   4.554   4.837   8.848 -1.6092 -1.1530 -1.9645
  133SAPE  H19S14378   4.711   4.858   8.761  0.0659  0.9177 -1.2256
  133SAPE  C22014379   4.528   4.916   8.647 -0.0877  0.3045 -0.2196
  133SAPE  H20R14380   4.431   4.963   8.671 -0.4231 -0.2679 -0.4318
  133SAPE  H20S14381   4.492   4.816   8.616  0.4985 -0.0370  0.1779
  133SAPE  H20T14382   4.577   4.969   8.563 -0.9480  1.2117 -0.1727
  133SAPE   C3314383   4.340   4.413  10.238 -0.2844  0.1471 -0.1852
  133SAPE   H3X14384   4.288   4.388  10.333  0.9817  0.4392  0.6037
  133SAPE   H3Y14385   4.428   4.346  10.248  0.9219  1.8534  1.1175
  133SAPE   C3414386   4.272   4.370  10.109  0.4161 -0.2733  0.5765
  133SAPE   H4X14387   4.162   4.377  10.127  0.1086 -1.8504 -0.4351
  133SAPE   H4Y14388   4.299   4.265  10.089  0.8040 -0.2926  1.1891
  133SAPE   C3514389   4.312   4.448   9.978 -0.2082 -0.5815  0.2916
  133SAPE   H5X14390   4.418   4.479   9.985  0.0998 -1.5324 -0.0541
  133SAPE   H5Y14391   4.256   4.544   9.976  1.6784  0.5492 -1.4366
  133SAPE   C3614392   4.279   4.369   9.848  0.3057 -0.5934 -0.0733
  133SAPE   H6X14393   4.177   4.325   9.860 -0.6463  1.1490 -1.4194
  133SAPE   H6Y14394   4.351   4.285   9.835  0.2373 -0.6271 -0.2330
  133SAPE   C3714395   4.290   4.445   9.722  0.2192 -0.3398 -0.6455
  133SAPE   H7X14396   4.395   4.481   9.715  0.5637 -0.3922  2.8340
  133SAPE   H7Y14397   4.212   4.523   9.735 -0.6944 -1.1706 -1.0159
  133SAPE   C3814398   4.269   4.366   9.590  0.0819  0.1264 -0.2974
  133SAPE   H8X14399   4.303   4.261   9.602 -0.8554 -0.2465 -0.7832
  133SAPE   H8Y14400   4.349   4.409   9.527 -0.5760  1.0085 -0.5572
  133SAPE   C3914401   4.128   4.386   9.519 -0.2824 -0.0089 -0.4189
  133SAPE   H9X14402   4.133   4.495   9.497  3.0142 -0.2549 -1.3818
  133SAPE   H9Y14403   4.043   4.367   9.589  1.4734  0.8908  2.1312
  133SAPE  C31014404   4.133   4.314   9.385 -0.6521  0.0672 -0.8379
  133SAPE  H10X14405   4.185   4.216   9.398 -1.2856 -0.1791 -0.1036
  133SAPE  H10Y14406   4.198   4.378   9.321  1.5401 -2.1333 -0.9876
  133SAPE  C31114407   4.004   4.283   9.313 -0.6696  0.4165 -0.4863
  133SAPE  H11X14408   3.934   4.368   9.327 -0.5293  0.3254  0.9094
  133SAPE  H11Y14409   3.951   4.205   9.372 -1.3551  1.9559  1.0441
  133SAPE  C31214410   4.026   4.240   9.172 -1.0918 -0.0291 -0.0905
  133SAPE  H12X14411   4.081   4.143   9.167 -0.1972  0.5119 -1.5373
  133SAPE  H12Y14412   4.088   4.318   9.122 -0.3298  1.8909  3.5373
  133SAPE  C31314413   3.892   4.229   9.106 -0.1334 -0.6639 -0.6420
  133SAPE  H13X14414   3.835   4.318   9.141 -0.9562 -1.3516 -0.1742
  133SAPE  H13Y14415   3.832   4.149   9.156  0.5764 -1.5804 -1.2364
  133SAPE  C31414416   3.900   4.203   8.956 -0.0430 -0.3741  0.4716
  133SAPE  H14X14417   3.997   4.158   8.930 -0.8509 -1.6454 -0.4571
  133SAPE  H14Y14418   3.883   4.305   8.914 -1.3246 -0.1691  1.4186
  133SAPE  C31514419   3.780   4.116   8.901 -0.2740  0.2543  0.0825
  133SAPE  H15X14420   3.697   4.186   8.921  0.7199  1.3273  0.5891
  133SAPE  H15Y14421   3.774   4.020   8.957  2.4646  0.7211  1.3362
  133SAPE  C31614422   3.785   4.096   8.755 -0.6664  0.5715 -0.1851
  133SAPE  H16X14423   3.865   4.025   8.724 -0.4708  1.3922 -1.6447
  133SAPE  H16Y14424   3.810   4.197   8.717  1.0430  0.9935  1.9090
  133SAPE  C31714425   3.649   4.050   8.695  0.1222 -0.0916 -0.2105
  133SAPE  H17X14426   3.573   4.107   8.752 -1.2821 -2.6449  0.6185
  133SAPE  H17Y14427   3.640   3.949   8.738  0.9980 -1.3678 -2.7897
  133SAPE  C31814428   3.635   4.065   8.541  0.3802 -0.7471  0.4848
  133SAPE  H18X14429   3.605   4.167   8.509 -0.2381 -1.1471 -0.2556
  133SAPE  H18Y14430   3.550   4.005   8.502  0.0574  0.2930 -0.4536
  133SAPE  H18Z14431   3.729   4.040   8.487  0.7022 -1.1892  1.2337
  134SAPE     N14432   6.733   2.279  10.806  0.5341 -0.4773  0.1953
  134SAPE   HN114433   6.765   2.349  10.876  1.3603  1.4156 -1.9506
  134SAPE   HN214434   6.667   2.328  10.742 -1.5374 -0.5763  2.1342
  134SAPE   HN314435   6.686   2.198  10.851  1.4059 -1.0067  0.1879
  134SAPE   C1214436   6.851   2.231  10.728 -0.1673 -0.5110  0.6450
  134SAPE  H12A14437   6.806   2.152  10.664 -0.5269  2.4961 -3.1923
  134SAPE  H12B14438   6.920   2.170  10.790  1.4324 -1.1901 -1.6638
  134SAPE   C1114439   6.939   2.337  10.660  0.7439 -0.2112 -0.2818
  134SAPE  H11A14440   7.024   2.286  10.608  0.6254 -1.1891  0.4648
  134SAPE  H11B14441   6.969   2.401  10.746  0.7277  1.8924 -1.7613
  134SAPE     P14442   6.888   2.560  10.527  0.2893 -0.2799 -0.1646
  134SAPE   O1314443   6.760   2.635  10.532 -0.1930 -0.7667  0.0237
  134SAPE   O1414444   6.996   2.617  10.607 -0.0967  0.0817 -0.4602
  134SAPE   O1214445   6.859   2.412  10.565  0.1603  0.7404  0.0231
  134SAPE   O1114446   6.939   2.567  10.373  0.1457 -0.6222  0.2317
  134SAPE    C114447   7.047   2.482  10.332  0.6918  0.0271 -0.5920
  134SAPE    HA14448   7.128   2.550  10.298 -0.0526  0.7611 -0.9585
  134SAPE    HB14449   7.098   2.419  10.407 -0.7423 -0.6974 -0.1834
  134SAPE    C214450   7.010   2.394  10.214  0.8305 -0.0892  0.2698
  134SAPE    HS14451   7.104   2.364  10.162 -0.2255 -0.1269 -1.7199
  134SAPE   O2114452   6.925   2.467  10.129 -0.4106  0.0769  0.1944
  134SAPE   C2114453   6.990   2.558  10.062  0.1978  0.0626  0.6787
  134SAPE   O2214454   7.112   2.575  10.062 -0.0091  1.0471 -0.2191
  134SAPE   C2214455   6.897   2.637   9.969 -0.2578  0.6966 -0.0544
  134SAPE   H2R14456   6.807   2.573   9.953  0.9069 -1.1761  0.6486
  134SAPE   H2S14457   6.860   2.719  10.034 -1.1138  0.0825  0.2481
  134SAPE    C314458   6.943   2.255  10.255 -0.2511  0.6074  0.2261
  134SAPE    HX14459   6.866   2.274  10.333  0.3140  2.6783  0.3380
  134SAPE    HY14460   7.017   2.193  10.310 -1.6966 -0.7545  0.7414
  134SAPE   O3114461   6.899   2.178  10.143 -0.4995  0.1827  0.7943
  134SAPE   C3114462   6.989   2.099  10.082 -0.2197 -0.0619  0.5951
  134SAPE   O3214463   7.097   2.067  10.127 -0.2139  0.0340 -0.4696
  134SAPE   C3214464   6.930   2.055   9.948  0.3757 -0.3605 -0.5226
  134SAPE   H2X14465   6.892   2.137   9.884  0.9659  0.9997  0.8106
  134SAPE   H2Y14466   6.849   1.983   9.971 -0.4832  0.7953  0.1597
  134SAPE   C2314467   6.961   2.682   9.829 -0.5047  0.3518  0.4919
  134SAPE   H3R14468   7.011   2.598   9.777 -0.3997  1.3421 -1.0814
  134SAPE   H3S14469   7.033   2.765   9.848 -0.1614 -0.0519  0.9846
  134SAPE   C2414470   6.861   2.751   9.733  0.4919  0.9557  0.2155
  134SAPE   H4R14471   6.915   2.828   9.675 -0.3448  0.8521 -0.7344
  134SAPE   H4S14472   6.782   2.807   9.786 -1.6190 -2.0966  0.6012
  134SAPE   C2514473   6.797   2.657   9.637  0.0332 -0.0840 -0.2229
  134SAPE   H5R14474   6.720   2.591   9.678  1.6124 -3.2673 -2.0196
  134SAPE   C2614475   6.819   2.649   9.498 -0.3605  0.2168  0.1015
  134SAPE   H6R14476   6.758   2.577   9.443  0.8131  0.7692 -2.0549
  134SAPE   C2714477   6.920   2.724   9.405  0.1657  0.0934  0.1314
  134SAPE   H7R14478   6.984   2.790   9.467  0.0536 -0.0437  0.3926
  134SAPE   H7S14479   6.866   2.803   9.348  0.3718  0.8037  0.9066
  134SAPE   C2814480   7.003   2.631   9.318 -0.5967 -0.2295  0.3730
  134SAPE   H8R14481   7.110   2.629   9.340 -0.7480 -0.4295  1.1377
  134SAPE   C2914482   6.956   2.557   9.214  0.2714  0.2486  0.1566
  134SAPE   H9R14483   7.031   2.499   9.157  0.3426 -0.2731  0.7654
  134SAPE  C21014484   6.819   2.546   9.154  0.1489 -0.1743  0.3678
  134SAPE  H10R14485   6.747   2.535   9.238  0.9453 -2.9714  0.7899
  134SAPE  H10S14486   6.818   2.450   9.099 -0.4780  0.2379 -0.3495
  134SAPE  C21114487   6.784   2.650   9.055  0.3411 -0.1603 -0.2944
  134SAPE  H11R14488   6.698   2.713   9.082  0.0665 -1.3726  1.9025
  134SAPE  C21214489   6.838   2.663   8.928  0.2630  0.1360  0.3070
  134SAPE  H12R14490   6.798   2.744   8.866  0.3693 -1.2286 -1.6118
  134SAPE  C21314491   6.944   2.576   8.860 -0.0746  0.2467 -0.2049
  134SAPE  H13R14492   6.926   2.557   8.753  1.9359 -0.1909 -0.5041
  134SAPE  H13S14493   6.929   2.481   8.915 -0.9335  0.3881 -0.1812
  134SAPE  C21414494   7.081   2.637   8.899  0.0259  0.5478 -0.2282
  134SAPE  H14R14495   7.107   2.642   9.006 -0.5669 -1.9392  0.1073
  134SAPE  C21514496   7.147   2.707   8.810 -0.0422 -0.7067 -0.0012
  134SAPE  H15R14497   7.240   2.758   8.837 -0.9876  0.9452  0.3425
  134SAPE  C21614498   7.103   2.723   8.669 -0.4322  0.4573  0.7285
  134SAPE  H16R14499   6.996   2.752   8.670 -0.0791  1.8278  0.7097
  134SAPE  H16S14500   7.110   2.624   8.620 -1.6059  0.9670 -0.5176
  134SAPE  C21714501   7.173   2.837   8.589  0.7643 -0.2552  0.0019
  134SAPE  H17R14502   7.282   2.822   8.603  0.3575 -2.7268  1.1460
  134SAPE  H17S14503   7.147   2.930   8.643  1.6687 -0.8807  1.5771
  134SAPE  C21814504   7.138   2.847   8.442  1.0729  0.2899 -0.3273
  134SAPE  H18R14505   7.181   2.942   8.403 -0.2849  1.2412  0.4178
  134SAPE  H18S14506   7.027   2.846   8.433  0.9360 -1.4621  0.9458
  134SAPE  C21914507   7.205   2.732   8.362 -0.1548 -0.4741  0.9332
  134SAPE  H19R14508   7.154   2.634   8.375 -0.4757 -0.5562 -0.6699
  134SAPE  H19S14509   7.304   2.712   8.407  0.7943 -0.4166 -1.0006
  134SAPE  C22014510   7.221   2.784   8.211 -0.2303  0.2563 -0.4225
  134SAPE  H20R14511   7.271   2.882   8.220 -0.1610  0.1119  1.0006
  134SAPE  H20S14512   7.119   2.796   8.168 -0.2894  1.0658 -0.0697
  134SAPE  H20T14513   7.274   2.711   8.146  0.5571 -0.6132  1.1407
  134SAPE   C3314514   7.046   1.995   9.869 -0.2425  0.0153 -0.7253
  134SAPE   H3X14515   7.094   1.905   9.912 -0.3299  0.1245 -0.4000
  134SAPE   H3Y14516   7.125   2.071   9.851 -0.5642 -0.1412 -3.1133
  134SAPE   C3414517   6.998   1.947   9.729  0.0763  0.0573 -0.2584
  134SAPE   H4X14518   6.961   2.043   9.688  0.8513  0.3369 -0.3260
  134SAPE   H4Y14519   6.915   1.874   9.741 -1.1047  1.1843 -1.2969
  134SAPE   C3514520   7.110   1.891   9.640 -0.0080 -0.5881  0.4006
  134SAPE   H5X14521   7.146   1.799   9.690  1.1408 -0.4784 -0.1976
  134SAPE   H5Y14522   7.195   1.962   9.628  2.4529 -3.5824 -1.1625
  134SAPE   C3614523   7.058   1.860   9.496  0.1509  0.0215 -0.4502
  134SAPE   H6X14524   7.143   1.880   9.427 -0.2922  1.0079 -0.7288
  134SAPE   H6Y14525   6.981   1.936   9.471 -0.7404 -1.4910 -2.4617
  134SAPE   C3714526   6.993   1.715   9.477 -0.0717 -0.2766  0.3271
  134SAPE   H7X14527   6.941   1.681   9.568 -1.3048  0.8629  0.0827
  134SAPE   H7Y14528   7.069   1.637   9.451  0.0304 -0.0957  0.0699
  134SAPE   C3814529   6.881   1.715   9.371  0.0166  0.0631  0.1245
  134SAPE   H8X14530   6.811   1.801   9.378  2.4205  2.1597 -0.0794
  134SAPE   H8Y14531   6.823   1.621   9.380 -0.6308  0.4015 -0.3908
  134SAPE   C3914532   6.937   1.734   9.230 -0.1266  0.0935 -0.4205
  134SAPE   H9X14533   7.007   1.656   9.193 -0.8606  0.1357 -2.0122
  134SAPE   H9Y14534   6.996   1.827   9.213  0.6420 -0.4510 -0.7704
  134SAPE  C31014535   6.831   1.738   9.120  0.3039 -0.1730 -0.0239
  134SAPE  H10X14536   6.769   1.828   9.135  1.2940  0.3533  1.1438
  134SAPE  H10Y14537   6.769   1.647   9.129 -0.4843  0.4837  1.5161
  134SAPE  C31114538   6.885   1.753   8.977  0.1465 -0.6181  0.0923
  134SAPE  H11X14539   6.944   1.662   8.952 -0.1482 -0.6377 -0.5336
  134SAPE  H11Y14540   6.947   1.846   8.975  0.9274 -1.0924  1.0126
  134SAPE  C31214541   6.768   1.768   8.876  0.0205 -0.9036  0.2944
  134SAPE  H12X14542   6.763   1.870   8.834  0.2049 -0.3123  1.6466
  134SAPE  H12Y14543   6.675   1.755   8.936 -0.2671  0.2046  0.1039
  134SAPE  C31314544   6.771   1.668   8.755 -0.3202 -0.5783 -0.3547
  134SAPE  H13X14545   6.694   1.698   8.681 -1.1535  0.8324  1.0313
  134SAPE  H13Y14546   6.742   1.567   8.791  0.4101 -0.2109  1.3815
  134SAPE  C31414547   6.908   1.652   8.684  0.1906 -0.9642 -0.4557
  134SAPE  H14X14548   6.991   1.623   8.751  0.3401 -0.1143 -0.2667
  134SAPE  H14Y14549   6.934   1.754   8.647  0.5455 -0.4170  1.2145
  134SAPE  C31514550   6.901   1.547   8.572 -0.9841 -0.4673  0.2509
  134SAPE  H15X14551   6.810   1.579   8.516 -0.4543  2.0050  0.6455
  134SAPE  H15Y14552   6.873   1.448   8.614  0.7458 -1.2935 -0.4514
  134SAPE  C31614553   7.015   1.542   8.474 -0.5350 -0.3961  0.2752
  134SAPE  H16X14554   7.022   1.630   8.408 -0.8700 -1.1429 -0.7765
  134SAPE  H16Y14555   7.004   1.450   8.413  1.0158 -0.5904  0.2362
  134SAPE  C31714556   7.150   1.518   8.555  0.1965 -0.0984  0.9955
  134SAPE  H17X14557   7.129   1.435   8.625  4.0035 -3.2359 -1.1663
  134SAPE  H17Y14558   7.178   1.610   8.610  3.0953 -1.0396  1.2299
  134SAPE  C31814559   7.264   1.480   8.455  0.5539  0.6279 -0.1918
  134SAPE  H18X14560   7.354   1.460   8.517  0.1736  2.4819  1.0294
  134SAPE  H18Y14561   7.291   1.565   8.388 -0.2111  2.2899  1.5103
  134SAPE  H18Z14562   7.236   1.395   8.390 -3.1033  1.3779  0.1542
  135SAPE     N14563   4.001   2.979  10.659  0.3987 -0.4622  0.6667
  135SAPE   HN114564   3.901   3.005  10.672  0.8388  1.8936 -0.0998
  135SAPE   HN214565   4.018   2.878  10.675 -0.3042 -1.2851 -2.8017
  135SAPE   HN314566   4.059   3.031  10.728 -0.6157  1.7318 -0.0407
  135SAPE   C1214567   4.043   3.012  10.517 -0.3148  0.1194 -0.4095
  135SAPE  H12A14568   3.992   2.947  10.443  1.7508 -3.4262  1.0441
  135SAPE  H12B14569   4.153   2.997  10.513 -0.3304 -0.9147  1.7893
  135SAPE   C1114570   4.009   3.158  10.478  0.3615  1.0256  0.0276
  135SAPE  H11A14571   3.899   3.161  10.463  0.2441 -0.5843  0.4288
  135SAPE  H11B14572   4.056   3.176  10.379  1.8316  0.2531  0.5503
  135SAPE     P14573   4.205   3.282  10.610 -0.1138 -0.3586 -0.3677
  135SAPE   O1314574   4.212   3.408  10.687 -0.1122 -0.2885 -0.1619
  135SAPE   O1414575   4.245   3.158  10.681 -0.1574  0.2328 -0.0643
  135SAPE   O1214576   4.052   3.259  10.565  0.7574  0.1886 -0.1071
  135SAPE   O1114577   4.284   3.291  10.471  0.1226  0.6191 -0.2850
  135SAPE    C114578   4.274   3.408  10.393  0.3302  0.0691 -0.4305
  135SAPE    HA14579   4.167   3.437  10.384  0.7865  1.7043 -0.9371
  135SAPE    HB14580   4.324   3.488  10.451  0.6173  1.0214 -1.9264
  135SAPE    C214581   4.332   3.400  10.250  0.0497 -0.2666  0.1233
  135SAPE    HS14582   4.297   3.491  10.197 -1.3903 -0.4104  0.7854
  135SAPE   O2114583   4.293   3.275  10.191 -0.4374  0.5082 -0.5900
  135SAPE   C2114584   4.275   3.271  10.059  0.3656  0.4954 -0.6219
  135SAPE   O2214585   4.280   3.371   9.994 -0.1354  0.2582 -0.2588
  135SAPE   C2214586   4.241   3.132  10.016  0.0953 -0.3689  0.0982
  135SAPE   H2R14587   4.313   3.063  10.066  1.9776  1.7458  0.4773
  135SAPE   H2S14588   4.138   3.107  10.049  0.3559 -1.6746 -0.0239
  135SAPE    C314589   4.483   3.405  10.274  0.3279  0.3421 -0.0865
  135SAPE    HX14590   4.522   3.313  10.323 -1.9169 -0.1451  0.9164
  135SAPE    HY14591   4.498   3.494  10.339  0.8700  0.6739 -0.6583
  135SAPE   O3114592   4.559   3.420  10.156  0.1967 -0.1911 -0.2190
  135SAPE   C3114593   4.561   3.536  10.092 -0.0465  0.0678 -0.0918
  135SAPE   O3214594   4.516   3.638  10.133  0.6379 -0.3550  0.3928
  135SAPE   C3214595   4.618   3.514   9.952 -0.0411 -0.8774 -0.1613
  135SAPE   H2X14596   4.532   3.485   9.888  0.5546 -0.4704 -1.1785
  135SAPE   H2Y14597   4.678   3.420   9.954 -1.9166 -2.1472 -0.6751
  135SAPE   C2314598   4.256   3.104   9.861 -0.3902  0.5727  0.0501
  135SAPE   H3R14599   4.190   3.157   9.789  0.9067 -0.5740 -2.0681
  135SAPE   H3S14600   4.210   3.005   9.842 -1.9306  1.4329 -0.9099
  135SAPE   C2414601   4.407   3.105   9.812 -0.7316  0.9956  0.4042
  135SAPE   H4R14602   4.456   3.027   9.874 -0.7316  1.1539  0.6061
  135SAPE   H4S14603   4.461   3.196   9.845  1.1180  0.6602 -1.5252
  135SAPE   C2514604   4.408   3.075   9.666 -0.6783  0.0051  0.0824
  135SAPE   H5R14605   4.409   2.966   9.648 -2.0252  0.0110 -0.1222
  135SAPE   C2614606   4.415   3.166   9.565 -0.4677  0.7364  0.3113
  135SAPE   H6R14607   4.405   3.134   9.460 -0.7564  0.8079  0.3169
  135SAPE   C2714608   4.426   3.310   9.593  0.2446 -0.2036 -0.4889
  135SAPE   H7R14609   4.480   3.359   9.510 -1.2343 -0.7125 -1.8161
  135SAPE   H7S14610   4.488   3.323   9.684 -1.9268  2.2618  0.7927
  135SAPE   C2814611   4.296   3.394   9.618  0.4325 -0.1179  0.8073
  135SAPE   H8R14612   4.271   3.401   9.725  1.7869 -0.1175  1.1379
  135SAPE   C2914613   4.218   3.441   9.523  0.1087 -0.8340  0.4236
  135SAPE   H9R14614   4.117   3.482   9.544 -1.0082 -2.1573 -1.9521
  135SAPE  C21014615   4.249   3.420   9.374  0.6552 -0.1433  0.4811
  135SAPE  H10R14616   4.329   3.346   9.352 -0.6662 -0.5955 -3.6590
  135SAPE  H10S14617   4.302   3.509   9.334  0.4527 -0.1586  0.1744
  135SAPE  C21114618   4.129   3.399   9.283  0.5049 -0.8113  0.3989
  135SAPE  H11R14619   4.028   3.405   9.326  0.3167 -1.9539  0.1565
  135SAPE  C21214620   4.142   3.373   9.151  0.1081  0.4245 -0.0609
  135SAPE  H12R14621   4.045   3.360   9.101 -0.2522 -1.7798  1.0799
  135SAPE  C21314622   4.265   3.350   9.068  0.3828  0.1598  0.3414
  135SAPE  H13R14623   4.352   3.344   9.137 -0.6949  1.3129  1.8596
  135SAPE  H13S14624   4.289   3.442   9.011 -0.7875  1.5041  1.9328
  135SAPE  C21414625   4.251   3.236   8.974 -0.3499  0.0574  0.8652
  135SAPE  H14R14626   4.278   3.132   8.999 -2.2627 -1.5420 -2.8815
  135SAPE  C21514627   4.236   3.249   8.842  0.1273 -0.0131 -0.0878
  135SAPE  H15R14628   4.248   3.161   8.778 -3.5334  0.8510 -2.2362
  135SAPE  C21614629   4.202   3.377   8.763 -0.5396 -0.0532 -0.1123
  135SAPE  H16R14630   4.285   3.416   8.700 -0.0874  0.3906  0.7325
  135SAPE  H16S14631   4.169   3.463   8.825  0.7829  1.2795 -1.1786
  135SAPE  C21714632   4.088   3.370   8.658 -0.1620 -0.5644 -0.2606
  135SAPE  H17R14633   4.116   3.320   8.563 -0.5302  1.1816 -1.3567
  135SAPE  H17S14634   4.070   3.477   8.630  2.1924 -0.5149 -1.7966
  135SAPE  C21814635   3.947   3.325   8.706  0.0325  0.0653 -0.4939
  135SAPE  H18R14636   3.959   3.225   8.752  0.6921  1.1740  1.9106
  135SAPE  H18S14637   3.872   3.326   8.624 -1.6137 -0.9957  0.9281
  135SAPE  C21914638   3.897   3.413   8.823  0.1883 -0.0195  0.2978
  135SAPE  H19R14639   3.887   3.508   8.765 -0.7594  0.6590  1.5161
  135SAPE  H19S14640   3.959   3.417   8.915  0.4111 -1.1350  0.2086
  135SAPE  C22014641   3.749   3.377   8.859 -0.0386  0.5900 -0.0877
  135SAPE  H20R14642   3.744   3.284   8.920  0.1843  1.0624  0.6651
  135SAPE  H20S14643   3.695   3.362   8.763 -1.6542 -2.5206  1.1776
  135SAPE  H20T14644   3.698   3.454   8.920 -2.0284 -0.5352 -0.2223
  135SAPE   C3314645   4.697   3.629   9.887 -0.2511  0.1572  0.9876
  135SAPE   H3X14646   4.792   3.639   9.944  1.8406 -0.8432 -2.0863
  135SAPE   H3Y14647   4.644   3.727   9.894 -1.1556 -0.0810 -1.4198
  135SAPE   C3414648   4.738   3.604   9.738  0.0128 -0.8957  0.1881
  135SAPE   H4X14649   4.789   3.508   9.715  1.2621 -0.0543 -0.7296
  135SAPE   H4Y14650   4.800   3.692   9.709 -2.4123  0.5421 -0.9351
  135SAPE   C3514651   4.625   3.619   9.637  0.5640 -0.4253  0.0317
  135SAPE   H5X14652   4.573   3.714   9.662 -0.0492 -0.2950 -1.5829
  135SAPE   H5Y14653   4.552   3.536   9.635 -0.1340  0.1871 -1.4553
  135SAPE   C3614654   4.687   3.645   9.493 -0.2535 -0.5623 -0.1383
  135SAPE   H6X14655   4.740   3.549   9.473 -1.4522 -0.8578 -2.2006
  135SAPE   H6Y14656   4.759   3.729   9.488 -2.1266  1.1343  0.0866
  135SAPE   C3714657   4.581   3.655   9.385  0.2024 -0.2813  0.6614
  135SAPE   H7X14658   4.543   3.759   9.374 -0.1076 -0.5017 -0.4792
  135SAPE   H7Y14659   4.494   3.592   9.415  0.0626 -0.0805  0.6775
  135SAPE   C3814660   4.633   3.601   9.248 -0.5760 -0.7838  0.0345
  135SAPE   H8X14661   4.660   3.495   9.270 -1.2531 -1.1707 -0.9291
  135SAPE   H8Y14662   4.728   3.651   9.219  0.2844 -1.0053  2.2474
  135SAPE   C3914663   4.519   3.601   9.134  0.1703  0.4560  0.1858
  135SAPE   H9X14664   4.482   3.699   9.096 -1.3366 -0.9485 -2.2749
  135SAPE   H9Y14665   4.429   3.547   9.170 -0.1142 -0.7483 -2.1499
  135SAPE  C31014666   4.566   3.519   9.010  0.1294  0.0110  0.5864
  135SAPE  H10X14667   4.475   3.486   8.955 -0.2037  1.1730  0.3957
  135SAPE  H10Y14668   4.625   3.429   9.035  0.8706 -0.2503 -1.8491
  135SAPE  C31114669   4.648   3.603   8.915 -0.0225  0.1379  0.0889
  135SAPE  H11X14670   4.725   3.660   8.970  1.2504 -0.1716 -1.3054
  135SAPE  H11Y14671   4.579   3.683   8.878  2.5915  1.4410 -2.4226
  135SAPE  C31214672   4.692   3.516   8.798 -0.0570  0.2954 -0.1438
  135SAPE  H12X14673   4.615   3.441   8.770 -0.2092 -0.4143  1.9527
  135SAPE  H12Y14674   4.783   3.460   8.828  0.9003  1.8733 -0.0097
  135SAPE  C31314675   4.726   3.601   8.672 -0.6321 -0.8216 -0.1380
  135SAPE  H13X14676   4.780   3.684   8.723 -1.3580 -1.0532  1.0402
  135SAPE  H13Y14677   4.626   3.630   8.635 -0.6526 -0.9956 -0.2175
  135SAPE  C31414678   4.821   3.527   8.572 -0.6420  1.1076 -0.8667
  135SAPE  H14X14679   4.760   3.441   8.537 -1.1959  1.2262 -0.2047
  135SAPE  H14Y14680   4.906   3.486   8.630 -1.2909  0.3338 -0.4481
  135SAPE  C31514681   4.877   3.611   8.452 -0.3017  0.2310 -0.1176
  135SAPE  H15X14682   4.925   3.542   8.379  1.4335  1.0690  0.1764
  135SAPE  H15Y14683   4.952   3.683   8.492 -0.2605 -0.0474  0.3102
  135SAPE  C31614684   4.772   3.706   8.399 -0.0477 -0.0079 -0.3617
  135SAPE  H16X14685   4.722   3.763   8.480  1.0538 -0.4386  0.6542
  135SAPE  H16Y14686   4.710   3.643   8.332  0.3648 -0.1138 -0.6516
  135SAPE  C31714687   4.822   3.812   8.299 -0.6372  0.0816 -0.3789
  135SAPE  H17X14688   4.863   3.897   8.357 -1.9861 -0.4672  1.4939
  135SAPE  H17Y14689   4.729   3.856   8.258 -2.8360  1.4192  5.1544
  135SAPE  C31814690   4.921   3.765   8.194 -0.0691  0.4905 -0.2011
  135SAPE  H18X14691   4.947   3.843   8.119  0.9252  1.8325  1.4535
  135SAPE  H18Y14692   4.888   3.667   8.154  2.9846  0.0620 -1.9336
  135SAPE  H18Z14693   5.022   3.745   8.236  1.7341  5.3375 -1.4709
  136SAPE     N14694   2.786   2.101  10.947 -0.3223 -0.4718 -0.2068
  136SAPE   HN114695   2.759   2.132  11.042  0.6145  0.4429 -0.2210
  136SAPE   HN214696   2.856   2.170  10.913 -1.4547  1.1526  0.6581
  136SAPE   HN314697   2.700   2.102  10.889 -1.3164 -1.7854  1.1596
  136SAPE   C1214698   2.841   1.963  10.952 -0.8773 -0.1299 -0.6861
  136SAPE  H12A14699   2.756   1.897  10.922 -1.3855 -0.0896  0.6122
  136SAPE  H12B14700   2.863   1.939  11.058 -1.3477  2.1338 -0.0213
  136SAPE   C1114701   2.964   1.947  10.858  0.2409  1.0310 -0.3480
  136SAPE  H11A14702   2.935   1.956  10.752 -1.3925 -0.5914 -0.0802
  136SAPE  H11B14703   3.006   1.844  10.857 -1.8509  0.1210 -0.0710
  136SAPE     P14704   3.114   2.161  10.808 -0.0447  0.1443 -0.1245
  136SAPE   O1314705   2.991   2.243  10.819 -0.3380 -0.4774 -0.2592
  136SAPE   O1414706   3.242   2.210  10.858 -0.3229  0.2295 -0.1490
  136SAPE   O1214707   3.069   2.031  10.895 -0.0694  0.5013  0.5226
  136SAPE   O1114708   3.119   2.090  10.665 -0.6397 -0.4360 -0.5465
  136SAPE    C114709   3.247   2.070  10.600  0.3444 -0.0783 -0.0644
  136SAPE    HA14710   3.278   2.159  10.541  0.6382 -0.9321 -1.2304
  136SAPE    HB14711   3.333   2.035  10.663 -0.9262 -0.6833  1.4083
  136SAPE    C214712   3.246   1.959  10.488 -0.3672 -0.1783  0.5134
  136SAPE    HS14713   3.346   1.911  10.488 -0.0675  0.4352  0.8315
  136SAPE   O2114714   3.196   2.019  10.366  0.0196  0.1117 -0.5112
  136SAPE   C2114715   3.258   1.982  10.253 -0.5353  1.0304  0.1871
  136SAPE   O2214716   3.358   1.908  10.249 -1.0179 -0.9671 -0.4045
  136SAPE   C2214717   3.183   2.029  10.133 -0.0125  0.0013  0.2887
  136SAPE   H2R14718   3.079   2.051  10.164 -1.0092 -0.2432 -2.5802
  136SAPE   H2S14719   3.236   2.125  10.110  2.6941 -1.5899 -0.6180
  136SAPE    C314720   3.144   1.847  10.530  0.5016 -0.3088 -0.6536
  136SAPE    HX14721   3.036   1.871  10.528  0.9470  2.6799  1.8944
  136SAPE    HY14722   3.133   1.836  10.640 -3.8760  1.9011 -0.6493
  136SAPE   O3114723   3.163   1.717  10.466  0.0777  0.3830  0.3848
  136SAPE   C3114724   3.077   1.667  10.380  0.0209  0.1453  0.0066
  136SAPE   O3214725   2.959   1.696  10.377  0.6233  0.0116  0.2151
  136SAPE   C3214726   3.139   1.561  10.299  0.2041 -0.1003 -0.0823
  136SAPE   H2X14727   3.166   1.477  10.366  0.0839 -0.3579 -0.3542
  136SAPE   H2Y14728   3.225   1.600  10.241  0.5771 -1.9458 -0.8429
  136SAPE   C2314729   3.191   1.953   9.997 -0.0480 -0.3722  0.1561
  136SAPE   H3R14730   3.142   1.855  10.012 -1.3344  0.3079  0.5084
  136SAPE   H3S14731   3.293   1.935   9.956 -0.7833 -1.2908 -1.3543
  136SAPE   C2414732   3.115   2.033   9.891  0.0473  0.1351  0.2064
  136SAPE   H4R14733   3.017   2.066   9.929  0.6623  1.7355  0.4498
  136SAPE   H4S14734   3.094   1.972   9.800  0.9104  0.8304 -0.4817
  136SAPE   C2514735   3.194   2.151   9.849  0.2736  0.2929  0.0138
  136SAPE   H5R14736   3.198   2.228   9.927  1.0858  0.2840 -0.0117
  136SAPE   C2614737   3.264   2.176   9.735  0.5164 -0.5283 -0.5490
  136SAPE   H6R14738   3.310   2.275   9.721 -0.6069 -0.0413 -0.9140
  136SAPE   C2714739   3.279   2.085   9.614 -0.0483  0.0283 -0.5866
  136SAPE   H7R14740   3.234   1.986   9.637  0.9930 -0.2965  0.1352
  136SAPE   H7S14741   3.380   2.059   9.575  0.1372  0.1555 -0.1921
  136SAPE   C2814742   3.201   2.147   9.495 -0.0738 -0.4350 -0.8260
  136SAPE   H8R14743   3.091   2.149   9.507  0.2481  1.5660  3.0767
  136SAPE   C2914744   3.255   2.204   9.387  0.2642 -0.0658 -0.4795
  136SAPE   H9R14745   3.186   2.246   9.312  0.5438  0.5154 -0.4112
  136SAPE  C21014746   3.404   2.218   9.345  0.2820 -0.2429  0.1697
  136SAPE  H10R14747   3.470   2.176   9.424 -2.0574 -1.3130  1.6960
  136SAPE  H10S14748   3.425   2.327   9.350  1.0739 -0.4292  1.9288
  136SAPE  C21114749   3.433   2.170   9.212 -0.4855 -0.8951 -0.5095
  136SAPE  H11R14750   3.385   2.228   9.133 -2.5632 -0.1588  1.1966
  136SAPE  C21214751   3.496   2.049   9.184  0.6069 -0.4697 -0.2400
  136SAPE  H12R14752   3.521   2.029   9.079 -1.6737  2.4087 -1.4955
  136SAPE  C21314753   3.541   1.946   9.280  0.0098  0.2079  0.2227
  136SAPE  H13R14754   3.579   1.989   9.375 -0.6337 -0.0007  0.5805
  136SAPE  H13S14755   3.623   1.882   9.242  0.7170 -0.3524  2.5027
  136SAPE  C21414756   3.430   1.857   9.323 -0.2831 -0.4351 -0.1431
  136SAPE  H14R14757   3.340   1.854   9.261 -0.7012 -1.3568  0.4781
  136SAPE  C21514758   3.446   1.752   9.408  0.3725 -0.7168 -0.4575
  136SAPE  H15R14759   3.360   1.694   9.445  0.8908  0.9749  3.9164
  136SAPE  C21614760   3.569   1.718   9.478  0.1651 -0.3810 -0.4717
  136SAPE  H16R14761   3.651   1.765   9.418  0.9381  1.3572  1.7989
  136SAPE  H16S14762   3.588   1.609   9.464 -0.8148 -0.5882 -0.2131
  136SAPE  C21714763   3.562   1.761   9.622 -0.4154  0.6509 -0.0897
  136SAPE  H17R14764   3.514   1.859   9.641 -0.0922  0.2337  3.6107
  136SAPE  H17S14765   3.670   1.768   9.646 -0.5421  2.1410  0.1177
  136SAPE  C21814766   3.485   1.664   9.717 -0.0960  0.1028 -0.6596
  136SAPE  H18R14767   3.542   1.568   9.726 -1.1057 -0.4714 -0.1915
  136SAPE  H18S14768   3.393   1.638   9.661  0.0788  1.7902 -1.7890
  136SAPE  C21914769   3.457   1.737   9.851  0.1644  0.5508  0.5715
  136SAPE  H19R14770   3.409   1.833   9.824  0.5308  0.5209 -0.2239
  136SAPE  H19S14771   3.556   1.762   9.894  1.4179  0.9431 -2.3512
  136SAPE  C22014772   3.385   1.650   9.952  0.2119 -0.6700 -0.1927
  136SAPE  H20R14773   3.338   1.716  10.028 -0.1195 -2.1205  0.9157
  136SAPE  H20S14774   3.452   1.575   9.999 -0.4853 -0.6784  0.8263
  136SAPE  H20T14775   3.306   1.587   9.905  1.5584 -1.1411 -1.9274
  136SAPE   C3314776   3.052   1.493  10.198  0.3364  0.5187  0.0905
  136SAPE   H3X14777   2.950   1.467  10.234 -0.3259  1.4653 -1.0096
  136SAPE   H3Y14778   3.110   1.401  10.176  1.9269  0.5864  3.4001
  136SAPE   C3414779   3.037   1.577  10.078  1.6839 -0.3138 -0.1752
  136SAPE   H4X14780   3.109   1.660  10.064 -0.1117  1.2576 -0.5584
  136SAPE   H4Y14781   2.944   1.637  10.086  0.8506 -1.7385  1.7443
  136SAPE   C3514782   3.022   1.489   9.955  0.3457 -0.5709  0.7291
  136SAPE   H5X14783   2.935   1.422   9.975  0.4959 -0.8361  0.5015
  136SAPE   H5Y14784   3.109   1.420   9.951  2.0592  1.4799  1.0978
  136SAPE   C3614785   2.987   1.563   9.819  0.4412  0.6059 -0.7781
  136SAPE   H6X14786   3.079   1.623   9.799  1.7398 -1.0970 -0.1915
  136SAPE   H6Y14787   2.910   1.643   9.825  0.9850  1.0915 -0.1380
  136SAPE   C3714788   2.971   1.464   9.704  0.4752  0.1230  0.5515
  136SAPE   H7X14789   2.876   1.409   9.719  1.3255 -1.8725 -0.9463
  136SAPE   H7Y14790   3.052   1.388   9.701  0.4236  0.0223  1.5195
  136SAPE   C3814791   2.967   1.522   9.563  1.4079  0.6951  0.4306
  136SAPE   H8X14792   2.911   1.618   9.565 -0.2895 -0.2414 -0.2028
  136SAPE   H8Y14793   2.924   1.445   9.496 -1.0066  0.6151  1.9441
  136SAPE   C3914794   3.101   1.559   9.498  0.2005 -0.0192 -1.4153
  136SAPE   H9X14795   3.169   1.473   9.516 -0.4747 -0.5004 -1.1257
  136SAPE   H9Y14796   3.136   1.645   9.559  0.0385 -1.3450  0.6504
  136SAPE  C31014797   3.101   1.590   9.346  0.4571  0.3473  0.3510
  136SAPE  H10X14798   3.078   1.490   9.303  0.8816  0.3986  0.0002
  136SAPE  H10Y14799   3.201   1.626   9.315  1.1154 -2.0496 -0.5251
  136SAPE  C31114800   2.996   1.696   9.298 -0.8228 -0.1304  1.3128
  136SAPE  H11X14801   2.895   1.650   9.311 -1.3183 -1.1110 -3.9399
  136SAPE  H11Y14802   3.010   1.686   9.188 -3.0130  1.4591  0.8281
  136SAPE  C31214803   3.022   1.834   9.347 -0.3980 -0.1254  0.5780
  136SAPE  H12X14804   3.127   1.858   9.319 -1.2213  1.9040 -1.0888
  136SAPE  H12Y14805   3.025   1.828   9.458  0.4510 -1.1483  0.5109
  136SAPE  C31314806   2.928   1.947   9.302  0.1341 -0.9413 -0.0809
  136SAPE  H13X14807   2.955   2.041   9.354 -0.3645 -0.1947 -1.1367
  136SAPE  H13Y14808   2.824   1.921   9.331 -0.4160 -0.1150 -1.2455
  136SAPE  C31414809   2.933   1.977   9.151  0.2910  0.0096  0.7329
  136SAPE  H14X14810   2.854   2.045   9.113  1.9264 -0.5206 -4.3699
  136SAPE  H14Y14811   2.915   1.885   9.091  0.5709 -0.3546  1.2030
  136SAPE  C31514812   3.066   2.041   9.110 -0.2203  0.3917 -0.5557
  136SAPE  H15X14813   3.149   1.967   9.109 -1.5125 -1.0816 -0.3762
  136SAPE  H15Y14814   3.081   2.116   9.191 -0.7721 -0.1124  0.0167
  136SAPE  C31614815   3.063   2.117   8.982 -0.4068 -0.7209  0.6779
  136SAPE  H16X14816   2.981   2.191   8.967 -0.2800 -0.8048 -0.5230
  136SAPE  H16Y14817   3.047   2.043   8.901 -1.9792  0.6425 -0.3392
  136SAPE  C31714818   3.198   2.188   8.950 -0.3903 -0.3495  0.3568
  136SAPE  H17X14819   3.274   2.107   8.965 -1.0425 -0.7752  1.4725
  136SAPE  H17Y14820   3.198   2.270   9.025  0.7635  2.0680 -2.1102
  136SAPE  C31814821   3.209   2.232   8.806  0.4466  0.2557  0.6068
  136SAPE  H18X14822   3.114   2.273   8.764  0.0636  0.1713  1.3632
  136SAPE  H18Y14823   3.238   2.141   8.751 -0.9301  0.9821 -1.4832
  136SAPE  H18Z14824   3.284   2.312   8.789  1.3614 -0.4033  1.4117
  137SAPE     N14825   0.246   3.465  10.521 -0.0683 -0.5503  0.2242
  137SAPE   HN114826   0.288   3.532  10.453  0.9131 -0.7318  0.6385
  137SAPE   HN214827   0.212   3.379  10.473 -1.8438 -0.2368  0.8546
  137SAPE   HN314828   0.167   3.510  10.571 -1.7180 -0.7865 -2.0345
  137SAPE   C1214829   0.348   3.434  10.629  0.1637 -0.1455 -0.0953
  137SAPE  H12A14830   0.373   3.536  10.667 -0.6149  0.6270 -1.5689
  137SAPE  H12B14831   0.435   3.381  10.585 -0.0864 -0.0715 -0.6839
  137SAPE   C1114832   0.291   3.355  10.752  0.5104 -0.5693  0.4486
  137SAPE  H11A14833   0.232   3.435  10.801  1.8021 -0.0673  1.2243
  137SAPE  H11B14834   0.376   3.315  10.811  0.6763  2.4580  2.4621
  137SAPE     P14835   0.104   3.170  10.788 -0.0345  0.1422 -0.2927
  137SAPE   O1314836   0.175   3.115  10.911  0.3420 -0.0633  0.1399
  137SAPE   O1414837  -0.023   3.243  10.793  0.3447 -0.0360 -0.0530
  137SAPE   O1214838   0.205   3.250  10.700 -0.5514 -0.1670 -0.1863
  137SAPE   O1114839   0.071   3.040  10.703 -1.0185  0.0453 -0.1216
  137SAPE    C114840   0.169   2.955  10.647  0.5930 -0.0555  0.0729
  137SAPE    HA14841   0.265   2.949  10.702  0.9673  1.5171 -0.3654
  137SAPE    HB14842   0.121   2.855  10.641 -0.6498  0.5365 -0.2749
  137SAPE    C214843   0.201   2.995  10.506 -0.7034 -0.5365 -0.1858
  137SAPE    HS14844   0.271   3.079  10.519  1.6919 -2.2314 -1.3661
  137SAPE   O2114845   0.071   3.030  10.453  0.2146  0.3272 -0.0452
  137SAPE   C2114846   0.066   3.152  10.397 -0.0712  0.0360 -0.0012
  137SAPE   O2214847   0.160   3.226  10.380  0.2609 -0.0942  0.1293
  137SAPE   C2214848  -0.073   3.175  10.350  0.1757  0.1428  0.5473
  137SAPE   H2R14849  -0.139   3.087  10.364 -1.2289  0.2215 -3.8707
  137SAPE   H2S14850  -0.127   3.265  10.386  0.2022  1.0385 -1.5205
  137SAPE    C314851   0.278   2.883  10.423  0.1930 -0.3008 -0.2816
  137SAPE    HX14852   0.208   2.801  10.396  1.4554 -1.5247  0.0085
  137SAPE    HY14853   0.354   2.842  10.494  0.6940 -2.4736 -1.9612
  137SAPE   O3114854   0.341   2.941  10.314 -0.1211 -0.3380 -0.2826
  137SAPE   C3114855   0.272   2.941  10.200  0.0925  0.8239 -0.7134
  137SAPE   O3214856   0.157   2.892  10.181 -0.4333 -0.6199  0.3097
  137SAPE   C3214857   0.370   2.979  10.087 -0.9000 -0.2349 -0.1929
  137SAPE   H2X14858   0.394   3.085  10.113 -0.8096 -0.3430  0.1592
  137SAPE   H2Y14859   0.318   2.980   9.989  1.9864  0.4016 -1.8338
  137SAPE   C2314860  -0.073   3.206  10.202  0.2461  0.6580  0.5224
  137SAPE   H3R14861  -0.024   3.124  10.145 -0.3767  0.3365  0.4426
  137SAPE   H3S14862  -0.018   3.299  10.178  0.7804  0.0994 -0.5083
  137SAPE   C2414863  -0.223   3.223  10.140 -0.1167  0.2928 -0.3238
  137SAPE   H4R14864  -0.217   3.314  10.077 -2.1807  1.1364  0.6187
  137SAPE   H4S14865  -0.278   3.250  10.233  2.3199  0.7419  1.0713
  137SAPE   C2514866  -0.277   3.104  10.064  0.4179  0.1299  0.1527
  137SAPE   H5R14867  -0.294   3.010  10.118  0.9076  0.1514  0.3470
  137SAPE   C2614868  -0.318   3.098   9.937  0.1486 -0.7111  0.2012
  137SAPE   H6R14869  -0.362   3.003   9.905 -1.2958  0.2453 -0.7743
  137SAPE   C2714870  -0.320   3.215   9.840 -0.3895 -1.0113  0.4307
  137SAPE   H7R14871  -0.230   3.206   9.776 -1.1794 -3.1912 -0.4725
  137SAPE   H7S14872  -0.303   3.310   9.894  1.0061 -1.6856  1.2444
  137SAPE   C2814873  -0.448   3.210   9.769  0.1579  0.7070  0.8751
  137SAPE   H8R14874  -0.539   3.235   9.825  0.7022  3.4217  0.6788
  137SAPE   C2914875  -0.459   3.164   9.640  0.3421  0.3913 -0.1489
  137SAPE   H9R14876  -0.551   3.171   9.580  1.6886  1.2273 -2.2220
  137SAPE  C21014877  -0.347   3.111   9.561  0.1679  0.7933 -0.7527
  137SAPE  H10R14878  -0.374   3.019   9.503  0.7063  1.4355 -2.0599
  137SAPE  H10S14879  -0.272   3.065   9.629 -0.7592 -0.6082 -0.6259
  137SAPE  C21114880  -0.274   3.199   9.462 -0.5549  0.7895  0.3551
  137SAPE  H11R14881  -0.295   3.307   9.474 -0.7404  0.9370 -1.0927
  137SAPE  C21214882  -0.190   3.163   9.369 -0.1938  0.1611  0.2440
  137SAPE  H12R14883  -0.137   3.242   9.314  1.0708 -0.1162  1.0072
  137SAPE  C21314884  -0.135   3.023   9.349 -0.1034 -0.1379 -0.1585
  137SAPE  H13R14885  -0.222   2.955   9.357 -1.0132  0.5776 -2.7462
  137SAPE  H13S14886  -0.069   2.990   9.432 -0.9343 -1.7387 -0.0921
  137SAPE  C21414887  -0.065   2.999   9.215  0.9946 -0.3646  0.2487
  137SAPE  H14R14888   0.043   3.021   9.216  1.7392 -3.4637  2.7018
  137SAPE  C21514889  -0.127   2.968   9.103 -0.1738 -0.1179 -0.5469
  137SAPE  H15R14890  -0.077   2.966   9.005 -1.1487 -1.2082 -1.0502
  137SAPE  C21614891  -0.277   2.946   9.092 -0.2877 -0.1866  0.5897
  137SAPE  H16R14892  -0.342   2.982   9.175  1.4668 -1.3400  2.5572
  137SAPE  H16S14893  -0.302   2.838   9.087  0.3530 -0.3882  1.4837
  137SAPE  C21714894  -0.330   3.021   8.971  0.9146 -0.0319 -0.1382
  137SAPE  H17R14895  -0.306   3.129   8.979 -2.7041  0.9337 -0.6155
  137SAPE  H17S14896  -0.440   3.029   8.972  0.9289  0.4171  1.8551
  137SAPE  C21814897  -0.280   2.950   8.843 -0.1506  0.6882 -0.1900
  137SAPE  H18R14898  -0.294   2.841   8.856 -2.7463  0.9704 -0.1164
  137SAPE  H18S14899  -0.171   2.968   8.830  0.5611 -1.2321  2.3354
  137SAPE  C21914900  -0.351   3.003   8.718  0.0426 -0.0103 -0.6767
  137SAPE  H19R14901  -0.377   3.112   8.720  1.9026  0.5343 -2.8246
  137SAPE  H19S14902  -0.447   2.947   8.729  0.0322  0.0865 -0.2595
  137SAPE  C22014903  -0.280   2.964   8.596  0.3918 -1.0426 -0.5649
  137SAPE  H20R14904  -0.246   2.858   8.590  3.4277 -0.1093 -1.8862
  137SAPE  H20S14905  -0.183   3.017   8.585  1.4836 -1.6638  4.0255
  137SAPE  H20T14906  -0.347   2.982   8.509  1.4720 -1.1515 -1.4451
  137SAPE   C3314907   0.487   2.879  10.076 -0.4664  0.2790  0.3589
  137SAPE   H3X14908   0.446   2.784  10.033  1.7859 -0.1151 -1.0890
  137SAPE   H3Y14909   0.534   2.843  10.169  2.5664  0.3900 -1.0190
  137SAPE   C3414910   0.604   2.933   9.996  0.1443 -0.0054  0.0420
  137SAPE   H4X14911   0.692   2.875  10.031 -0.0273 -1.9602 -2.4489
  137SAPE   H4Y14912   0.618   3.038  10.030  1.0132  0.2497 -1.0621
  137SAPE   C3514913   0.577   2.924   9.842 -0.1184 -0.6430 -0.0344
  137SAPE   H5X14914   0.666   2.971   9.794 -1.4611  1.3506 -0.7022
  137SAPE   H5Y14915   0.488   2.990   9.834  1.5752  1.7497 -0.1677
  137SAPE   C3614916   0.550   2.791   9.773  0.1297  0.7996  0.0766
  137SAPE   H6X14917   0.466   2.756   9.837  0.0492  1.9659  0.6246
  137SAPE   H6Y14918   0.632   2.717   9.776 -0.3893  0.0217 -2.3732
  137SAPE   C3714919   0.486   2.792   9.630 -0.1711  0.5160  0.3508
  137SAPE   H7X14920   0.398   2.861   9.639 -1.3218 -0.8070 -0.3733
  137SAPE   H7Y14921   0.446   2.691   9.607 -1.7420  1.3128 -0.5868
  137SAPE   C3814922   0.580   2.855   9.525 -0.7266  0.4941  0.7567
  137SAPE   H8X14923   0.687   2.830   9.542 -0.3092  0.3565 -1.7001
  137SAPE   H8Y14924   0.581   2.966   9.527 -0.6502  0.4895  1.1475
  137SAPE   C3914925   0.562   2.794   9.381 -1.3680 -0.3793 -0.9042
  137SAPE   H9X14926   0.629   2.847   9.310 -1.5906 -1.2903 -1.8080
  137SAPE   H9Y14927   0.457   2.821   9.357 -0.8652  0.7287 -1.9644
  137SAPE  C31014928   0.571   2.636   9.365  0.1749 -0.1768  0.0223
  137SAPE  H10X14929   0.502   2.572   9.424  2.1084  0.0100  2.6644
  137SAPE  H10Y14930   0.669   2.601   9.405  0.3731  0.1458 -0.1766
  137SAPE  C31114931   0.559   2.597   9.217 -0.3428  0.5621  0.2313
  137SAPE  H11X14932   0.459   2.620   9.174 -0.9118 -2.4837 -0.3037
  137SAPE  H11Y14933   0.593   2.492   9.202 -2.0217  0.1218 -0.6927
  137SAPE  C31214934   0.671   2.666   9.132 -0.1159 -0.8254  0.4249
  137SAPE  H12X14935   0.769   2.649   9.181  0.6757 -1.3494 -1.2617
  137SAPE  H12Y14936   0.644   2.774   9.124  1.3909 -0.4524  0.0596
  137SAPE  C31314937   0.683   2.613   8.988  0.2741 -0.1926  0.1177
  137SAPE  H13X14938   0.745   2.684   8.928 -0.2309  0.3683  0.2467
  137SAPE  H13Y14939   0.579   2.631   8.952 -0.5293  2.3612  3.2638
  137SAPE  C31414940   0.708   2.468   8.982 -0.0328 -0.8431 -0.4313
  137SAPE  H14X14941   0.609   2.417   8.987  0.5845 -2.1292 -0.9128
  137SAPE  H14Y14942   0.764   2.447   9.075 -2.9010  0.7070  1.7958
  137SAPE  C31514943   0.780   2.412   8.858  0.3106 -0.2831 -0.2881
  137SAPE  H15X14944   0.785   2.303   8.876 -1.6994 -0.3632  0.0386
  137SAPE  H15Y14945   0.886   2.443   8.856  0.7245 -1.4184 -3.6200
  137SAPE  C31614946   0.715   2.443   8.725  0.5994  0.0491 -0.2836
  137SAPE  H16X14947   0.762   2.397   8.635  2.3544  1.1079  0.0386
  137SAPE  H16Y14948   0.743   2.548   8.704  1.8133 -0.2995 -0.5009
  137SAPE  C31714949   0.562   2.420   8.712  0.1952 -0.3650  0.1084
  137SAPE  H17X14950   0.508   2.501   8.764  0.6655 -1.1494  1.8895
  137SAPE  H17Y14951   0.537   2.319   8.751  1.2526 -0.6222  0.1414
  137SAPE  C31814952   0.527   2.432   8.561  0.5223  0.2362 -0.1727
  137SAPE  H18X14953   0.557   2.352   8.489  3.0218  2.0071 -1.2570
  137SAPE  H18Y14954   0.577   2.521   8.517 -2.4200  0.8799 -2.5224
  137SAPE  H18Z14955   0.416   2.436   8.559  0.4008 -1.6436  0.9053
  138SAPE     N14956   5.480   6.554  10.596 -0.4829 -0.5152 -0.0078
  138SAPE   HN114957   5.563   6.564  10.534 -0.0705 -1.2611  0.3963
  138SAPE   HN214958   5.480   6.459  10.640  0.1113 -0.5834 -0.1467
  138SAPE   HN314959   5.398   6.558  10.533 -1.1277 -1.5800  0.7210
  138SAPE   C1214960   5.474   6.661  10.698 -1.0183 -0.3288 -0.3703
  138SAPE  H12A14961   5.454   6.753  10.639 -0.7013 -0.9411 -1.4677
  138SAPE  H12B14962   5.575   6.681  10.741 -1.6497 -0.1554  1.0770
  138SAPE   C1114963   5.379   6.644  10.813  0.0396 -0.1426 -1.1402
  138SAPE  H11A14964   5.368   6.738  10.870  0.4701 -0.2256 -0.9224
  138SAPE  H11B14965   5.414   6.571  10.889 -0.2821  0.2563 -0.6039
  138SAPE     P14966   5.121   6.598  10.856 -0.1283 -0.6499  0.1377
  138SAPE   O1314967   5.146   6.506  10.968  0.1887 -0.3621 -0.2173
  138SAPE   O1414968   5.094   6.739  10.892  0.1199 -0.0112  0.4114
  138SAPE   O1214969   5.252   6.600  10.768 -1.2729  0.0916  0.6447
  138SAPE   O1114970   4.999   6.543  10.770  0.4922 -0.1585 -0.2088
  138SAPE    C114971   5.028   6.484  10.637 -0.4500 -0.3883  0.5736
  138SAPE    HA14972   5.120   6.422  10.637  1.0418  1.7045 -0.9625
  138SAPE    HB14973   4.943   6.417  10.610  0.4235 -1.0293 -0.7240
  138SAPE    C214974   5.050   6.589  10.524 -0.3582 -0.0755  0.2684
  138SAPE    HS14975   5.137   6.652  10.548  0.5604 -1.2815  0.2149
  138SAPE   O2114976   4.930   6.670  10.504 -0.3844 -0.3160 -0.8805
  138SAPE   C2114977   4.951   6.790  10.448 -0.3818  0.2232 -0.0261
  138SAPE   O2214978   5.060   6.838  10.427 -0.0459  0.6536  0.0391
  138SAPE   C2214979   4.820   6.860  10.424 -0.1820  0.4296  0.5184
  138SAPE   H2R14980   4.776   6.887  10.522  0.1180  2.1638  0.2130
  138SAPE   H2S14981   4.845   6.947  10.359 -0.2920 -0.3229 -0.5497
  138SAPE    C314982   5.078   6.514  10.393  0.3757  0.0356  0.3121
  138SAPE    HX14983   4.986   6.464  10.355  0.2986 -0.0992  0.6722
  138SAPE    HY14984   5.160   6.445  10.421  1.8513  2.0005  1.0415
  138SAPE   O3114985   5.123   6.598  10.282 -0.4038 -0.5964 -0.0097
  138SAPE   C3114986   5.245   6.641  10.299 -0.0315  0.2016  0.5805
  138SAPE   O3214987   5.321   6.619  10.394 -1.0651  0.4132 -0.3619
  138SAPE   C3214988   5.269   6.746  10.182  0.1204  0.1123  0.0363
  138SAPE   H2X14989   5.180   6.764  10.117  0.0400 -0.2367  0.0468
  138SAPE   H2Y14990   5.344   6.697  10.115  0.3552  0.3617  0.1149
  138SAPE   C2314991   4.723   6.775  10.340 -0.7623  0.4479  0.1960
  138SAPE   H3R14992   4.624   6.827  10.338 -0.7469  0.4550 -0.4979
  138SAPE   H3S14993   4.697   6.676  10.383  1.0246 -0.0729  0.1425
  138SAPE   C2414994   4.766   6.747  10.192  0.3023  0.0417 -0.4852
  138SAPE   H4R14995   4.869   6.708  10.180  0.4400  0.2209  0.0649
  138SAPE   H4S14996   4.783   6.841  10.135  3.7942 -1.5118 -2.3400
  138SAPE   C2514997   4.665   6.662  10.117 -0.1572  0.4222 -0.3675
  138SAPE   H5R14998   4.658   6.558  10.152  1.9576  0.4146  0.1643
  138SAPE   C2614999   4.602   6.683   9.995 -0.6953  0.3369  0.2830
  138SAPE   H6R15000   4.526   6.612   9.960 -1.1089  0.2216  1.3800
  138SAPE   C2715001   4.607   6.811   9.910  0.0694  0.6782  0.2992
  138SAPE   H7R15002   4.662   6.781   9.818  0.6851  0.9030  0.5888
  138SAPE   H7S15003   4.666   6.897   9.949  1.2748  0.7872 -1.6064
  138SAPE   C2815004   4.468   6.864   9.881 -0.0291 -0.3933  0.8095
  138SAPE   H8R15005   4.401   6.878   9.967 -0.3317  0.8639  0.3994
  138SAPE   C2915006   4.411   6.869   9.751 -0.2917 -0.2579 -0.9778
  138SAPE   H9R15007   4.306   6.900   9.739  0.4904  2.0599 -2.3908
  138SAPE  C21015008   4.480   6.824   9.623  0.6233  0.4479  0.7325
  138SAPE  H10R15009   4.416   6.741   9.585  0.5353  1.5859 -1.8737
  138SAPE  H10S15010   4.581   6.778   9.623  0.4478  0.0489  0.6002
  138SAPE  C21115011   4.463   6.924   9.514  0.1100 -1.3241  0.0576
  138SAPE  H11R15012   4.520   7.018   9.518  1.7077 -1.9655 -3.3605
  138SAPE  C21215013   4.398   6.913   9.400 -0.5619 -0.1248 -0.0981
  138SAPE  H12R15014   4.415   7.001   9.337 -1.7667 -0.5914 -1.1316
  138SAPE  C21315015   4.322   6.803   9.332  0.0535 -0.1157 -0.2765
  138SAPE  H13R15016   4.303   6.851   9.234  1.5156  2.0294  0.3872
  138SAPE  H13S15017   4.223   6.784   9.378  1.1290 -1.0296  1.8168
  138SAPE  C21415018   4.393   6.666   9.312  0.4890 -0.1504  0.2988
  138SAPE  H14R15019   4.500   6.657   9.336  0.7363 -3.1832 -1.3938
  138SAPE  C21515020   4.341   6.547   9.272  0.0422  0.2809 -0.0646
  138SAPE  H15R15021   4.406   6.460   9.255  0.9754  0.6085  1.6712
  138SAPE  C21615022   4.200   6.534   9.218  0.1628  0.4718 -0.7787
  138SAPE  H16R15023   4.197   6.516   9.108  0.3996 -0.2148 -0.6740
  138SAPE  H16S15024   4.150   6.633   9.213  1.2158  1.0168 -0.8612
  138SAPE  C21715025   4.117   6.421   9.281  0.6381  0.9522 -0.6953
  138SAPE  H17R15026   4.016   6.441   9.241 -1.0466 -1.9438  1.7301
  138SAPE  H17S15027   4.120   6.417   9.392  0.3614 -1.7073 -0.7325
  138SAPE  C21815028   4.159   6.284   9.240 -0.5854  0.3622 -0.2447
  138SAPE  H18R15029   4.257   6.263   9.288  0.1936  0.9231 -1.5402
  138SAPE  H18S15030   4.170   6.289   9.129 -1.8620  0.4486 -0.3837
  138SAPE  C21915031   4.054   6.173   9.268 -0.1804  0.6645  0.6568
  138SAPE  H19R15032   4.086   6.077   9.221  1.6930  0.8309  1.4836
  138SAPE  H19S15033   3.968   6.210   9.209 -0.1065 -0.1519  0.0247
  138SAPE  C22015034   4.013   6.150   9.411 -0.4531  0.5456 -0.0268
  138SAPE  H20R15035   4.010   6.245   9.468  1.5369  1.4469 -1.3326
  138SAPE  H20S15036   4.098   6.099   9.461 -1.4160 -1.1553 -0.0256
  138SAPE  H20T15037   3.919   6.091   9.415 -1.2630  1.7375 -0.8095
  138SAPE   C3315038   5.324   6.884  10.231  0.0193  0.1915 -0.2486
  138SAPE   H3X15039   5.402   6.865  10.308 -0.9597  1.6500  1.1832
  138SAPE   H3Y15040   5.248   6.945  10.285  2.4356  3.1475  0.1072
  138SAPE   C3415041   5.376   6.984  10.122 -0.1963 -0.2949 -0.0226
  138SAPE   H4X15042   5.393   7.079  10.177 -1.6533  0.0965 -0.2110
  138SAPE   H4Y15043   5.296   6.996  10.046 -0.7936  0.2833  0.6876
  138SAPE   C3515044   5.510   6.939  10.059 -0.4638 -0.1416  0.3738
  138SAPE   H5X15045   5.496   6.833  10.026 -1.4032 -0.5525  1.9791
  138SAPE   H5Y15046   5.600   6.943  10.123  0.9146 -1.4035 -1.3684
  138SAPE   C3615047   5.539   7.016   9.928 -0.2405 -0.1171  0.2921
  138SAPE   H6X15048   5.552   7.124   9.951  0.3942  0.7638 -3.4939
  138SAPE   H6Y15049   5.448   7.013   9.864  0.7777  0.2159 -1.2487
  138SAPE   C3715050   5.658   6.960   9.857  0.5302 -0.8076 -0.4512
  138SAPE   H7X15051   5.638   6.858   9.820 -1.4036 -0.1300 -1.4033
  138SAPE   H7Y15052   5.750   6.973   9.919 -1.0430  3.9427  1.4141
  138SAPE   C3815053   5.693   7.049   9.731  0.2001 -0.6916  0.3959
  138SAPE   H8X15054   5.797   7.021   9.703 -0.0498  0.7510 -2.3263
  138SAPE   H8Y15055   5.685   7.155   9.760 -1.0282 -0.5337 -0.4417
  138SAPE   C3915056   5.599   7.021   9.616  1.1936  0.5595  0.0673
  138SAPE   H9X15057   5.498   7.060   9.643  0.2191 -0.2231 -2.1695
  138SAPE   H9Y15058   5.592   6.911   9.600 -3.2105  0.7550 -0.5391
  138SAPE  C31015059   5.642   7.092   9.480  0.6896  0.3642  0.4798
  138SAPE  H10X15060   5.739   7.051   9.445  0.6613  1.6644 -1.2710
  138SAPE  H10Y15061   5.649   7.200   9.505 -0.5569  0.6118 -0.1765
  138SAPE  C31115062   5.538   7.067   9.370 -0.4584  0.4410 -0.3909
  138SAPE  H11X15063   5.494   6.966   9.378  3.1418 -1.2379  0.1959
  138SAPE  H11Y15064   5.593   7.055   9.274  1.2692 -2.1676  0.8135
  138SAPE  C31215065   5.432   7.179   9.357 -0.3580 -0.1740 -0.7857
  138SAPE  H12X15066   5.485   7.277   9.361 -1.9419  0.6857  0.1648
  138SAPE  H12Y15067   5.379   7.179   9.454  0.1741  1.9262 -0.4334
  138SAPE  C31315068   5.343   7.157   9.237 -0.1788  0.2173 -0.5237
  138SAPE  H13X15069   5.289   7.061   9.249 -0.9577  0.9278  2.3765
  138SAPE  H13Y15070   5.401   7.151   9.143 -1.9271 -0.6051 -1.6028
  138SAPE  C31415071   5.235   7.272   9.214  0.1546 -0.5250  0.4390
  138SAPE  H14X15072   5.285   7.369   9.193 -0.0410 -0.3534  0.7545
  138SAPE  H14Y15073   5.171   7.266   9.305 -2.6163 -0.9632 -1.4102
  138SAPE  C31515074   5.148   7.236   9.094 -0.0419  0.1679  0.2335
  138SAPE  H15X15075   5.070   7.316   9.091 -1.4511 -1.1814 -1.8367
  138SAPE  H15Y15076   5.100   7.139   9.119  2.0463 -0.5359  1.8112
  138SAPE  C31615077   5.212   7.235   8.951  0.4681  0.1078 -0.0907
  138SAPE  H16X15078   5.279   7.147   8.938 -0.8722 -0.9075 -0.2664
  138SAPE  H16Y15079   5.285   7.319   8.944 -0.2275  0.6766 -0.5432
  138SAPE  C31715080   5.111   7.240   8.842  0.1014  0.1241  0.5938
  138SAPE  H17X15081   5.043   7.154   8.860  0.4309 -0.4196 -0.6465
  138SAPE  H17Y15082   5.158   7.225   8.742 -1.3540 -0.6996  0.0094
  138SAPE  C31815083   5.028   7.365   8.838  0.0410  0.0253 -0.1894
  138SAPE  H18X15084   4.964   7.378   8.748  1.3354  1.2563 -0.9667
  138SAPE  H18Y15085   5.096   7.453   8.841  1.7555 -1.1964 -1.0491
  138SAPE  H18Z15086   4.956   7.363   8.922 -2.7574 -3.3727 -2.3682
  139SAPE     N15087   1.644   4.339  10.849 -0.0078 -0.3692 -0.7632
  139SAPE   HN115088   1.734   4.323  10.898 -0.5924 -1.0760  0.1134
  139SAPE   HN215089   1.603   4.428  10.885 -1.0453 -1.7142  1.6143
  139SAPE   HN315090   1.583   4.264  10.887 -0.1201  0.3674  0.5543
  139SAPE   C1215091   1.658   4.321  10.700  0.5042  0.2132  0.1949
  139SAPE  H12A15092   1.696   4.414  10.652 -0.1717  0.3012 -0.1922
  139SAPE  H12B15093   1.554   4.311  10.662  0.9405 -0.1212 -0.9652
  139SAPE   C1115094   1.737   4.187  10.664  0.8796 -0.4914  0.2486
  139SAPE  H11A15095   1.728   4.178  10.553  2.8969 -0.0539  0.0258
  139SAPE  H11B15096   1.692   4.100  10.717 -1.5932  1.1346  1.0151
  139SAPE     P15097   1.977   4.084  10.704  0.0338 -0.0272 -0.5677
  139SAPE   O1315098   2.114   4.128  10.686  0.7642 -0.5970 -0.4887
  139SAPE   O1415099   1.948   4.009  10.830 -0.1611 -0.0941  0.9152
  139SAPE   O1215100   1.873   4.209  10.688  0.1746  0.3297  0.4638
  139SAPE   O1115101   1.943   3.991  10.580  0.1685 -0.3416  0.2212
  139SAPE    C115102   1.958   4.059  10.451  0.4984  0.8967  0.0752
  139SAPE    HA15103   1.864   4.054  10.393  0.4382 -2.5874  0.2168
  139SAPE    HB15104   1.983   4.167  10.448 -0.4004  1.1015 -0.2961
  139SAPE    C215105   2.066   3.986  10.370  0.0828  0.5557 -0.6818
  139SAPE    HS15106   2.105   4.058  10.295 -0.7403  0.0946 -1.5728
  139SAPE   O2115107   2.021   3.866  10.303  0.0943 -0.1137  0.0630
  139SAPE   C2115108   1.954   3.887  10.194 -0.5963 -0.4819  0.4247
  139SAPE   O2215109   1.918   3.996  10.152  0.3880 -0.4351  0.3368
  139SAPE   C2215110   1.934   3.758  10.120 -0.5105 -0.6475 -0.2415
  139SAPE   H2R15111   1.892   3.678  10.185 -2.4455 -0.3943 -1.0849
  139SAPE   H2S15112   1.865   3.784  10.037  1.2348  1.6710 -1.0813
  139SAPE    C315113   2.184   3.935  10.454  0.2986 -0.6250 -0.2671
  139SAPE    HX15114   2.151   3.882  10.546 -0.6539  1.2284  0.5286
  139SAPE    HY15115   2.226   4.031  10.491 -1.8698 -0.2661  1.5211
  139SAPE   O3115116   2.286   3.855  10.379 -0.1792  0.9648  0.0382
  139SAPE   C3115117   2.274   3.725  10.377 -0.2908  0.3416  0.0225
  139SAPE   O3215118   2.189   3.662  10.439 -0.3097 -0.0894  0.0102
  139SAPE   C3215119   2.381   3.665  10.285  0.0841  0.2593  0.2454
  139SAPE   H2X15120   2.481   3.690  10.326  0.0265  0.0860  0.4953
  139SAPE   H2Y15121   2.372   3.707  10.183 -0.8707 -1.0742 -0.2439
  139SAPE   C2315122   2.070   3.703  10.057 -0.0968  0.6211 -0.2705
  139SAPE   H3R15123   2.061   3.604  10.008  0.0311  1.3067 -1.7185
  139SAPE   H3S15124   2.135   3.679  10.144 -0.1103  0.4915 -0.2958
  139SAPE   C2415125   2.127   3.815   9.967 -0.3706  0.1240  0.5328
  139SAPE   H4R15126   2.234   3.792   9.948 -0.6584 -0.1106 -0.9521
  139SAPE   H4S15127   2.124   3.918  10.007  0.4105  0.2075  0.4012
  139SAPE   C2515128   2.056   3.806   9.832  0.5995 -0.6144  0.2210
  139SAPE   H5R15129   2.043   3.701   9.801 -1.2322 -0.7660  1.3356
  139SAPE   C2615130   2.000   3.900   9.762 -0.0080 -0.1726  0.1813
  139SAPE   H6R15131   1.952   3.866   9.669 -0.3636  0.2552  0.2067
  139SAPE   C2715132   1.996   4.048   9.776  0.0161  0.8276 -0.0795
  139SAPE   H7R15133   2.098   4.081   9.804  0.4504  0.0467 -0.6774
  139SAPE   H7S15134   1.936   4.078   9.865  0.0738 -1.1416  0.6709
  139SAPE   C2815135   1.944   4.112   9.651 -0.1653  0.5561 -0.2269
  139SAPE   H8R15136   1.844   4.147   9.679 -1.4006 -1.2169 -2.1956
  139SAPE   C2915137   1.997   4.129   9.529 -0.0160  1.1987  0.2751
  139SAPE   H9R15138   1.928   4.160   9.449  0.0800  0.1116 -0.2486
  139SAPE  C21015139   2.129   4.088   9.470 -0.4143 -0.3085  0.3374
  139SAPE  H10R15140   2.213   4.100   9.542  0.4421  0.0800 -0.6865
  139SAPE  H10S15141   2.150   4.158   9.386  1.0897 -0.0544  0.8826
  139SAPE  C21115142   2.128   3.945   9.426 -0.4367  0.3139  0.2940
  139SAPE  H11R15143   2.095   3.865   9.494  0.7145 -1.7891 -1.4605
  139SAPE  C21215144   2.166   3.898   9.303 -0.7581 -0.1057 -0.3359
  139SAPE  H12R15145   2.178   3.791   9.279 -0.0501  0.1421 -1.1446
  139SAPE  C21315146   2.209   3.988   9.189  0.3388 -0.5482  0.0044
  139SAPE  H13R15147   2.171   4.092   9.190  1.4464 -0.1242 -0.5469
  139SAPE  H13S15148   2.168   3.946   9.095  0.8504 -0.8499 -0.0890
  139SAPE  C21415149   2.361   4.002   9.173 -0.4181  0.4178  0.2512
  139SAPE  H14R15150   2.429   3.973   9.255 -0.1607  2.0014  0.6194
  139SAPE  C21515151   2.418   4.058   9.064  0.9096  0.4814 -0.4079
  139SAPE  H15R15152   2.527   4.058   9.054  0.7331 -0.7412 -3.3764
  139SAPE  C21615153   2.348   4.119   8.943  0.7740  0.2734  0.8064
  139SAPE  H16R15154   2.373   4.227   8.936  1.9840 -0.1001 -2.1785
  139SAPE  H16S15155   2.239   4.102   8.942  0.8372 -0.5726 -2.4427
  139SAPE  C21715156   2.413   4.070   8.809 -0.2076 -0.3014 -0.1854
  139SAPE  H17R15157   2.509   4.119   8.782  0.0722 -0.5777  0.2966
  139SAPE  H17S15158   2.351   4.090   8.719  3.2343  1.3782 -2.3948
  139SAPE  C21815159   2.434   3.912   8.804 -0.4585 -0.0577  0.0335
  139SAPE  H18R15160   2.364   3.866   8.877  1.0269 -1.8309  0.4258
  139SAPE  H18S15161   2.528   3.898   8.861 -0.5514  1.5703  0.6519
  139SAPE  C21915162   2.421   3.866   8.664  0.2316  0.6760  0.7706
  139SAPE  H19R15163   2.318   3.890   8.631  0.4580  1.1826  0.4121
  139SAPE  H19S15164   2.427   3.755   8.663  1.0946  0.7125  0.2962
  139SAPE  C22015165   2.516   3.915   8.557  0.7055 -0.6056  0.8139
  139SAPE  H20R15166   2.513   4.026   8.556 -1.2546 -0.6326 -0.2359
  139SAPE  H20S15167   2.470   3.899   8.457 -0.2005 -1.3465  1.3304
  139SAPE  H20T15168   2.621   3.879   8.555  0.8384 -0.2063 -0.8488
  139SAPE   C3315169   2.371   3.514  10.274  0.5555  0.3575 -0.1208
  139SAPE   H3X15170   2.275   3.473  10.235  1.2732 -2.7924  1.0930
  139SAPE   H3Y15171   2.380   3.470  10.376  0.8886  0.7134  0.0056
  139SAPE   C3415172   2.504   3.455  10.217 -0.2103  0.3446 -0.2161
  139SAPE   H4X15173   2.501   3.344  10.230  0.9663  0.2224 -0.8549
  139SAPE   H4Y15174   2.589   3.478  10.283 -0.6208  1.1172  0.0473
  139SAPE   C3515175   2.546   3.500  10.081 -0.1355 -0.4210 -0.3125
  139SAPE   H5X15176   2.633   3.439  10.047  0.1688 -1.7539  2.5574
  139SAPE   H5Y15177   2.583   3.604  10.093 -1.6247  0.0468  0.4450
  139SAPE   C3615178   2.435   3.477   9.979  0.2230 -0.0260  0.3591
  139SAPE   H6X15179   2.342   3.517  10.024 -0.0021 -0.7182  0.5227
  139SAPE   H6Y15180   2.422   3.368   9.962 -1.8507 -0.2938  3.0024
  139SAPE   C3715181   2.458   3.526   9.829  0.2976  0.4025 -0.2494
  139SAPE   H7X15182   2.559   3.498   9.792 -0.2168 -0.7074 -0.8681
  139SAPE   H7Y15183   2.453   3.637   9.830 -0.7879  0.3789  1.2794
  139SAPE   C3815184   2.352   3.477   9.731  0.1741  0.4677  0.3672
  139SAPE   H8X15185   2.258   3.515   9.775  0.4896  0.6942  0.8541
  139SAPE   H8Y15186   2.353   3.366   9.735  1.0230  0.4253 -0.5577
  139SAPE   C3915187   2.360   3.541   9.593 -0.4726 -0.1281 -0.1349
  139SAPE   H9X15188   2.445   3.495   9.539 -0.8651 -2.3737  1.0004
  139SAPE   H9Y15189   2.370   3.651   9.604  2.1022 -0.3886  0.7348
  139SAPE  C31015190   2.241   3.517   9.496 -0.6133 -0.2273 -0.1492
  139SAPE  H10X15191   2.229   3.594   9.417 -3.0232 -1.6148 -1.2525
  139SAPE  H10Y15192   2.147   3.528   9.554  0.4972  1.4875  1.4505
  139SAPE  C31115193   2.230   3.383   9.418 -0.5550 -0.5476 -1.0376
  139SAPE  H11X15194   2.230   3.295   9.486 -0.1307 -1.1630 -1.8158
  139SAPE  H11Y15195   2.319   3.379   9.352 -0.9330  0.3138 -1.6186
  139SAPE  C31215196   2.110   3.385   9.325  0.0457  0.7816 -0.4966
  139SAPE  H12X15197   2.023   3.425   9.382 -1.7421  0.6024 -2.9432
  139SAPE  H12Y15198   2.086   3.286   9.281 -0.5883 -1.4601  4.2265
  139SAPE  C31315199   2.124   3.476   9.206  0.0057  0.6183  0.1838
  139SAPE  H13X15200   2.112   3.584   9.230  0.7514  0.7778 -0.1210
  139SAPE  H13Y15201   2.035   3.457   9.142 -1.1602 -3.4057  2.6549
  139SAPE  C31415202   2.250   3.463   9.130 -0.2215  0.6679  0.2422
  139SAPE  H14X15203   2.275   3.355   9.119 -1.2454  0.5472 -1.0905
  139SAPE  H14Y15204   2.336   3.506   9.186  0.2649  1.8821 -1.3649
  139SAPE  C31515205   2.265   3.528   8.991 -0.0167 -0.2159  0.5961
  139SAPE  H15X15206   2.268   3.637   9.010 -0.8915  0.2739 -1.6814
  139SAPE  H15Y15207   2.178   3.509   8.924 -1.9308  2.9304  1.9547
  139SAPE  C31615208   2.390   3.483   8.924 -0.5271  0.2042 -0.0391
  139SAPE  H16X15209   2.433   3.571   8.871 -0.2769  1.4727  2.1815
  139SAPE  H16Y15210   2.471   3.450   8.993 -1.0657  0.5869  0.7782
  139SAPE  C31715211   2.363   3.357   8.838 -0.3690 -0.0285  0.3870
  139SAPE  H17X15212   2.268   3.364   8.781  1.7208 -1.2169 -3.6436
  139SAPE  H17Y15213   2.369   3.271   8.909 -0.7806  1.5571  2.4616
  139SAPE  C31815214   2.471   3.337   8.728  0.3282  0.0290 -0.5929
  139SAPE  H18X15215   2.453   3.242   8.673  0.2443 -0.3507  0.0675
  139SAPE  H18Y15216   2.577   3.328   8.760  0.6816  0.1097 -1.7201
  139SAPE  H18Z15217   2.474   3.413   8.647  2.1536 -0.9968 -1.5382
  140SAPE     N15218   5.164   1.222  11.185  0.0176 -0.5434 -0.2596
  140SAPE   HN115219   5.209   1.309  11.152 -0.8558  0.7203  1.7241
  140SAPE   HN215220   5.122   1.177  11.100  2.1160  1.5010 -2.5466
  140SAPE   HN315221   5.078   1.233  11.243 -1.3107 -1.1162 -1.9955
  140SAPE   C1215222   5.273   1.128  11.238  0.0053 -0.0584 -0.0562
  140SAPE  H12A15223   5.227   1.028  11.247 -0.2202 -0.2279 -2.5256
  140SAPE  H12B15224   5.317   1.163  11.334  3.9401 -1.2922 -1.2062
  140SAPE   C1115225   5.407   1.123  11.156  0.0655  0.1041 -0.6208
  140SAPE  H11A15226   5.383   1.100  11.050 -2.1285  0.8895 -0.3479
  140SAPE  H11B15227   5.459   1.035  11.202 -0.6094 -0.5133 -1.0204
  140SAPE     P15228   5.632   1.234  11.099  0.1020 -0.5234  0.0606
  140SAPE   O1315229   5.691   1.368  11.106  0.4266 -0.2309 -0.0876
  140SAPE   O1415230   5.717   1.128  11.153  0.4177 -0.2969 -0.4863
  140SAPE   O1215231   5.496   1.234  11.172 -0.3283  0.0963 -0.3192
  140SAPE   O1115232   5.597   1.201  10.947  0.4000  0.1407 -0.4078
  140SAPE    C115233   5.700   1.157  10.858  0.5453  0.5690 -0.0257
  140SAPE    HA15234   5.780   1.117  10.924 -0.5151  0.6019  1.3418
  140SAPE    HB15235   5.662   1.080  10.788  1.7041  0.4202 -0.5224
  140SAPE    C215236   5.766   1.272  10.771 -0.2301  0.4789  0.1934
  140SAPE    HS15237   5.804   1.355  10.833 -2.6302  1.4792  0.4267
  140SAPE   O2115238   5.660   1.313  10.688  0.1355  0.2022 -0.3830
  140SAPE   C2115239   5.681   1.406  10.599 -0.4603 -0.4162 -0.0683
  140SAPE   O2215240   5.790   1.456  10.577 -0.2356  0.2759 -0.1409
  140SAPE   C2215241   5.548   1.459  10.535 -0.7489  0.3854 -0.2044
  140SAPE   H2R15242   5.478   1.373  10.535  0.5154 -0.6652 -0.1272
  140SAPE   H2S15243   5.512   1.524  10.618 -0.1305 -0.5957  0.8659
  140SAPE    C315244   5.882   1.201  10.690 -0.2864  0.0662  0.3623
  140SAPE    HX15245   5.955   1.153  10.759 -1.3412  1.1468  2.3280
  140SAPE    HY15246   5.933   1.280  10.631 -1.6723 -0.7525 -2.0703
  140SAPE   O3115247   5.834   1.101  10.598  0.5484 -0.2793 -0.3267
  140SAPE   C3115248   5.936   1.047  10.526  0.4980 -0.0058  0.0905
  140SAPE   O3215249   6.052   1.091  10.511 -0.3934 -0.4392  0.3009
  140SAPE   C3215250   5.882   0.918  10.473  0.0792  0.3941 -0.0583
  140SAPE   H2X15251   5.818   0.875  10.554  0.8038 -1.4129 -0.4060
  140SAPE   H2Y15252   5.970   0.857  10.445  1.5074  0.7557  3.1979
  140SAPE   C2315253   5.561   1.535  10.396  0.1404 -0.3600 -0.4666
  140SAPE   H3R15254   5.626   1.480  10.325  1.1447  0.6330 -0.3616
  140SAPE   H3S15255   5.610   1.634  10.411  0.1605 -0.0026 -2.4883
  140SAPE   C2415256   5.421   1.577  10.341 -0.2149  0.2982 -0.3074
  140SAPE   H4R15257   5.442   1.660  10.271  0.4744 -0.1041 -0.5957
  140SAPE   H4S15258   5.355   1.616  10.421 -0.8978  0.2706 -0.8487
  140SAPE   C2515259   5.354   1.467  10.265 -0.2632  0.7241  0.0260
  140SAPE   H5R15260   5.336   1.370  10.312 -1.9653 -0.8428 -3.4987
  140SAPE   C2615261   5.296   1.482  10.144  0.0073 -0.0049  0.6439
  140SAPE   H6R15262   5.270   1.393  10.085 -0.5685  0.6306 -0.0775
  140SAPE   C2715263   5.290   1.601  10.049  0.2369  0.4403  0.4712
  140SAPE   H7R15264   5.289   1.703  10.094 -2.4431  1.2236 -1.1131
  140SAPE   H7S15265   5.190   1.611  10.001  0.2410 -0.5924  0.2335
  140SAPE   C2815266   5.401   1.582   9.944 -0.7395  0.2064 -0.4017
  140SAPE   H8R15267   5.501   1.624   9.963 -1.1076  0.1407  2.0226
  140SAPE   C2915268   5.388   1.535   9.821  0.4783 -0.3683  0.3433
  140SAPE   H9R15269   5.481   1.532   9.762  1.5147  1.2968  1.7852
  140SAPE  C21015270   5.259   1.497   9.749  0.9988 -0.7343 -0.1528
  140SAPE  H10R15271   5.196   1.580   9.711 -1.9709 -1.7198  2.1792
  140SAPE  H10S15272   5.187   1.451   9.821 -0.2150 -0.9844 -1.4697
  140SAPE  C21115273   5.283   1.390   9.641  0.0413 -0.5660 -0.5378
  140SAPE  H11R15274   5.326   1.296   9.678 -1.7228 -0.8501  0.9354
  140SAPE  C21215275   5.279   1.424   9.512  0.0766  0.2759  0.7235
  140SAPE  H12R15276   5.280   1.339   9.442 -1.0025  2.3452 -2.0165
  140SAPE  C21315277   5.246   1.549   9.436 -0.4739 -0.8832 -0.3602
  140SAPE  H13R15278   5.233   1.632   9.509  1.4751  0.4096 -1.3681
  140SAPE  H13S15279   5.149   1.533   9.384  0.5087  1.2372 -3.1661
  140SAPE  C21415280   5.353   1.602   9.345  0.5203 -0.0042  0.5484
  140SAPE  H14R15281   5.452   1.604   9.394  1.3546 -1.3748 -1.0047
  140SAPE  C21515282   5.326   1.628   9.214 -0.2026 -0.1908  0.7103
  140SAPE  H15R15283   5.408   1.658   9.148 -1.1317 -1.2472 -0.9843
  140SAPE  C21615284   5.193   1.622   9.148  0.3170 -0.1054  0.1808
  140SAPE  H16R15285   5.108   1.661   9.209 -0.0236 -1.0229  0.3084
  140SAPE  H16S15286   5.158   1.518   9.132  0.0581  0.3616 -2.8407
  140SAPE  C21715287   5.183   1.705   9.030 -0.5672  0.1845 -0.0358
  140SAPE  H17R15288   5.225   1.806   9.047 -0.0818  0.0976 -0.6972
  140SAPE  H17S15289   5.079   1.735   9.005 -0.8907  2.2905  3.2673
  140SAPE  C21815290   5.253   1.637   8.904  0.1717  0.3190 -0.8370
  140SAPE  H18R15291   5.218   1.532   8.895 -0.5511  0.6805 -2.6504
  140SAPE  H18S15292   5.360   1.646   8.932 -0.8522  1.1383  3.5226
  140SAPE  C21915293   5.207   1.694   8.772  0.4684 -0.0080  0.8870
  140SAPE  H19R15294   5.264   1.639   8.694  1.6864  3.5700 -1.0036
  140SAPE  H19S15295   5.247   1.796   8.754 -2.7537  1.1859 -0.1170
  140SAPE  C22015296   5.064   1.678   8.739  0.7528  0.1992  0.0302
  140SAPE  H20R15297   4.995   1.731   8.808  0.4535 -0.4838  0.2702
  140SAPE  H20S15298   5.034   1.571   8.737  2.1412 -0.1911 -0.4927
  140SAPE  H20T15299   5.036   1.721   8.640  0.7486  0.0969 -0.0132
  140SAPE   C3315300   5.792   0.933  10.342  0.2653 -0.1726 -0.6298
  140SAPE   H3X15301   5.788   0.827  10.307 -0.1553  0.1844 -1.7093
  140SAPE   H3Y15302   5.856   0.993  10.275 -1.3188  0.9097 -1.2268
  140SAPE   C3415303   5.647   0.993  10.369  0.2710  0.0359 -0.3670
  140SAPE   H4X15304   5.655   1.085  10.430 -0.4172  0.1193 -0.3948
  140SAPE   H4Y15305   5.587   0.918  10.425 -2.5581  2.1901 -0.3057
  140SAPE   C3515306   5.567   1.025  10.242  0.2038 -0.0362 -0.4512
  140SAPE   H5X15307   5.486   1.096  10.268  0.2065 -0.5630  1.1524
  140SAPE   H5Y15308   5.506   0.933  10.229  1.4642 -1.0686  0.5815
  140SAPE   C3615309   5.641   1.052  10.110  0.6119 -0.6880  0.6638
  140SAPE   H6X15310   5.665   0.954  10.063 -0.4287 -0.2364 -0.8726
  140SAPE   H6Y15311   5.735   1.108  10.126  0.7931  0.9998 -4.4588
  140SAPE   C3715312   5.557   1.149  10.033  0.3355 -0.3998  0.1276
  140SAPE   H7X15313   5.550   1.248  10.083 -0.8043 -1.4773  2.2578
  140SAPE   H7Y15314   5.452   1.110  10.039  0.5045 -0.6897  1.6827
  140SAPE   C3815315   5.590   1.156   9.883 -0.9261  0.1412  0.1794
  140SAPE   H8X15316   5.691   1.203   9.874  0.0463 -1.4404  1.9839
  140SAPE   H8Y15317   5.511   1.221   9.840 -0.2183  1.9362  1.5050
  140SAPE   C3915318   5.571   1.014   9.812 -0.3660 -0.9636 -0.8190
  140SAPE   H9X15319   5.468   0.975   9.825 -1.0557  0.8680 -0.4454
  140SAPE   H9Y15320   5.643   0.945   9.860  2.1062  0.9709 -1.5459
  140SAPE  C31015321   5.604   1.006   9.664  0.6678 -0.1105  0.3585
  140SAPE  H10X15322   5.575   0.901   9.639  3.3878 -0.9141  0.2854
  140SAPE  H10Y15323   5.715   1.012   9.656  0.6881 -0.7188  0.0907
  140SAPE  C31115324   5.530   1.117   9.587  0.0288 -0.3581 -0.4516
  140SAPE  H11X15325   5.565   1.211   9.636  1.8073 -0.2021 -1.9048
  140SAPE  H11Y15326   5.420   1.115   9.605 -0.1694 -0.7579 -1.6206
  140SAPE  C31215327   5.572   1.141   9.443 -0.2431  0.0645  1.2372
  140SAPE  H12X15328   5.682   1.129   9.426 -0.6111 -1.0992 -0.5720
  140SAPE  H12Y15329   5.533   1.242   9.416 -2.4716 -1.0506  0.0847
  140SAPE  C31315330   5.496   1.057   9.339  0.2919  0.4797 -0.0051
  140SAPE  H13X15331   5.387   1.075   9.348  0.1986 -0.6752  1.8723
  140SAPE  H13Y15332   5.524   0.956   9.375  0.8389 -0.2606 -2.3835
  140SAPE  C31415333   5.556   1.061   9.200 -0.2369  0.6318  0.1940
  140SAPE  H14X15334   5.657   1.016   9.206 -0.0173  1.2316  1.3668
  140SAPE  H14Y15335   5.577   1.169   9.182  2.1882  0.7305  2.8647
  140SAPE  C31515336   5.447   1.007   9.111  0.3383  0.3441  0.0793
  140SAPE  H15X15337   5.351   1.063   9.116 -0.7452 -1.1907 -2.0418
  140SAPE  H15Y15338   5.419   0.904   9.142 -0.6934  0.2316 -1.1408
  140SAPE  C31615339   5.485   1.009   8.965 -0.1977 -0.7919 -0.0206
  140SAPE  H16X15340   5.594   0.997   8.943 -0.5541 -1.6576 -1.4155
  140SAPE  H16Y15341   5.464   1.114   8.936 -0.3271 -0.9085 -0.3490
  140SAPE  C31715342   5.388   0.923   8.872  0.2223  0.9488 -0.2484
  140SAPE  H17X15343   5.410   0.959   8.769 -0.2238  2.9154  0.2876
  140SAPE  H17Y15344   5.283   0.954   8.894 -0.1601 -1.6536  2.2280
  140SAPE  C31815345   5.375   0.771   8.881  0.0992  0.3889  0.0788
  140SAPE  H18X15346   5.327   0.727   8.971 -0.6927 -2.3277 -1.5396
  140SAPE  H18Y15347   5.471   0.719   8.859 -0.9570 -1.2522 -0.9195
  140SAPE  H18Z15348   5.323   0.740   8.787  1.5622 -1.3144 -0.2089
  141SAPE     N15349   6.323   3.360  11.085  0.4246 -0.4362  0.2692
  141SAPE   HN115350   6.358   3.390  11.178  2.4147  1.7511 -1.0788
  141SAPE   HN215351   6.270   3.271  11.090 -0.3917 -0.0577 -1.1226
  141SAPE   HN315352   6.393   3.326  11.015  0.5132 -1.4175  0.8137
  141SAPE   C1215353   6.233   3.467  11.018 -0.5271 -0.6521 -0.2400
  141SAPE  H12A15354   6.221   3.435  10.913  0.2840  2.2232 -1.3060
  141SAPE  H12B15355   6.300   3.556  11.014  0.2445 -1.1069  1.3979
  141SAPE   C1115356   6.107   3.496  11.090  0.4932  0.2395 -0.1475
  141SAPE  H11A15357   6.129   3.517  11.197  1.0321 -0.6745 -0.0604
  141SAPE  H11B15358   6.052   3.400  11.088 -0.3266  0.7086 -0.6004
  141SAPE     P15359   5.951   3.584  10.901 -0.6989  0.1764  0.0724
  141SAPE   O1315360   5.904   3.442  10.900  0.5007 -0.3208 -0.1049
  141SAPE   O1415361   5.859   3.702  10.890 -0.5771  0.3887 -0.1283
  141SAPE   O1215362   6.039   3.600  11.026  0.8006 -0.0571  0.7475
  141SAPE   O1115363   6.056   3.602  10.783  0.2543  0.1575 -0.5072
  141SAPE    C115364   6.119   3.734  10.760 -0.5045  1.5696 -0.3778
  141SAPE    HA15365   6.038   3.810  10.748 -0.4780  1.6842  0.1171
  141SAPE    HB15366   6.184   3.756  10.847 -1.5626 -0.8262  1.1179
  141SAPE    C215367   6.199   3.732  10.624 -0.2105  0.0313 -0.0196
  141SAPE    HS15368   6.223   3.837  10.595 -0.0573  0.4005  1.4086
  141SAPE   O2115369   6.128   3.659  10.521 -0.8550  0.3175  0.4066
  141SAPE   C2115370   6.033   3.725  10.454 -0.3151  1.5017 -0.6397
  141SAPE   O2215371   6.002   3.840  10.470 -0.4267  0.5848 -0.4929
  141SAPE   C2215372   5.966   3.639  10.350 -0.6603  0.0757 -0.3450
  141SAPE   H2R15373   5.987   3.673  10.246 -1.6462 -0.6163 -0.7879
  141SAPE   H2S15374   6.003   3.535  10.366 -2.2242 -0.4271  0.1681
  141SAPE    C315375   6.338   3.673  10.652  0.6358 -0.3633 -0.6057
  141SAPE    HX15376   6.313   3.576  10.701  2.0832  0.4079  1.8341
  141SAPE    HY15377   6.389   3.730  10.733  0.6859 -1.5994  0.2591
  141SAPE   O3115378   6.415   3.658  10.536 -0.1603  0.0951  0.6550
  141SAPE   C3115379   6.427   3.540  10.470 -0.2022 -0.1026  0.0336
  141SAPE   O3215380   6.362   3.439  10.492  0.1810  0.1306 -0.0186
  141SAPE   C3215381   6.532   3.549  10.370 -0.5727  0.5793  0.0956
  141SAPE   H2X15382   6.525   3.460  10.305 -0.5285  1.8804 -1.7694
  141SAPE   H2Y15383   6.636   3.548  10.409 -1.1972 -0.3956  1.8473
  141SAPE   C2315384   5.808   3.613  10.352  0.1838  0.4320 -0.2997
  141SAPE   H3R15385   5.750   3.705  10.329 -0.8639 -0.8752 -3.3898
  141SAPE   H3S15386   5.788   3.569  10.453 -0.2714  0.5791 -0.3233
  141SAPE   C2415387   5.769   3.520  10.242  0.2347 -0.0446 -0.3129
  141SAPE   H4R15388   5.833   3.430  10.252  1.9800  1.3498  2.2883
  141SAPE   H4S15389   5.781   3.566  10.141 -2.2032 -0.1459 -0.6928
  141SAPE   C2515390   5.627   3.467  10.253  0.4819 -0.0262  0.6478
  141SAPE   H5R15391   5.601   3.446  10.358  1.5025  0.2835  0.9752
  141SAPE   C2615392   5.536   3.458  10.146 -0.0404 -0.1162  0.1148
  141SAPE   H6R15393   5.432   3.428  10.163  0.0296 -0.9323 -0.8649
  141SAPE   C2715394   5.553   3.489  10.002 -0.3857 -0.2845 -0.2777
  141SAPE   H7R15395   5.535   3.598   9.993 -0.9316 -0.1643  1.8160
  141SAPE   H7S15396   5.475   3.442   9.938 -0.3700  1.4918 -1.6984
  141SAPE   C2815397   5.675   3.442   9.932 -0.4102  0.5779  0.4937
  141SAPE   H8R15398   5.754   3.382   9.980 -1.2043 -0.6573  0.3065
  141SAPE   C2915399   5.690   3.472   9.800  0.2712  0.2851 -0.0268
  141SAPE   H9R15400   5.779   3.446   9.741 -0.1538  2.4902 -1.8027
  141SAPE  C21015401   5.599   3.555   9.707  0.2977  0.1433 -0.4917
  141SAPE  H10R15402   5.657   3.634   9.653 -0.8497  0.2417 -1.6385
  141SAPE  H10S15403   5.517   3.610   9.758 -0.7999  0.4760 -2.5050
  141SAPE  C21115404   5.549   3.460   9.597 -0.5388 -0.3664 -0.0840
  141SAPE  H11R15405   5.502   3.370   9.640 -2.2155 -0.5566 -2.1587
  141SAPE  C21215406   5.554   3.463   9.466 -0.0041  0.3157 -0.7015
  141SAPE  H12R15407   5.513   3.370   9.423  2.5202 -0.7608 -0.9774
  141SAPE  C21315408   5.612   3.568   9.367  0.1077 -0.2679 -1.1790
  141SAPE  H13R15409   5.632   3.664   9.418  0.6345 -1.2276  0.5161
  141SAPE  H13S15410   5.518   3.595   9.314 -0.6887 -1.5351 -0.4783
  141SAPE  C21415411   5.729   3.529   9.286  0.3518 -0.3794 -0.3792
  141SAPE  H14R15412   5.822   3.499   9.336  1.8016  0.8330 -2.2151
  141SAPE  C21515413   5.720   3.523   9.152 -0.3528  0.3191  0.3466
  141SAPE  H15R15414   5.806   3.483   9.096  0.1532 -1.1449  2.0835
  141SAPE  C21615415   5.602   3.572   9.070 -0.0917 -0.4719  0.8671
  141SAPE  H16R15416   5.548   3.659   9.112 -0.7793 -0.3123 -0.2953
  141SAPE  H16S15417   5.520   3.501   9.046  0.3454 -0.7222  0.0679
  141SAPE  C21715418   5.657   3.613   8.933  0.1808  0.7289  0.0305
  141SAPE  H17R15419   5.746   3.678   8.950  0.9331 -0.5548  1.3088
  141SAPE  H17S15420   5.585   3.673   8.875 -0.9805 -0.6388  0.0004
  141SAPE  C21815421   5.695   3.499   8.840 -0.3742  0.4618  0.1458
  141SAPE  H18R15422   5.623   3.415   8.850  0.7421 -0.6227 -0.6686
  141SAPE  H18S15423   5.785   3.446   8.877 -0.9312 -0.5916  0.0203
  141SAPE  C21915424   5.712   3.533   8.696  0.1997 -0.7525  0.5854
  141SAPE  H19R15425   5.630   3.598   8.660  0.8762  1.5978  2.8930
  141SAPE  H19S15426   5.703   3.442   8.634 -2.8759  0.2938 -0.6852
  141SAPE  C22015427   5.849   3.606   8.686 -0.5160  0.2360 -0.0569
  141SAPE  H20R15428   5.870   3.684   8.763  0.0785  0.3741 -0.3487
  141SAPE  H20S15429   5.871   3.648   8.585  0.3734  1.4403  0.6079
  141SAPE  H20T15430   5.929   3.533   8.707 -0.6719  0.0790 -0.0108
  141SAPE   C3315431   6.509   3.669  10.280 -0.2651 -0.1990 -0.3524
  141SAPE   H3X15432   6.523   3.762  10.340  0.4812  0.0564 -0.9140
  141SAPE   H3Y15433   6.410   3.669  10.230 -0.1638 -0.5345 -0.5525
  141SAPE   C3415434   6.608   3.656  10.169 -0.4093 -0.5498  0.1926
  141SAPE   H4X15435   6.612   3.553  10.128  1.9696  0.0232 -1.2170
  141SAPE   H4Y15436   6.714   3.686  10.189 -0.5037 -0.3246  0.3582
  141SAPE   C3515437   6.556   3.748  10.056 -0.9361  1.2042 -0.1000
  141SAPE   H5X15438   6.544   3.854  10.086 -2.8878  1.1090 -0.4640
  141SAPE   H5Y15439   6.452   3.713  10.037 -0.6070 -0.1156  0.3626
  141SAPE   C3615440   6.647   3.741   9.929  0.2298  0.0947  0.0597
  141SAPE   H6X15441   6.752   3.747   9.964  0.3697 -2.0211  0.1690
  141SAPE   H6Y15442   6.614   3.815   9.853  0.9425  0.5958  0.2314
  141SAPE   C3715443   6.640   3.606   9.853  0.1991  0.0722  0.4420
  141SAPE   H7X15444   6.544   3.556   9.879 -0.3930 -0.0299 -1.7717
  141SAPE   H7Y15445   6.726   3.546   9.889  0.6126 -1.0913 -2.2207
  141SAPE   C3815446   6.657   3.611   9.705 -0.1061 -0.8061  0.3401
  141SAPE   H8X15447   6.585   3.678   9.653  1.6189 -0.0314 -1.1755
  141SAPE   H8Y15448   6.641   3.508   9.667 -0.3026 -1.6317  2.5230
  141SAPE   C3915449   6.790   3.669   9.661  0.5710  0.3030  0.1600
  141SAPE   H9X15450   6.877   3.611   9.700 -0.1733 -0.6955  0.3885
  141SAPE   H9Y15451   6.801   3.774   9.696  0.4561  2.0432 -4.3679
  141SAPE  C31015452   6.795   3.674   9.510  0.5382 -0.6667  0.4070
  141SAPE  H10X15453   6.868   3.754   9.488 -1.5580  0.6336 -2.3374
  141SAPE  H10Y15454   6.703   3.719   9.468  1.2547  2.0997  1.5869
  141SAPE  C31115455   6.845   3.544   9.440  1.1968 -0.2813 -0.6034
  141SAPE  H11X15456   6.769   3.469   9.471 -0.9344  2.6151  1.8750
  141SAPE  H11Y15457   6.948   3.521   9.475  0.7612  0.5727  1.3855
  141SAPE  C31215458   6.854   3.569   9.291 -0.0609 -0.6926 -0.5786
  141SAPE  H12X15459   6.909   3.477   9.263  0.8948 -0.4755  0.5144
  141SAPE  H12Y15460   6.906   3.661   9.257  2.2298 -1.7599 -0.1027
  141SAPE  C31315461   6.713   3.569   9.215 -0.2741 -0.1115  0.2501
  141SAPE  H13X15462   6.656   3.661   9.242  0.2168  0.8298 -1.7159
  141SAPE  H13Y15463   6.662   3.474   9.238 -0.8813  0.5287  1.6720
  141SAPE  C31415464   6.732   3.569   9.065  0.0725 -0.5321 -0.2518
  141SAPE  H14X15465   6.817   3.636   9.038 -1.7611  1.0626 -2.5617
  141SAPE  H14Y15466   6.647   3.628   9.024  1.7638  1.4480 -1.1377
  141SAPE  C31515467   6.756   3.434   9.002  0.0206  0.0788 -0.2678
  141SAPE  H15X15468   6.672   3.362   9.010 -0.3689  0.6258  0.7590
  141SAPE  H15Y15469   6.842   3.376   9.043 -0.2726  0.6698  1.2476
  141SAPE  C31615470   6.797   3.448   8.860 -0.4876  0.0366 -0.3470
  141SAPE  H16X15471   6.862   3.361   8.837  1.6341  0.9396  1.8212
  141SAPE  H16Y15472   6.873   3.527   8.845  1.2478 -1.1553  1.5322
  141SAPE  C31715473   6.676   3.460   8.766  0.5305 -0.9146  0.0498
  141SAPE  H17X15474   6.618   3.551   8.792 -1.6676 -1.5729 -2.1120
  141SAPE  H17Y15475   6.600   3.384   8.796 -1.1868  0.6662 -0.1247
  141SAPE  C31815476   6.710   3.461   8.615  0.1318 -0.8460 -0.1973
  141SAPE  H18X15477   6.787   3.539   8.601  0.5789 -1.5020 -1.5088
  141SAPE  H18Y15478   6.621   3.483   8.552 -1.6057 -0.6686  2.1633
  141SAPE  H18Z15479   6.764   3.367   8.591  2.5852  0.2922  0.5587
  142SAPE     N15480   1.735   0.815  10.935  0.4499 -0.8132 -0.0032
  142SAPE   HN115481   1.711   0.786  10.838  0.7244  0.5462 -0.4986
  142SAPE   HN215482   1.833   0.782  10.949  0.9504  0.1284 -1.1668
  142SAPE   HN315483   1.673   0.774  11.008  0.4496  1.0434  1.1113
  142SAPE   C1215484   1.732   0.962  10.972  0.5495  0.1994 -0.0597
  142SAPE  H12A15485   1.761   0.973  11.079 -1.1303 -0.4297  0.4918
  142SAPE  H12B15486   1.628   0.992  10.951  0.8371 -0.0417 -1.9506
  142SAPE   C1115487   1.823   1.044  10.887 -0.3729 -1.0285  0.5905
  142SAPE  H11A15488   1.802   1.151  10.907 -0.9008 -1.5313  3.0338
  142SAPE  H11B15489   1.785   1.042  10.783 -0.9635  2.3784  0.6414
  142SAPE     P15490   2.088   1.091  10.926 -0.1245 -0.0768 -0.1109
  142SAPE   O1315491   2.058   1.209  11.010  0.2429 -0.1834  0.2411
  142SAPE   O1415492   2.200   1.004  10.964 -0.9280 -0.1273  0.8395
  142SAPE   O1215493   1.959   1.005  10.906 -0.4342  0.2141  0.0354
  142SAPE   O1115494   2.131   1.131  10.776  0.2521  0.5729 -0.0321
  142SAPE    C115495   2.163   1.039  10.670  0.7720 -0.4823  0.0416
  142SAPE    HA15496   2.251   1.079  10.615 -0.0985  0.5575 -0.6489
  142SAPE    HB15497   2.182   0.935  10.703 -2.7151 -1.4132 -0.5617
  142SAPE    C215498   2.034   1.023  10.580 -0.8645 -0.2023  0.1526
  142SAPE    HS15499   1.952   0.970  10.632 -1.4585  1.1224  0.6053
  142SAPE   O2115500   2.084   0.963  10.458  0.5390 -0.4776 -0.0120
  142SAPE   C2115501   1.996   0.881  10.405 -0.3927  0.3254 -0.0156
  142SAPE   O2215502   1.907   0.827  10.467  0.3763 -0.3187 -0.2350
  142SAPE   C2215503   2.036   0.860  10.255 -0.6139  0.2957 -1.1643
  142SAPE   H2R15504   2.135   0.903  10.230  1.0785 -3.9003 -2.5899
  142SAPE   H2S15505   2.054   0.751  10.243  1.0423  0.0972  1.9061
  142SAPE    C315506   1.971   1.161  10.545 -0.4408 -0.5685  0.1522
  142SAPE    HX15507   2.063   1.219  10.521  1.0190 -1.3052  3.4140
  142SAPE    HY15508   1.931   1.196  10.642  0.2876 -0.2547  0.3490
  142SAPE   O3115509   1.885   1.167  10.430 -0.2631  0.0648  0.0879
  142SAPE   C3115510   1.753   1.179  10.453 -0.3327  0.3287  0.0940
  142SAPE   O3215511   1.697   1.174  10.563 -0.1813  0.7986 -0.1549
  142SAPE   C3215512   1.679   1.204  10.323 -0.3492  0.1722 -0.9685
  142SAPE   H2X15513   1.573   1.232  10.337 -1.1082 -1.3537 -3.1330
  142SAPE   H2Y15514   1.678   1.110  10.265  0.5106  0.0621 -0.8224
  142SAPE   C2315515   1.929   0.909  10.155 -0.9601  0.5597 -0.2248
  142SAPE   H3R15516   1.958   0.881  10.051  1.1111 -2.5501  1.0534
  142SAPE   H3S15517   1.914   1.019  10.162  0.6159  0.7288  1.0951
  142SAPE   C2415518   1.800   0.824  10.153 -0.0521  0.0524  0.3145
  142SAPE   H4R15519   1.736   0.870  10.075  2.5395  3.9916  0.2652
  142SAPE   H4S15520   1.748   0.833  10.250 -2.2272  1.5043 -0.9026
  142SAPE   C2515521   1.831   0.676  10.122 -0.5221  0.1266  0.3868
  142SAPE   H5R15522   1.845   0.617  10.213  3.5964 -2.4086 -1.5827
  142SAPE   C2615523   1.847   0.620   9.998 -0.0827  0.7427  0.0875
  142SAPE   H6R15524   1.870   0.512  10.002  2.6574  1.3061  1.4390
  142SAPE   C2715525   1.837   0.690   9.869 -0.7109 -0.5031 -0.7483
  142SAPE   H7R15526   1.786   0.787   9.881 -0.7449 -0.6220  0.1382
  142SAPE   H7S15527   1.767   0.639   9.800 -0.6293  2.4495 -3.1903
  142SAPE   C2815528   1.971   0.697   9.789 -0.0677  0.6192  0.0442
  142SAPE   H8R15529   2.064   0.726   9.840 -0.5168 -0.5989  1.6338
  142SAPE   C2915530   1.988   0.657   9.657 -0.1796 -0.0849 -0.5243
  142SAPE   H9R15531   2.088   0.666   9.611  0.7054  0.1758  1.3301
  142SAPE  C21015532   1.880   0.591   9.574  0.0983 -0.5782 -0.5106
  142SAPE  H10R15533   1.804   0.534   9.632 -0.7715 -0.1186 -1.1715
  142SAPE  H10S15534   1.928   0.512   9.512  0.1063  1.6612 -3.6151
  142SAPE  C21115535   1.814   0.693   9.492  0.1294 -0.3099  0.2257
  142SAPE  H11R15536   1.783   0.785   9.542  0.7631 -0.0929  0.2257
  142SAPE  C21215537   1.797   0.674   9.360 -0.7359 -0.0598  0.5272
  142SAPE  H12R15538   1.746   0.747   9.297  2.0409  1.4656 -0.1191
  142SAPE  C21315539   1.840   0.556   9.279 -0.3365  0.5249  0.4067
  142SAPE  H13R15540   1.789   0.460   9.302  1.4998 -0.4637  0.5354
  142SAPE  H13S15541   1.948   0.542   9.299 -0.5654 -4.6043 -0.4918
  142SAPE  C21415542   1.824   0.570   9.126 -0.5269  1.1432 -0.0411
  142SAPE  H14R15543   1.718   0.564   9.098 -0.5243  0.6910  0.0326
  142SAPE  C21515544   1.924   0.585   9.040 -0.2666  0.0205  0.3093
  142SAPE  H15R15545   1.908   0.595   8.932 -0.3535 -0.3131  0.2923
  142SAPE  C21615546   2.071   0.593   9.077  0.9117 -0.1381 -0.1051
  142SAPE  H16R15547   2.100   0.552   9.176 -0.1362 -0.4459  0.0946
  142SAPE  H16S15548   2.106   0.698   9.074 -0.1784  0.2381 -0.0332
  142SAPE  C21715549   2.163   0.512   8.976 -0.1007  0.1086 -0.5541
  142SAPE  H17R15550   2.125   0.408   8.982  2.6095 -0.8903  1.7041
  142SAPE  H17S15551   2.263   0.502   9.024 -0.1532 -0.1622 -0.4975
  142SAPE  C21815552   2.173   0.547   8.826  0.1700 -0.5122  0.0000
  142SAPE  H18R15553   2.199   0.654   8.814  1.4600 -0.7290  0.7032
  142SAPE  H18S15554   2.072   0.530   8.782 -0.4967  4.2180 -0.8473
  142SAPE  C21915555   2.292   0.482   8.752  0.1485  0.6689 -0.7546
  142SAPE  H19R15556   2.388   0.482   8.809  0.3355  1.3418 -1.0598
  142SAPE  H19S15557   2.324   0.529   8.656  1.7984  0.0459 -0.5431
  142SAPE  C22015558   2.268   0.335   8.734  0.2524  0.5646 -0.2953
  142SAPE  H20R15559   2.352   0.277   8.691 -0.1775 -0.1078 -0.2352
  142SAPE  H20S15560   2.185   0.324   8.662 -0.8822  2.3029  0.6669
  142SAPE  H20T15561   2.242   0.285   8.830 -4.0170 -0.9355 -2.0305
  142SAPE   C3315562   1.744   1.302  10.231 -0.1922 -0.1556  0.3189
  142SAPE   H3X15563   1.848   1.281  10.199 -0.7692 -2.9594 -0.0222
  142SAPE   H3Y15564   1.743   1.397  10.289  0.0759 -1.5734  2.8108
  142SAPE   C3415565   1.682   1.317  10.098 -0.3545  0.3629  0.5341
  142SAPE   H4X15566   1.741   1.388  10.035  2.0581 -2.9545 -1.3012
  142SAPE   H4Y15567   1.578   1.354  10.109 -0.8219 -0.2057 -1.5223
  142SAPE   C3515568   1.666   1.188  10.016  1.1291 -0.3063 -0.5376
  142SAPE   H5X15569   1.580   1.136  10.063  0.1640 -0.2717 -2.2296
  142SAPE   H5Y15570   1.744   1.114  10.043 -0.4614 -0.8461  3.2369
  142SAPE   C3615571   1.657   1.215   9.866  0.0893  0.1695 -0.4505
  142SAPE   H6X15572   1.750   1.252   9.817 -1.4400  2.2512 -1.9690
  142SAPE   H6Y15573   1.578   1.292   9.850 -0.6837 -0.1992  1.4142
  142SAPE   C3715574   1.622   1.081   9.796 -0.9881 -0.2750 -0.0639
  142SAPE   H7X15575   1.512   1.067   9.800 -0.8814 -1.6338  4.5408
  142SAPE   H7Y15576   1.663   0.995   9.854 -1.5568 -1.4641 -1.3597
  142SAPE   C3815577   1.690   1.063   9.657  0.6473  0.3355 -0.1112
  142SAPE   H8X15578   1.650   0.971   9.608 -0.3554 -0.0732  1.3902
  142SAPE   H8Y15579   1.798   1.048   9.674  0.5756 -2.5324 -1.5206
  142SAPE   C3915580   1.670   1.177   9.567 -0.1418 -1.0011 -0.0586
  142SAPE   H9X15581   1.752   1.251   9.563  0.0759 -1.2616 -0.4932
  142SAPE   H9Y15582   1.575   1.231   9.588  1.8939  1.8045  2.9289
  142SAPE  C31015583   1.677   1.132   9.417 -0.2500  0.5722  0.0289
  142SAPE  H10X15584   1.592   1.064   9.398  0.4238  0.0343 -1.1214
  142SAPE  H10Y15585   1.777   1.086   9.400  0.7441  3.1546 -1.9829
  142SAPE  C31115586   1.681   1.259   9.329 -0.2023 -0.2862  0.2662
  142SAPE  H11X15587   1.768   1.318   9.367 -0.6998  0.4828  0.2217
  142SAPE  H11Y15588   1.605   1.337   9.348  0.1777  0.3779 -0.8466
  142SAPE  C31215589   1.702   1.220   9.185 -0.0989 -0.4980  0.1793
  142SAPE  H12X15590   1.795   1.162   9.165  1.4957  2.2041 -0.9527
  142SAPE  H12Y15591   1.719   1.323   9.147  1.8826 -0.5868  0.6782
  142SAPE  C31315592   1.580   1.157   9.116  0.5368 -0.1794 -0.5067
  142SAPE  H13X15593   1.501   1.208   9.175  1.2215  0.2693  0.0414
  142SAPE  H13Y15594   1.577   1.049   9.142  0.7655 -0.1948 -0.5391
  142SAPE  C31415595   1.559   1.181   8.972  0.1896 -0.1879 -0.2603
  142SAPE  H14X15596   1.510   1.094   8.923  0.8516  0.2433 -1.7653
  142SAPE  H14Y15597   1.657   1.175   8.920 -0.3939 -1.2616 -1.2824
  142SAPE  C31515598   1.484   1.307   8.936  0.2486  0.0320  0.2234
  142SAPE  H15X15599   1.547   1.392   8.969 -0.1446  0.4882 -0.1918
  142SAPE  H15Y15600   1.383   1.300   8.983 -0.1224 -1.9495 -0.7432
  142SAPE  C31615601   1.471   1.331   8.787 -0.9694  0.1539  0.0492
  142SAPE  H16X15602   1.407   1.252   8.741  0.0596 -1.1184  0.7352
  142SAPE  H16Y15603   1.571   1.317   8.743 -2.0453 -1.7589 -1.9913
  142SAPE  C31715604   1.432   1.480   8.766  0.0975  0.4440 -0.4632
  142SAPE  H17X15605   1.507   1.552   8.806 -1.1547  2.0457 -0.8909
  142SAPE  H17Y15606   1.342   1.488   8.830 -0.0519 -0.1007 -0.6094
  142SAPE  C31815607   1.376   1.519   8.630  0.2227 -0.4290  0.6579
  142SAPE  H18X15608   1.438   1.476   8.549 -2.0792 -0.6509 -1.0754
  142SAPE  H18Y15609   1.366   1.627   8.611 -0.4641 -0.5682  0.1839
  142SAPE  H18Z15610   1.276   1.476   8.611  0.2224  0.0609 -0.5203
  143SAPE     N15611   1.597   1.407  11.513 -0.9101 -0.2822  0.1363
  143SAPE   HN115612   1.567   1.316  11.554 -1.3357  0.6190  1.9224
  143SAPE   HN215613   1.695   1.396  11.480 -0.8901 -2.2676  0.7228
  143SAPE   HN315614   1.594   1.467  11.598 -0.7030 -1.0216  0.6807
  143SAPE   C1215615   1.510   1.449  11.396 -0.1255 -0.3865  0.3778
  143SAPE  H12A15616   1.522   1.560  11.404 -0.3666 -0.3730  0.5568
  143SAPE  H12B15617   1.404   1.421  11.418 -0.3897  0.4628  0.2480
  143SAPE   C1115618   1.564   1.397  11.259  0.0281  0.3739 -0.3116
  143SAPE  H11A15619   1.502   1.439  11.178 -0.6666 -0.1238 -0.0489
  143SAPE  H11B15620   1.532   1.291  11.257  1.0714 -0.0466  1.8087
  143SAPE     P15621   1.773   1.535  11.203 -0.0483 -0.0826 -0.1004
  143SAPE   O1315622   1.714   1.647  11.274  0.4753  0.5845 -0.6275
  143SAPE   O1415623   1.920   1.526  11.210 -0.1010  0.9445  0.2295
  143SAPE   O1215624   1.708   1.399  11.254  0.1370 -0.0546  0.1489
  143SAPE   O1115625   1.727   1.536  11.051 -0.3367 -0.2201  0.3964
  143SAPE    C115626   1.761   1.424  10.964  0.3928 -0.4970 -0.8097
  143SAPE    HA15627   1.871   1.419  10.948  0.5478 -0.4624  0.2002
  143SAPE    HB15628   1.739   1.325  11.010 -1.1608  0.5781  0.9057
  143SAPE    C215629   1.693   1.434  10.827 -0.3994  0.3009  0.0868
  143SAPE    HS15630   1.719   1.346  10.765  0.5496  1.1876 -0.8117
  143SAPE   O2115631   1.727   1.557  10.761 -0.5396 -0.6617  0.1180
  143SAPE   C2115632   1.844   1.554  10.697 -0.0845  0.8026 -0.1022
  143SAPE   O2215633   1.918   1.459  10.689 -0.4069  0.1921 -0.3082
  143SAPE   C2215634   1.872   1.684  10.634 -0.1262 -0.0645 -0.1694
  143SAPE   H2R15635   1.785   1.730  10.582  0.6142  1.0379 -0.4884
  143SAPE   H2S15636   1.902   1.760  10.709  1.1460  1.3601 -2.0141
  143SAPE    C315637   1.539   1.415  10.848 -0.7075  0.4384 -0.8709
  143SAPE    HX15638   1.509   1.503  10.909  0.9928  0.1179  0.5014
  143SAPE    HY15639   1.527   1.328  10.916  1.7610  0.7602  0.0734
  143SAPE   O3115640   1.467   1.414  10.725  0.3371  0.4337 -0.5107
  143SAPE   C3115641   1.340   1.381  10.727  0.1273  0.2434  0.0976
  143SAPE   O3215642   1.281   1.349  10.829 -0.2865  0.1269 -0.3210
  143SAPE   C3215643   1.277   1.390  10.587 -0.1695 -0.4328 -0.0221
  143SAPE   H2X15644   1.291   1.490  10.542  0.6181 -0.5568 -0.0596
  143SAPE   H2Y15645   1.169   1.366  10.597 -0.3824 -0.9484 -2.7536
  143SAPE   C2315646   1.986   1.670  10.532 -0.4490  0.9271  0.5300
  143SAPE   H3R15647   2.071   1.619  10.581 -0.2975 -0.5315 -1.1675
  143SAPE   H3S15648   2.020   1.773  10.508  0.7213  0.8060  1.5748
  143SAPE   C2415649   1.946   1.592  10.404  0.3298 -0.3484  0.5507
  143SAPE   H4R15650   1.906   1.491  10.428  0.1867 -0.7481 -1.1814
  143SAPE   H4S15651   2.039   1.561  10.351 -1.1235 -0.8540 -1.8763
  143SAPE   C2515652   1.841   1.646  10.312 -0.0644  0.0549  0.1035
  143SAPE   H5R15653   1.738   1.643  10.349 -0.6761 -1.0930 -1.5705
  143SAPE   C2615654   1.860   1.689  10.185 -0.2503 -0.3712 -0.0007
  143SAPE   H6R15655   1.774   1.727  10.128 -0.5461  1.6980  1.6849
  143SAPE   C2715656   1.991   1.686  10.112  0.1826 -0.6432  0.2220
  143SAPE   H7R15657   1.966   1.702  10.005 -1.8124  0.2921  0.7718
  143SAPE   H7S15658   2.035   1.585  10.123  1.0971 -0.0985  1.9286
  143SAPE   C2815659   2.092   1.786  10.161  0.3825 -0.2556  0.8954
  143SAPE   H8R15660   2.068   1.836  10.256 -0.8560 -2.5406  1.8587
  143SAPE   C2915661   2.215   1.807  10.108  0.2109 -0.4533 -0.0671
  143SAPE   H9R15662   2.292   1.869  10.158  0.2572  0.4566 -1.2276
  143SAPE  C21015663   2.270   1.741   9.977  0.8581 -0.3066  0.2999
  143SAPE  H10R15664   2.189   1.679   9.932 -0.0586  0.5222  0.7675
  143SAPE  H10S15665   2.346   1.669  10.014  1.3506 -0.5409 -1.1185
  143SAPE  C21115666   2.322   1.844   9.878 -0.5847 -0.9245 -0.4798
  143SAPE  H11R15667   2.325   1.947   9.914 -0.3301 -1.4611  1.0959
  143SAPE  C21215668   2.357   1.808   9.755 -0.1486 -0.3755 -0.3359
  143SAPE  H12R15669   2.391   1.888   9.688 -1.3119 -0.2889 -0.8590
  143SAPE  C21315670   2.344   1.666   9.700 -0.3351 -0.6995  0.7338
  143SAPE  H13R15671   2.254   1.678   9.636  0.1882 -0.3871  0.0459
  143SAPE  H13S15672   2.325   1.600   9.788 -0.3940  0.6641  1.7815
  143SAPE  C21415673   2.458   1.626   9.613 -0.3761 -0.5961 -0.0715
  143SAPE  H14R15674   2.478   1.695   9.530 -0.8875  1.4367  1.4157
  143SAPE  C21515675   2.540   1.522   9.635 -0.0341  0.1559 -0.0527
  143SAPE  H15R15676   2.613   1.488   9.561 -2.2915 -2.7993 -1.1184
  143SAPE  C21615677   2.538   1.426   9.756 -0.3269  0.1964 -0.4185
  143SAPE  H16R15678   2.576   1.325   9.730 -1.1058 -0.0466 -0.6337
  143SAPE  H16S15679   2.430   1.410   9.777 -0.0520 -0.3164  0.6442
  143SAPE  C21715680   2.593   1.488   9.889 -0.4769 -0.5871  0.2748
  143SAPE  H17R15681   2.540   1.584   9.906 -1.1066 -0.9974  0.6885
  143SAPE  H17S15682   2.701   1.507   9.869 -0.8751  1.7102  0.0599
  143SAPE  C21815683   2.558   1.402  10.017  0.2548  0.5165  0.8923
  143SAPE  H18R15684   2.571   1.294   9.994  1.4584  0.8961 -0.3168
  143SAPE  H18S15685   2.449   1.423  10.027  0.2669  1.2787 -0.4272
  143SAPE  C21915686   2.630   1.445  10.141 -0.4033 -0.2895  0.5651
  143SAPE  H19R15687   2.738   1.417  10.138 -0.3968 -0.5471  2.4590
  143SAPE  H19S15688   2.596   1.388  10.230 -1.2889  0.4774  0.7324
  143SAPE  C22015689   2.605   1.589  10.188 -0.3086 -0.4520  0.0213
  143SAPE  H20R15690   2.688   1.621  10.255  0.6480 -1.2978 -0.7265
  143SAPE  H20S15691   2.507   1.591  10.240 -0.4682  0.8740 -0.2875
  143SAPE  H20T15692   2.608   1.657  10.100 -0.7610 -0.8060 -0.2712
  143SAPE   C3315693   1.334   1.284  10.490 -0.2467 -0.3159  0.4890
  143SAPE   H3X15694   1.303   1.181  10.517  0.4707 -0.2752  1.5491
  143SAPE   H3Y15695   1.444   1.301  10.483 -0.3475  0.7694  1.1947
  143SAPE   C3415696   1.274   1.313  10.353  0.0764 -0.6321 -0.3385
  143SAPE   H4X15697   1.314   1.407  10.310  1.1306 -0.3105  1.2810
  143SAPE   H4Y15698   1.164   1.330  10.358  0.1557 -0.3195  0.6140
  143SAPE   C3515699   1.293   1.205  10.247 -0.3324 -0.3565  0.3187
  143SAPE   H5X15700   1.205   1.138  10.261 -1.1039  0.6508  0.4397
  143SAPE   H5Y15701   1.392   1.157  10.261  1.2580  2.3455 -1.0216
  143SAPE   C3615702   1.286   1.253  10.101  0.5893  0.0868 -0.1508
  143SAPE   H6X15703   1.380   1.303  10.070 -0.1689  2.3717  1.0684
  143SAPE   H6Y15704   1.213   1.336  10.093 -0.0553 -0.3948  0.5806
  143SAPE   C3715705   1.254   1.140   9.998  0.0239  0.1713 -0.6007
  143SAPE   H7X15706   1.159   1.087  10.022 -0.1674  1.2467  1.1681
  143SAPE   H7Y15707   1.339   1.069   9.997  2.4774  2.9250 -0.3238
  143SAPE   C3815708   1.245   1.182   9.851  0.2174 -0.2311  0.1891
  143SAPE   H8X15709   1.350   1.208   9.826  0.6263 -2.6163 -0.8145
  143SAPE   H8Y15710   1.182   1.274   9.840  0.4353 -0.1556 -0.4738
  143SAPE   C3915711   1.212   1.071   9.750  0.2478 -0.4792  0.0501
  143SAPE   H9X15712   1.117   1.020   9.776 -0.2012 -0.2099 -1.0204
  143SAPE   H9Y15713   1.292   0.995   9.760  1.0259  0.4081  0.8447
  143SAPE  C31015714   1.212   1.125   9.611 -0.3040 -0.1557 -0.1817
  143SAPE  H10X15715   1.297   1.193   9.591  1.6116 -1.7766  1.9583
  143SAPE  H10Y15716   1.130   1.199   9.595  1.0395  1.1039 -1.6137
  143SAPE  C31115717   1.215   1.019   9.500 -0.8372 -0.5484 -0.2978
  143SAPE  H11X15718   1.129   0.951   9.519 -0.7745 -0.5086  0.1350
  143SAPE  H11Y15719   1.307   0.958   9.513 -0.3764 -0.0047 -0.9066
  143SAPE  C31215720   1.218   1.072   9.353 -0.2635 -0.3476  0.0341
  143SAPE  H12X15721   1.292   1.154   9.348 -1.4811  0.9205  1.3871
  143SAPE  H12Y15722   1.119   1.117   9.327  0.4125  0.6498 -0.8786
  143SAPE  C31315723   1.233   0.956   9.251  0.8516 -0.1492 -0.6101
  143SAPE  H13X15724   1.160   0.872   9.256  1.0283 -0.2767 -0.1953
  143SAPE  H13Y15725   1.334   0.913   9.271  0.5940 -0.2158  0.5722
  143SAPE  C31415726   1.222   1.000   9.111  0.1795  0.1033 -0.5674
  143SAPE  H14X15727   1.279   1.095   9.102 -1.5309  1.1365 -1.0517
  143SAPE  H14Y15728   1.118   1.021   9.078  0.4286  0.4280 -1.1632
  143SAPE  C31515729   1.282   0.906   9.006 -0.1736  0.2962  0.5656
  143SAPE  H15X15730   1.225   0.810   9.011  0.3435 -0.3529 -3.1114
  143SAPE  H15Y15731   1.391   0.894   9.017 -0.3359  0.5720  2.9175
  143SAPE  C31615732   1.247   0.950   8.865  0.8804  0.2939 -0.6438
  143SAPE  H16X15733   1.325   0.899   8.803  0.4414 -2.0021  0.5896
  143SAPE  H16Y15734   1.258   1.060   8.851 -1.3743  0.7833  0.9713
  143SAPE  C31715735   1.104   0.912   8.810 -0.2187 -0.4649 -0.6871
  143SAPE  H17X15736   1.020   0.965   8.860  0.0861 -1.0888  0.5225
  143SAPE  H17Y15737   1.079   0.809   8.843  0.1437 -0.4251 -0.2730
  143SAPE  C31815738   1.111   0.925   8.660  0.2574 -0.0796 -0.1092
  143SAPE  H18X15739   1.156   1.020   8.624 -0.9481 -0.0373 -1.5896
  143SAPE  H18Y15740   1.013   0.912   8.608 -0.7332  0.1508  1.5928
  143SAPE  H18Z15741   1.171   0.845   8.612  0.2346  0.0074 -0.2837
  144SAPE     N15742   1.056   6.056  11.317 -0.1946  0.0062  0.1147
  144SAPE   HN115743   1.122   6.135  11.332  3.8417 -3.3105  1.8627
  144SAPE   HN215744   1.000   6.046  11.404 -1.7646 -1.6069 -1.0026
  144SAPE   HN315745   1.118   5.973  11.312  0.7824  0.7483 -0.4397
  144SAPE   C1215746   0.962   6.072  11.198  0.0077  0.1869 -0.3111
  144SAPE  H12A15747   0.890   6.153  11.223 -1.2891 -1.1109  0.2962
  144SAPE  H12B15748   0.909   5.975  11.187  3.3542 -1.7297 -0.6875
  144SAPE   C1115749   1.054   6.099  11.073 -0.1054 -0.2517 -0.4818
  144SAPE  H11A15750   0.997   6.096  10.978  1.2844  0.5360 -1.3603
  144SAPE  H11B15751   1.132   6.021  11.066  2.1604  1.9116 -0.6582
  144SAPE     P15752   1.040   6.364  11.044 -0.0463 -0.1632  0.4471
  144SAPE   O1315753   0.907   6.374  11.106 -0.0535  0.1456  0.2962
  144SAPE   O1415754   1.140   6.469  11.073  0.8529  0.2062  0.2542
  144SAPE   O1215755   1.112   6.229  11.084 -0.6563  0.2028 -0.2154
  144SAPE   O1115756   1.032   6.368  10.889 -0.3019 -0.1784  0.0937
  144SAPE    C115757   1.107   6.322  10.784 -0.6023 -0.4166  0.4495
  144SAPE    HA15758   1.195   6.388  10.774  0.4220 -1.3945  2.4136
  144SAPE    HB15759   1.139   6.223  10.823 -1.5860 -1.3216 -0.9517
  144SAPE    C215760   1.021   6.317  10.658 -0.1328  0.2931 -0.1245
  144SAPE    HS15761   0.969   6.412  10.632 -2.0712 -0.3146  1.2529
  144SAPE   O2115762   0.925   6.210  10.679  0.2697  0.4694  0.5703
  144SAPE   C2115763   0.805   6.252  10.710 -0.1789  0.8693  0.5716
  144SAPE   O2215764   0.776   6.368  10.719  0.3599 -0.3141 -0.7169
  144SAPE   C2215765   0.700   6.141  10.693  0.5320 -0.0552 -0.2350
  144SAPE   H2R15766   0.705   6.085  10.790  0.1154  0.4323  0.0754
  144SAPE   H2S15767   0.597   6.183  10.685 -0.3665 -2.4179 -2.3623
  144SAPE    C315768   1.112   6.280  10.539  0.2783 -0.3626  0.1844
  144SAPE    HX15769   1.156   6.181  10.563  2.2148  1.0712  3.1376
  144SAPE    HY15770   1.185   6.364  10.527  0.0908 -0.3097 -0.6019
  144SAPE   O3115771   1.039   6.270  10.411  0.1821  0.0846  0.1032
  144SAPE   C3115772   1.030   6.150  10.346  0.0835  0.0236  0.1725
  144SAPE   O3215773   1.079   6.045  10.385  0.5202  0.4173  1.0629
  144SAPE   C3215774   0.957   6.159  10.213 -0.1147 -0.4864 -0.5207
  144SAPE   H2X15775   0.873   6.087  10.206 -0.4021 -0.2895  0.6571
  144SAPE   H2Y15776   1.035   6.149  10.135 -0.2921  2.2270 -1.1601
  144SAPE   C2315777   0.714   6.043  10.576 -0.1720  0.3636  1.2363
  144SAPE   H3R15778   0.642   5.958  10.580 -1.5262  1.3161 -0.7953
  144SAPE   H3S15779   0.816   6.001  10.569  0.2328  1.5470 -1.4068
  144SAPE   C2415780   0.681   6.111  10.438 -0.0094 -0.1871  0.6579
  144SAPE   H4R15781   0.711   6.040  10.358  1.0577  0.1329  0.7673
  144SAPE   H4S15782   0.736   6.206  10.423  0.9780 -0.7544  0.5686
  144SAPE   C2515783   0.526   6.122  10.425 -0.0054 -0.1876 -0.6284
  144SAPE   H5R15784   0.480   6.193  10.495 -1.9853 -1.8262 -0.1507
  144SAPE   C2615785   0.445   6.058  10.340  0.3757 -0.7540 -0.0199
  144SAPE   H6R15786   0.337   6.052  10.360  0.6128  0.1425  1.6716
  144SAPE   C2715787   0.486   5.975  10.224 -0.0323 -0.2962 -0.6738
  144SAPE   H7R15788   0.405   5.909  10.186  1.2759 -2.2342 -0.2578
  144SAPE   H7S15789   0.564   5.900  10.248 -0.4224 -1.1284 -1.9313
  144SAPE   C2815790   0.555   6.060  10.122 -0.0493  0.0035 -0.1197
  144SAPE   H8R15791   0.628   6.132  10.163  0.3546 -1.5388  2.0700
  144SAPE   C2915792   0.535   6.053   9.990 -0.8684  0.0266 -0.3805
  144SAPE   H9R15793   0.599   6.109   9.921 -0.0276  1.1833  1.2626
  144SAPE  C21015794   0.450   5.956   9.924  0.0878 -0.0621 -0.4595
  144SAPE  H10R15795   0.342   5.977   9.944 -0.3860 -0.5918 -2.3112
  144SAPE  H10S15796   0.467   5.855   9.967  0.9348  0.4749  0.5161
  144SAPE  C21115797   0.465   5.939   9.778  0.2746  0.3355  0.0659
  144SAPE  H11R15798   0.535   5.858   9.756 -1.1343 -0.8888 -0.1153
  144SAPE  C21215799   0.414   6.009   9.678  0.1498  0.1910 -0.1408
  144SAPE  H12R15800   0.443   5.977   9.577 -2.6179  0.8232 -1.2217
  144SAPE  C21315801   0.334   6.130   9.687 -0.0462  0.1827  0.3680
  144SAPE  H13R15802   0.325   6.165   9.792 -0.1653  2.1375 -0.2620
  144SAPE  H13S15803   0.230   6.107   9.656  0.5044 -2.3453  0.1897
  144SAPE  C21415804   0.390   6.245   9.600 -0.5288  0.6198 -0.4844
  144SAPE  H14R15805   0.498   6.252   9.621 -0.8041 -0.0301  1.2773
  144SAPE  C21515806   0.337   6.338   9.512  0.2607  0.6029 -1.0263
  144SAPE  H15R15807   0.403   6.416   9.472  0.6882  0.3570 -0.8130
  144SAPE  C21615808   0.191   6.344   9.476 -0.0454 -0.9134  0.0631
  144SAPE  H16R15809   0.126   6.270   9.528 -0.3948  0.1976  1.2536
  144SAPE  H16S15810   0.177   6.330   9.367 -1.8582 -1.5075  0.3361
  144SAPE  C21715811   0.125   6.485   9.517  0.4090  0.5012  0.2859
  144SAPE  H17R15812   0.188   6.556   9.458  2.0632 -1.2372 -0.1181
  144SAPE  H17S15813   0.126   6.505   9.626 -1.2842 -0.4143  0.5047
  144SAPE  C21815814  -0.024   6.493   9.469 -0.3042  0.2839 -0.8322
  144SAPE  H18R15815  -0.083   6.423   9.532  0.0757  0.4339 -0.3025
  144SAPE  H18S15816  -0.033   6.445   9.369 -0.8967 -0.1303 -0.5872
  144SAPE  C21915817  -0.079   6.635   9.462 -0.6094  0.1472  0.1602
  144SAPE  H19R15818  -0.006   6.684   9.394  1.7503 -0.5234  2.0791
  144SAPE  H19S15819  -0.080   6.679   9.564 -2.0178  0.0439  0.2054
  144SAPE  C22015820  -0.223   6.652   9.406  0.6277  0.8019 -0.4789
  144SAPE  H20R15821  -0.291   6.586   9.463  0.7420  1.3725  0.3420
  144SAPE  H20S15822  -0.213   6.627   9.298  2.3740  2.0887 -0.6685
  144SAPE  H20T15823  -0.273   6.751   9.415  0.9517  1.1500 -2.1078
  144SAPE   C3315824   0.912   6.303  10.177  0.3086 -0.0314 -0.5070
  144SAPE   H3X15825   1.002   6.368  10.179 -0.0310  0.4227 -0.0390
  144SAPE   H3Y15826   0.846   6.349  10.253  0.8959  1.5517 -0.9179
  144SAPE   C3415827   0.851   6.316  10.039  0.3703  0.0571  0.7323
  144SAPE   H4X15828   0.840   6.423  10.010 -1.9510 -0.2556  0.2387
  144SAPE   H4Y15829   0.743   6.288  10.038  0.3083  0.1331 -1.9427
  144SAPE   C3515830   0.908   6.240   9.921  0.5623 -0.2855 -0.5697
  144SAPE   H5X15831   0.897   6.130   9.929  1.2274 -0.6302 -3.3170
  144SAPE   H5Y15832   1.018   6.245   9.904  0.3175  1.8538 -1.8935
  144SAPE   C3615833   0.852   6.298   9.788  0.8084  0.2395 -0.3623
  144SAPE   H6X15834   0.886   6.403   9.779 -3.5817  1.7734 -1.2869
  144SAPE   H6Y15835   0.743   6.308   9.803  1.1415  1.6512  1.5568
  144SAPE   C3715836   0.895   6.220   9.662 -0.0071 -0.3165  0.1928
  144SAPE   H7X15837   1.002   6.240   9.639  0.6122 -2.4308  0.9495
  144SAPE   H7Y15838   0.832   6.269   9.585 -0.8531  0.0275  1.0826
  144SAPE   C3815839   0.852   6.073   9.654 -0.1741 -0.2199  0.3908
  144SAPE   H8X15840   0.746   6.064   9.686 -0.4234 -1.9768 -0.7902
  144SAPE   H8Y15841   0.896   6.009   9.734 -1.4157 -0.7314  0.6897
  144SAPE   C3915842   0.861   6.008   9.519  0.6840 -0.4955  0.1299
  144SAPE   H9X15843   0.884   5.899   9.514  0.5646 -0.4830 -1.0184
  144SAPE   H9Y15844   0.948   6.054   9.467 -0.0188  1.4621  0.6041
  144SAPE  C31015845   0.745   6.043   9.424  0.0448  0.2719  0.1311
  144SAPE  H10X15846   0.744   6.150   9.392 -2.2965  0.1572 -0.3795
  144SAPE  H10Y15847   0.647   6.027   9.473 -1.4134  1.0730 -2.3454
  144SAPE  C31115848   0.760   5.970   9.282 -0.1895 -0.3882 -0.7739
  144SAPE  H11X15849   0.765   5.860   9.299 -0.0372 -0.0871  1.4111
  144SAPE  H11Y15850   0.857   6.005   9.241 -0.2292  3.0256  1.6364
  144SAPE  C31215851   0.639   5.994   9.191 -0.0167  0.5953 -0.6806
  144SAPE  H12X15852   0.609   6.100   9.202  2.2360  1.4833 -2.3264
  144SAPE  H12Y15853   0.551   5.940   9.233  1.4112  0.4196  2.3170
  144SAPE  C31315854   0.662   5.963   9.045  0.2299 -0.3769  0.2105
  144SAPE  H13X15855   0.661   5.854   9.022  1.2441 -0.3361 -0.1085
  144SAPE  H13Y15856   0.763   5.998   9.012  0.9058 -2.6142 -0.2770
  144SAPE  C31415857   0.541   6.017   8.958  1.0975 -0.0539  0.4784
  144SAPE  H14X15858   0.545   6.128   8.962 -1.7204  0.2249 -1.4782
  144SAPE  H14Y15859   0.445   5.979   8.998  0.5484  0.5892 -0.2275
  144SAPE  C31515860   0.552   5.985   8.806 -0.3411  0.1000  0.1973
  144SAPE  H15X15861   0.497   5.889   8.792 -0.4287  0.1778  0.0086
  144SAPE  H15Y15862   0.659   5.965   8.782 -0.4870  0.1533 -0.5113
  144SAPE  C31615863   0.498   6.092   8.713 -0.0237 -0.2110 -0.1804
  144SAPE  H16X15864   0.517   6.055   8.610 -0.7670 -1.4073  0.0858
  144SAPE  H16Y15865   0.555   6.186   8.730 -0.5038 -0.1210  1.0497
  144SAPE  C31715866   0.351   6.126   8.723  0.6861 -0.0554 -0.1784
  144SAPE  H17X15867   0.317   6.131   8.829  1.0421 -0.5480 -0.0388
  144SAPE  H17Y15868   0.295   6.042   8.678  0.4209  1.5803 -3.1365
  144SAPE  C31815869   0.339   6.260   8.658  0.3073 -0.0835 -0.0758
  144SAPE  H18X15870   0.241   6.301   8.690  1.4030  1.3121  1.6982
  144SAPE  H18Y15871   0.349   6.252   8.548  0.1699 -2.0092  0.0282
  144SAPE  H18Z15872   0.412   6.334   8.697  0.8903 -0.6168 -0.1433
  145SAPE     N15873   2.190   5.138  11.001 -0.1363  0.7968 -0.2611
  145SAPE   HN115874   2.164   5.041  11.028 -1.8165  0.7690 -1.8299
  145SAPE   HN215875   2.118   5.199  11.045 -0.3736 -1.6989  3.2089
  145SAPE   HN315876   2.191   5.149  10.898  0.1184  1.1803 -0.2227
  145SAPE   C1215877   2.327   5.161  11.057  0.3059  0.3187 -0.5167
  145SAPE  H12A15878   2.395   5.106  10.988 -0.3496 -0.8618 -0.2468
  145SAPE  H12B15879   2.329   5.109  11.155 -0.1527  1.0613 -0.1031
  145SAPE   C1115880   2.363   5.308  11.094 -0.3660 -0.2845 -0.1754
  145SAPE  H11A15881   2.455   5.315  11.155  0.1097 -0.1224 -0.9007
  145SAPE  H11B15882   2.282   5.353  11.156 -0.1414  0.6914 -0.5721
  145SAPE     P15883   2.341   5.530  10.954  0.2522 -0.1377  0.5362
  145SAPE   O1315884   2.195   5.542  10.981 -0.0463  0.0032 -0.1616
  145SAPE   O1415885   2.433   5.612  11.030 -0.2318 -0.1387 -0.1296
  145SAPE   O1215886   2.386   5.385  10.976  0.8046  0.1587  0.4025
  145SAPE   O1115887   2.373   5.552  10.803  0.1924 -0.5037  0.1888
  145SAPE    C115888   2.275   5.501  10.708  0.1583  0.4230 -0.7261
  145SAPE    HA15889   2.255   5.392  10.721  1.5217  0.1734 -0.6091
  145SAPE    HB15890   2.186   5.567  10.705 -0.5028 -0.4598 -0.9262
  145SAPE    C215891   2.333   5.500  10.563  0.1455  1.2409  0.0377
  145SAPE    HS15892   2.435   5.457  10.570 -0.0957  0.5013 -0.8445
  145SAPE   O2115893   2.338   5.637  10.517  0.1489  0.0561 -0.3882
  145SAPE   C2115894   2.435   5.659  10.433 -0.3084  0.2730 -0.8735
  145SAPE   O2215895   2.520   5.575  10.396  0.2318  0.4220 -0.1277
  145SAPE   C2215896   2.470   5.808  10.409  0.4254 -0.5028  0.8286
  145SAPE   H2R15897   2.383   5.866  10.447  1.5834  1.8847  0.0390
  145SAPE   H2S15898   2.555   5.841  10.472  0.4333 -2.4188  1.9164
  145SAPE    C315899   2.240   5.417  10.468  0.0012 -0.4977  0.3432
  145SAPE    HX15900   2.168   5.491  10.427 -0.1601 -1.4997 -1.2496
  145SAPE    HY15901   2.177   5.336  10.512 -0.3457 -0.2374  0.3319
  145SAPE   O3115902   2.301   5.368  10.345 -0.2235  0.8582  0.0037
  145SAPE   C3115903   2.391   5.273  10.362  0.1006 -0.7383 -0.3514
  145SAPE   O3215904   2.409   5.202  10.461 -0.4470  0.0149  0.1798
  145SAPE   C3215905   2.476   5.268  10.242 -0.2371 -0.4779  0.0038
  145SAPE   H2X15906   2.508   5.165  10.216 -2.6117 -0.8244 -1.9048
  145SAPE   H2Y15907   2.565   5.332  10.260 -0.0722 -0.6943 -0.0283
  145SAPE   C2315908   2.490   5.825  10.255  0.0635 -0.3283 -0.1208
  145SAPE   H3R15909   2.587   5.781  10.221 -0.5476 -1.0872 -0.9244
  145SAPE   H3S15910   2.496   5.934  10.235  0.0306 -0.6257 -1.8484
  145SAPE   C2415911   2.381   5.769  10.162 -0.5140  0.6181  0.1281
  145SAPE   H4R15912   2.382   5.659  10.176 -2.1352  0.7141  1.3612
  145SAPE   H4S15913   2.417   5.777  10.058  1.0288  2.0394  0.7192
  145SAPE   C2515914   2.244   5.825  10.185  1.0175  0.3414 -0.2729
  145SAPE   H5R15915   2.227   5.932  10.203  2.1336  0.5773 -0.5789
  145SAPE   C2615916   2.130   5.761  10.155  0.4846 -0.3200 -0.1017
  145SAPE   H6R15917   2.034   5.803  10.190  2.1074  2.2047  1.6621
  145SAPE   C2715918   2.119   5.622  10.100  0.4851 -0.1612  0.2847
  145SAPE   H7R15919   2.113   5.548  10.183  0.2412 -1.8033 -1.1397
  145SAPE   H7S15920   2.215   5.596  10.050  0.9093  1.2686  0.3266
  145SAPE   C2815921   1.990   5.598  10.011 -0.1884 -0.1436 -0.0352
  145SAPE   H8R15922   1.900   5.629  10.066  0.6412  0.1156  1.2144
  145SAPE   C2915923   1.985   5.540   9.887 -0.1992 -0.7594 -0.2640
  145SAPE   H9R15924   1.892   5.551   9.830 -0.8699  1.9816  1.1962
  145SAPE  C21015925   2.101   5.487   9.807 -0.4499 -0.2645  0.1569
  145SAPE  H10R15926   2.126   5.381   9.831  0.3104 -0.3625 -0.9851
  145SAPE  H10S15927   2.196   5.540   9.831 -0.9800  0.3143  0.9962
  145SAPE  C21115928   2.083   5.500   9.657  0.3577 -0.0782  0.5655
  145SAPE  H11R15929   2.089   5.402   9.607  0.4336 -0.7088  1.7546
  145SAPE  C21215930   2.094   5.614   9.577 -0.1160 -0.3420 -0.2421
  145SAPE  H12R15931   2.088   5.607   9.468 -0.3249 -2.6996 -0.1315
  145SAPE  C21315932   2.114   5.754   9.634 -0.3083 -0.2013 -0.4463
  145SAPE  H13R15933   2.034   5.778   9.707  1.5157 -1.2953  2.0738
  145SAPE  H13S15934   2.111   5.826   9.550  2.2375  0.3639 -0.1334
  145SAPE  C21415935   2.251   5.781   9.698 -0.1736 -0.3928 -0.6734
  145SAPE  H14R15936   2.303   5.689   9.729 -2.4482 -1.2009  1.0447
  145SAPE  C21515937   2.306   5.900   9.715  0.7967 -0.4553  0.2152
  145SAPE  H15R15938   2.401   5.900   9.770  1.6966 -3.0695 -1.1427
  145SAPE  C21615939   2.243   6.033   9.672 -0.6434 -0.7030  0.1186
  145SAPE  H16R15940   2.241   6.109   9.754  1.6701 -1.1988  0.7134
  145SAPE  H16S15941   2.137   6.017   9.643 -1.4471 -1.8856  3.3264
  145SAPE  C21715942   2.341   6.111   9.571 -0.0015  1.1637 -0.3136
  145SAPE  H17R15943   2.444   6.118   9.611 -0.0366  0.0739 -0.0020
  145SAPE  H17S15944   2.304   6.216   9.566  0.4457  1.3990  1.0728
  145SAPE  C21815945   2.355   6.056   9.429 -0.4232  0.6771 -0.3824
  145SAPE  H18R15946   2.260   6.070   9.373 -1.3802 -0.5116  0.8576
  145SAPE  H18S15947   2.363   5.945   9.423 -4.6561  0.1322  1.0694
  145SAPE  C21915948   2.462   6.131   9.352 -0.0404 -0.4403  0.0929
  145SAPE  H19R15949   2.551   6.132   9.419 -1.7243 -0.5451  2.4545
  145SAPE  H19S15950   2.424   6.233   9.331 -1.2081 -1.3230 -2.4533
  145SAPE  C22015951   2.502   6.072   9.216  0.5122 -0.1771 -0.3765
  145SAPE  H20R15952   2.531   6.147   9.139  0.6580  0.9331  0.7299
  145SAPE  H20S15953   2.411   6.031   9.167  0.8253 -2.4834  0.8523
  145SAPE  H20T15954   2.581   5.994   9.213 -0.2733 -0.9995 -2.9617
  145SAPE   C3315955   2.409   5.300  10.113 -0.1651  0.2454 -0.2013
  145SAPE   H3X15956   2.392   5.409  10.104 -0.2096  0.3231  0.7883
  145SAPE   H3Y15957   2.307   5.257  10.113  0.3538 -1.0621  1.0654
  145SAPE   C3415958   2.486   5.253   9.988 -0.6285 -0.5508  0.4408
  145SAPE   H4X15959   2.486   5.142   9.997  0.3365 -0.7019 -1.0641
  145SAPE   H4Y15960   2.591   5.287   9.985 -0.1524 -1.9636  0.5274
  145SAPE   C3515961   2.422   5.296   9.856  0.1520  0.9297 -0.5509
  145SAPE   H5X15962   2.413   5.407   9.860  3.9204  1.3172  0.9715
  145SAPE   H5Y15963   2.327   5.239   9.848  1.1523 -0.9909  0.4923
  145SAPE   C3615964   2.497   5.241   9.730  0.5468  0.0167 -0.0265
  145SAPE   H6X15965   2.469   5.134   9.725 -3.0401  0.8566 -1.1248
  145SAPE   H6Y15966   2.607   5.239   9.745  0.4198 -0.5605  0.9280
  145SAPE   C3715967   2.456   5.312   9.602 -0.7925  0.2796  0.4432
  145SAPE   H7X15968   2.345   5.317   9.590 -0.6221 -0.8650 -2.5087
  145SAPE   H7Y15969   2.488   5.238   9.526  1.1739  0.4128  1.0847
  145SAPE   C3815970   2.507   5.449   9.588  0.2542  0.0132  0.1212
  145SAPE   H8X15971   2.615   5.449   9.561  0.3537 -1.1049  0.4890
  145SAPE   H8Y15972   2.497   5.513   9.678 -1.1461 -2.4450  1.8364
  145SAPE   C3915973   2.444   5.534   9.482  0.0442  0.3698 -0.1182
  145SAPE   H9X15974   2.444   5.644   9.498 -1.3921  0.5929 -1.3480
  145SAPE   H9Y15975   2.337   5.503   9.479  0.4375 -1.1875  0.9436
  145SAPE  C31015976   2.499   5.517   9.346 -0.1612 -0.0845 -0.1328
  145SAPE  H10X15977   2.459   5.426   9.296 -0.3722 -0.6615  1.0503
  145SAPE  H10Y15978   2.610   5.512   9.336 -0.3651 -1.8553 -2.4214
  145SAPE  C31115979   2.455   5.640   9.263 -0.2873  1.6485 -0.1599
  145SAPE  H11X15980   2.490   5.620   9.160  1.2498  0.0360  0.6052
  145SAPE  H11Y15981   2.509   5.730   9.298  0.9458  1.3861 -1.3081
  145SAPE  C31215982   2.304   5.669   9.267  0.0735  0.3084 -0.1036
  145SAPE  H12X15983   2.271   5.719   9.361  1.0973  4.1938 -1.6053
  145SAPE  H12Y15984   2.244   5.577   9.252 -1.5415  1.4918 -1.1587
  145SAPE  C31315985   2.266   5.763   9.148 -0.0348  0.6056 -0.3779
  145SAPE  H13X15986   2.320   5.736   9.055 -0.5109  1.0982 -0.8073
  145SAPE  H13Y15987   2.293   5.866   9.177  1.5014  0.7145 -2.0175
  145SAPE  C31415988   2.119   5.755   9.118  0.5741  0.1131  0.1515
  145SAPE  H14X15989   2.084   5.650   9.117  0.2808  0.2035  0.5473
  145SAPE  H14Y15990   2.108   5.785   9.012  0.3983 -1.7402 -0.3823
  145SAPE  C31515991   2.028   5.831   9.216  0.7857 -1.0882  0.4544
  145SAPE  H15X15992   2.040   5.939   9.193 -1.1606 -0.9266  0.0358
  145SAPE  H15Y15993   2.074   5.814   9.316  0.3565  0.4262  0.9282
  145SAPE  C31615994   1.877   5.787   9.224  0.4651  0.3226 -0.4437
  145SAPE  H16X15995   1.880   5.679   9.252  0.4875 -0.1064 -2.0176
  145SAPE  H16Y15996   1.825   5.791   9.126  0.6292  0.2368 -0.5343
  145SAPE  C31715997   1.787   5.861   9.327 -0.1546 -0.7835  0.4678
  145SAPE  H17X15998   1.764   5.967   9.300  0.8272 -0.1437  1.9776
  145SAPE  H17Y15999   1.856   5.862   9.414  1.3260 -0.1462 -0.6574
  145SAPE  C31816000   1.654   5.797   9.363 -0.1177  0.0982  0.5133
  145SAPE  H18X16001   1.670   5.690   9.389  0.4974  0.0866  0.1233
  145SAPE  H18Y16002   1.579   5.789   9.282  1.0570 -3.0028 -0.4180
  145SAPE  H18Z16003   1.610   5.853   9.448 -1.4177  1.5955 -1.0630
  146SAPE     N16004   1.036   3.606  10.912 -0.1108 -0.1227 -0.1962
  146SAPE   HN116005   1.118   3.658  10.949  0.7602 -1.5154 -0.0995
  146SAPE   HN216006   0.964   3.607  10.987  0.4603 -0.7200  0.3820
  146SAPE   HN316007   1.075   3.512  10.893 -0.0966 -0.1354 -0.1031
  146SAPE   C1216008   0.986   3.670  10.794  0.3533  0.5567  0.3194
  146SAPE  H12A16009   0.909   3.610  10.741  2.8305 -1.1642 -1.5987
  146SAPE  H12B16010   1.070   3.667  10.721 -0.2538  1.4224 -0.4549
  146SAPE   C1116011   0.948   3.818  10.808  0.3849  0.1644  0.0937
  146SAPE  H11A16012   0.904   3.867  10.718 -1.1774  1.0750  1.3061
  146SAPE  H11B16013   1.040   3.875  10.835 -0.3825  1.3479  0.2967
  146SAPE     P16014   0.800   3.951  10.976 -0.1930  0.2362 -0.0331
  146SAPE   O1316015   0.665   3.938  11.031 -0.5567  0.1344 -0.7618
  146SAPE   O1416016   0.896   4.006  11.068 -0.1076 -0.3859 -0.3447
  146SAPE   O1216017   0.845   3.821  10.912 -0.3168  0.6149 -0.1916
  146SAPE   O1116018   0.801   4.043  10.849 -0.4120 -0.0205 -0.2404
  146SAPE    C116019   0.677   4.054  10.772  0.1757 -0.3239 -0.2573
  146SAPE    HA16020   0.680   3.987  10.684  2.0384 -2.0196  1.0253
  146SAPE    HB16021   0.586   4.031  10.831 -0.9124  0.6104 -1.5107
  146SAPE    C216022   0.665   4.196  10.704  0.0083 -0.4609 -0.5035
  146SAPE    HS16023   0.577   4.194  10.637  0.4126  1.4262 -1.1458
  146SAPE   O2116024   0.783   4.228  10.623  0.0718  0.1966  0.5537
  146SAPE   C2116025   0.789   4.171  10.496  1.1146  0.2167 -0.0192
  146SAPE   O2216026   0.703   4.093  10.449 -0.0395 -0.0996 -0.1326
  146SAPE   C2216027   0.925   4.197  10.430  0.4855  0.1599  0.8191
  146SAPE   H2R16028   0.980   4.272  10.490  0.8222  1.5642 -1.1173
  146SAPE   H2S16029   0.986   4.105  10.441  0.9718  0.3082 -0.4262
  146SAPE    C316030   0.649   4.312  10.805  0.2339 -0.3405  0.0656
  146SAPE    HX16031   0.737   4.319  10.873  0.8202  0.7216 -0.7667
  146SAPE    HY16032   0.556   4.304  10.865 -0.0716  2.0321  0.0318
  146SAPE   O3116033   0.637   4.433  10.727 -0.1966  0.1130  0.2397
  146SAPE   C3116034   0.727   4.523  10.737  0.1032 -0.2352  0.3116
  146SAPE   O3216035   0.826   4.528  10.814  0.2485  0.0686 -0.5788
  146SAPE   C3216036   0.689   4.622  10.625  0.6350 -0.4335  0.4563
  146SAPE   H2X16037   0.742   4.717  10.648  0.3574 -0.3845  0.9012
  146SAPE   H2Y16038   0.581   4.646  10.626  1.0911  1.9365 -0.4985
  146SAPE   C2316039   0.902   4.235  10.278 -0.2671 -0.1600 -0.0782
  146SAPE   H3R16040   0.928   4.342  10.266 -3.5811  0.9615  1.6843
  146SAPE   H3S16041   0.798   4.229  10.242  0.8976  0.0701 -3.9482
  146SAPE   C2416042   0.988   4.158  10.175  0.0121 -0.3943  0.4939
  146SAPE   H4R16043   0.954   4.202  10.079 -1.5846 -2.2078  0.1620
  146SAPE   H4S16044   0.962   4.051  10.165 -0.8066 -0.0459 -1.6144
  146SAPE   C2516045   1.134   4.160  10.200 -0.3180 -0.5443  0.0807
  146SAPE   H5R16046   1.163   4.101  10.288 -0.1162 -0.5160  0.0332
  146SAPE   C2616047   1.233   4.227  10.139 -0.4383  0.1159  0.2155
  146SAPE   H6R16048   1.335   4.220  10.179  0.2736  2.0752 -1.1132
  146SAPE   C2716049   1.213   4.316  10.020  0.0010 -0.0301 -0.5719
  146SAPE   H7R16050   1.154   4.406  10.048 -2.0023 -0.6658 -2.4350
  146SAPE   H7S16051   1.154   4.260   9.944  0.4572 -0.9741 -0.2486
  146SAPE   C2816052   1.332   4.376   9.955 -0.1549  0.0014  0.3017
  146SAPE   H8R16053   1.406   4.425  10.019 -1.5143  1.6507  0.6736
  146SAPE   C2916054   1.340   4.401   9.819 -0.3517 -0.2911  0.0166
  146SAPE   H9R16055   1.424   4.459   9.777  0.0708  0.8978  2.3651
  146SAPE  C21016056   1.238   4.373   9.714 -0.3058 -0.0265  0.4152
  146SAPE  H10R16057   1.155   4.308   9.750 -2.4885  0.8230 -2.6438
  146SAPE  H10S16058   1.291   4.307   9.642  1.4207  0.1865  1.4362
  146SAPE  C21116059   1.183   4.493   9.635  0.3961 -0.2005  0.6338
  146SAPE  H11R16060   1.186   4.591   9.685  2.3493  0.0695  0.0644
  146SAPE  C21216061   1.145   4.485   9.507  0.3054  0.5972  0.8717
  146SAPE  H12R16062   1.126   4.583   9.462 -3.0400  0.7429  2.3204
  146SAPE  C21316063   1.157   4.370   9.418  0.2456 -0.1320 -0.1297
  146SAPE  H13R16064   1.055   4.338   9.388 -0.6252  1.6043  0.8349
  146SAPE  H13S16065   1.215   4.287   9.465 -0.5427 -0.8331 -0.3631
  146SAPE  C21416066   1.224   4.414   9.285 -0.4126 -0.3488 -0.4139
  146SAPE  H14R16067   1.150   4.429   9.204 -1.3649  1.1152  0.6650
  146SAPE  C21516068   1.354   4.424   9.254 -0.0341 -0.1238  0.6472
  146SAPE  H15R16069   1.368   4.453   9.149 -0.2095 -0.0946  0.6313
  146SAPE  C21616070   1.479   4.397   9.327  0.3930  0.2469 -0.4775
  146SAPE  H16R16071   1.472   4.317   9.403  1.4865 -0.0455 -0.6602
  146SAPE  H16S16072   1.515   4.492   9.372  1.5069 -0.3992  0.0390
  146SAPE  C21716073   1.594   4.340   9.233  0.3300  0.8361 -0.0668
  146SAPE  H17R16074   1.690   4.305   9.277  0.0986 -2.7651 -2.0126
  146SAPE  H17S16075   1.627   4.427   9.173  3.1627  1.2403  1.8745
  146SAPE  C21816076   1.558   4.222   9.141 -0.0797 -0.0174  0.8932
  146SAPE  H18R16077   1.475   4.274   9.088 -0.0423  1.1525  1.9468
  146SAPE  H18S16078   1.517   4.139   9.203 -0.2228 -1.9458 -1.5983
  146SAPE  C21916079   1.678   4.186   9.057 -0.2395  0.9681  0.2364
  146SAPE  H19R16080   1.755   4.137   9.120 -2.5584 -1.9867  0.9886
  146SAPE  H19S16081   1.722   4.278   9.011 -2.5989  1.5622 -1.0059
  146SAPE  C22016082   1.652   4.091   8.938  0.1297 -0.2845 -0.8048
  146SAPE  H20R16083   1.752   4.052   8.911  0.8704  1.1477 -0.2569
  146SAPE  H20S16084   1.597   4.149   8.860  1.2416 -0.8554 -2.0497
  146SAPE  H20T16085   1.583   4.010   8.968 -1.5916  1.0379 -1.0406
  146SAPE   C3316086   0.726   4.562  10.494 -0.4656  0.2564  1.0379
  146SAPE   H3X16087   0.689   4.458  10.485 -0.6555  0.5034 -2.1699
  146SAPE   H3Y16088   0.835   4.542  10.483 -0.3426  0.9458  0.9601
  146SAPE   C3416089   0.671   4.645  10.372  0.2854 -0.2531 -0.2358
  146SAPE   H4X16090   0.689   4.753  10.394 -2.0640 -0.2896  2.4140
  146SAPE   H4Y16091   0.564   4.620  10.360  0.4593 -0.1223 -2.3780
  146SAPE   C3516092   0.735   4.614  10.238 -0.5618 -0.2866 -0.5616
  146SAPE   H5X16093   0.745   4.504  10.226  1.9516 -0.4234  1.6536
  146SAPE   H5Y16094   0.842   4.642  10.251  0.1189 -3.1137  0.5673
  146SAPE   C3616095   0.679   4.693  10.122  0.4756  0.0928 -0.5801
  146SAPE   H6X16096   0.675   4.801  10.146  0.7845  0.0480 -0.3222
  146SAPE   H6Y16097   0.573   4.663  10.106 -0.7569  2.9827  1.2644
  146SAPE   C3716098   0.745   4.657   9.990 -0.0849 -0.0477  0.3088
  146SAPE   H7X16099   0.765   4.548   9.978 -0.6045 -0.2950  1.4916
  146SAPE   H7Y16100   0.839   4.715   9.976 -0.3246  0.2198 -0.2211
  146SAPE   C3816101   0.652   4.700   9.875  0.6407 -0.1867  0.1294
  146SAPE   H8X16102   0.638   4.809   9.889  0.0115 -0.3716  1.0534
  146SAPE   H8Y16103   0.555   4.646   9.882  1.3905 -2.1425 -2.5960
  146SAPE   C3916104   0.719   4.676   9.740  0.3308  0.3549  0.8331
  146SAPE   H9X16105   0.645   4.707   9.663  2.6500  1.3596 -1.0976
  146SAPE   H9Y16106   0.761   4.575   9.722  1.1477  0.7094  0.7192
  146SAPE  C31016107   0.826   4.773   9.703 -0.8459 -0.3588 -0.3041
  146SAPE  H10X16108   0.905   4.786   9.780 -0.1864  0.7237 -1.1222
  146SAPE  H10Y16109   0.776   4.870   9.682  1.8270  1.0136 -0.8065
  146SAPE  C31116110   0.903   4.748   9.572 -0.1457 -0.5329  0.4892
  146SAPE  H11X16111   0.938   4.643   9.578  0.6134 -0.2660  0.8187
  146SAPE  H11Y16112   0.992   4.814   9.563  0.0422 -0.9687 -1.1672
  146SAPE  C31216113   0.819   4.788   9.453  0.4934 -0.3434 -0.1948
  146SAPE  H12X16114   0.800   4.897   9.460  2.1955 -0.0554  0.2171
  146SAPE  H12Y16115   0.715   4.750   9.465 -0.3728  2.1054  0.4921
  146SAPE  C31316116   0.891   4.750   9.328 -0.8215  0.7225 -0.2527
  146SAPE  H13X16117   0.874   4.640   9.327 -1.1076  0.7575 -2.2690
  146SAPE  H13Y16118   1.000   4.769   9.323 -0.8040  0.7676  0.2501
  146SAPE  C31416119   0.832   4.792   9.196  0.0280  0.0100  0.2000
  146SAPE  H14X16120   0.883   4.890   9.186  2.6271 -1.2212  0.5928
  146SAPE  H14Y16121   0.721   4.783   9.188  0.0150  1.4783 -3.2245
  146SAPE  C31516122   0.882   4.703   9.084  0.3801  0.0550 -0.3555
  146SAPE  H15X16123   0.861   4.600   9.120 -2.5167  1.6092  2.9452
  146SAPE  H15Y16124   0.991   4.703   9.062 -0.0075 -1.5944 -2.7171
  146SAPE  C31616125   0.825   4.754   8.945 -0.1574 -0.2711 -0.2290
  146SAPE  H16X16126   0.863   4.851   8.905  1.9094 -0.9050  0.0432
  146SAPE  H16Y16127   0.716   4.775   8.953 -0.1085 -0.4010  1.0651
  146SAPE  C31716128   0.824   4.654   8.832 -0.6765 -0.2601 -0.9206
  146SAPE  H17X16129   0.776   4.565   8.879  0.4767 -0.2223  0.3830
  146SAPE  H17Y16130   0.927   4.623   8.806 -0.1159  1.3183 -0.7178
  146SAPE  C31816131   0.750   4.699   8.705 -0.1852 -0.2426  0.1086
  146SAPE  H18X16132   0.643   4.711   8.733 -1.2753 -2.2697 -2.7140
  146SAPE  H18Y16133   0.746   4.627   8.621  1.6952 -0.1483 -0.1034
  146SAPE  H18Z16134   0.783   4.802   8.680 -0.8484  0.3226  1.4419
  147SAPE     N16135   4.610   3.304   6.176  0.9860 -0.5963  0.1518
  147SAPE   HN116136   4.618   3.398   6.133 -1.8024 -0.3770 -0.0244
  147SAPE   HN216137   4.704   3.262   6.163  0.2434 -1.9138 -1.2990
  147SAPE   HN316138   4.544   3.241   6.127 -1.1529  0.9738  0.8919
  147SAPE   C1216139   4.567   3.324   6.319  0.0712 -0.3690  0.0222
  147SAPE  H12A16140   4.603   3.426   6.342 -0.2338 -0.5009  1.1458
  147SAPE  H12B16141   4.613   3.241   6.377  1.4801 -1.1235 -2.0579
  147SAPE   C1116142   4.417   3.321   6.330 -0.3409 -0.4828 -1.0234
  147SAPE  H11A16143   4.387   3.343   6.434 -0.7266 -0.6688 -1.0934
  147SAPE  H11B16144   4.371   3.221   6.310  0.2120 -1.7945  3.3486
  147SAPE     P16145   4.358   3.566   6.292  0.0799 -0.4406 -0.5783
  147SAPE   O1316146   4.437   3.638   6.197 -0.4108 -0.6477 -0.1471
  147SAPE   O1416147   4.218   3.608   6.312  0.3063 -0.5245 -0.6333
  147SAPE   O1216148   4.360   3.420   6.243  0.2507 -0.3640 -0.2104
  147SAPE   O1116149   4.430   3.572   6.431  0.5964 -0.0951  0.2270
  147SAPE    C116150   4.486   3.697   6.475 -0.1546 -0.2657 -0.4455
  147SAPE    HA16151   4.595   3.688   6.461 -0.1803 -2.1880  0.2523
  147SAPE    HB16152   4.438   3.784   6.425 -1.8857 -0.2772  1.0618
  147SAPE    C216153   4.472   3.703   6.626  0.2267 -0.2017  0.4289
  147SAPE    HS16154   4.504   3.607   6.672 -1.7469 -2.0691 -1.8230
  147SAPE   O2116155   4.334   3.728   6.661  0.1116 -0.2321 -0.2372
  147SAPE   C2116156   4.277   3.639   6.748  0.2744  0.1466 -0.0967
  147SAPE   O2216157   4.342   3.556   6.811 -0.1093 -0.0108 -0.1065
  147SAPE   C2216158   4.132   3.661   6.767 -0.5207  0.1919 -0.6274
  147SAPE   H2R16159   4.110   3.770   6.758  0.1870  0.4073  0.1053
  147SAPE   H2S16160   4.060   3.598   6.711 -0.1453 -0.7654 -0.0488
  147SAPE    C316161   4.576   3.806   6.684  0.4499  0.4669  0.1443
  147SAPE    HX16162   4.531   3.904   6.657  1.9255  1.2239  0.3927
  147SAPE    HY16163   4.669   3.806   6.623 -0.6945 -0.6517 -1.7150
  147SAPE   O3116164   4.592   3.791   6.824  0.0947 -0.9229  0.9395
  147SAPE   C3116165   4.663   3.684   6.853  0.3357 -0.6937  0.8185
  147SAPE   O3216166   4.722   3.616   6.766  0.1508  0.3571  0.4071
  147SAPE   C3216167   4.679   3.668   7.004 -0.1388 -0.0650  0.0015
  147SAPE   H2X16168   4.579   3.664   7.051 -0.4627  0.3070 -0.6506
  147SAPE   H2Y16169   4.717   3.766   7.038  0.5025 -0.3757  0.2160
  147SAPE   C2316170   4.094   3.622   6.910  0.1978  0.3345  0.0865
  147SAPE   H3R16171   4.142   3.695   6.978  0.1709  1.4438 -1.0290
  147SAPE   H3S16172   4.131   3.519   6.928 -0.4616  0.0115 -0.3515
  147SAPE   C2416173   3.944   3.604   6.930  0.3981 -0.5628 -1.1359
  147SAPE   H4R16174   3.939   3.514   6.994 -0.6040  1.5525  1.9895
  147SAPE   H4S16175   3.889   3.574   6.838 -0.4024  1.2604 -1.2982
  147SAPE   C2516176   3.869   3.732   6.993 -0.3242 -1.1372  0.3817
  147SAPE   H5R16177   3.895   3.831   6.953 -1.3993 -1.5150 -1.3478
  147SAPE   C2616178   3.799   3.729   7.103  0.0707  0.0059 -0.1275
  147SAPE   H6R16179   3.756   3.829   7.121  2.6571  1.2742 -0.5657
  147SAPE   C2716180   3.771   3.610   7.195 -0.1138 -1.1491 -0.2915
  147SAPE   H7R16181   3.864   3.583   7.250  1.3609  0.8483 -1.6773
  147SAPE   H7S16182   3.755   3.516   7.137 -2.5999 -1.0776  0.1745
  147SAPE   C2816183   3.642   3.635   7.275  0.5794  0.3180 -0.3531
  147SAPE   H8R16184   3.562   3.571   7.236  1.3852 -0.9787  0.0427
  147SAPE   C2916185   3.618   3.716   7.379  0.1744  0.3166 -0.3698
  147SAPE   H9R16186   3.518   3.708   7.422  0.3460  0.0886 -0.0050
  147SAPE  C21016187   3.724   3.810   7.441  1.0733  0.0911 -0.6803
  147SAPE  H10R16188   3.687   3.914   7.426 -2.0047 -0.8077 -0.0940
  147SAPE  H10S16189   3.825   3.796   7.396  1.5167  1.0165 -0.0002
  147SAPE  C21116190   3.742   3.781   7.586  0.8248 -0.4479  1.1077
  147SAPE  H11R16191   3.804   3.692   7.606  2.8248  0.3463 -1.0776
  147SAPE  C21216192   3.689   3.843   7.692 -0.1232  0.4350  0.0213
  147SAPE  H12R16193   3.725   3.810   7.791  0.5076  2.2876  0.4481
  147SAPE  C21316194   3.599   3.966   7.701  0.8743  0.4722  0.0716
  147SAPE  H13R16195   3.520   3.954   7.779 -0.4664 -0.5786 -1.3742
  147SAPE  H13S16196   3.534   3.972   7.611  0.0689  3.5777  0.7411
  147SAPE  C21416197   3.669   4.099   7.713 -0.0360  0.2579 -1.1069
  147SAPE  H14R16198   3.681   4.147   7.615  0.4388 -0.0993 -1.2289
  147SAPE  C21516199   3.716   4.167   7.822 -0.5458  0.7837  0.5234
  147SAPE  H15R16200   3.782   4.253   7.801 -0.4847  0.4233 -0.8089
  147SAPE  C21616201   3.711   4.121   7.963 -0.3685  0.2060 -0.5500
  147SAPE  H16R16202   3.668   4.019   7.973 -2.0805  1.0270  0.9006
  147SAPE  H16S16203   3.650   4.185   8.030 -0.3700  2.0884 -2.2504
  147SAPE  C21716204   3.849   4.109   8.028  0.4700 -0.5238 -0.3155
  147SAPE  H17R16205   3.840   4.069   8.132 -0.3382  0.2269 -0.0815
  147SAPE  H17S16206   3.884   4.211   8.053  0.1787 -0.7876  1.3631
  147SAPE  C21816207   3.965   4.035   7.950  0.6003 -0.3773  0.1192
  147SAPE  H18R16208   3.992   4.100   7.865  2.3243  0.7600  1.4601
  147SAPE  H18S16209   3.925   3.942   7.905 -1.9028  1.0257 -0.7942
  147SAPE  C21916210   4.096   4.025   8.035 -0.2406  0.2833 -0.1493
  147SAPE  H19R16211   4.149   3.935   7.995  1.4551  1.2267 -0.1313
  147SAPE  H19S16212   4.082   4.019   8.145  0.5932  1.3159  0.0351
  147SAPE  C22016213   4.189   4.146   8.005 -0.1661  0.4006 -0.1199
  147SAPE  H20R16214   4.145   4.236   8.054  0.9732 -0.5905  3.0030
  147SAPE  H20S16215   4.189   4.155   7.894 -0.4553  0.3200 -0.1281
  147SAPE  H20T16216   4.296   4.137   8.033 -0.0274  0.2178 -0.6985
  147SAPE   C3316217   4.765   3.551   7.039  0.0568  0.3775  0.2738
  147SAPE   H3X16218   4.861   3.535   6.985 -0.7002  0.4798 -1.1307
  147SAPE   H3Y16219   4.697   3.465   7.022 -2.9602  2.3421  1.5352
  147SAPE   C3416220   4.797   3.549   7.188 -0.1152 -0.3305  0.2417
  147SAPE   H4X16221   4.707   3.519   7.246  1.0369  1.0887  2.9339
  147SAPE   H4Y16222   4.817   3.648   7.234  0.8719 -0.4927  0.2023
  147SAPE   C3516223   4.911   3.456   7.252  0.1716 -0.7857  1.3434
  147SAPE   H5X16224   5.013   3.462   7.207 -0.2056  0.9878  0.6256
  147SAPE   H5Y16225   4.883   3.354   7.219  0.0623  0.4284 -3.0378
  147SAPE   C3616226   4.917   3.474   7.399 -0.0385 -0.5669 -0.7939
  147SAPE   H6X16227   4.828   3.428   7.446  1.3528 -0.7007  1.9215
  147SAPE   H6Y16228   4.913   3.581   7.431  0.4952 -0.5397 -0.8020
  147SAPE   C3716229   5.050   3.418   7.464 -0.3599 -0.2799  0.5285
  147SAPE   H7X16230   5.135   3.480   7.427  0.1071 -1.0970  0.2226
  147SAPE   H7Y16231   5.077   3.316   7.429  0.3665 -0.1799  0.7735
  147SAPE   C3816232   5.066   3.442   7.616  0.2957  0.0343  0.3168
  147SAPE   H8X16233   5.050   3.551   7.631  0.6960  0.2826 -0.9479
  147SAPE   H8Y16234   5.167   3.430   7.661  0.0268  2.6231  1.8180
  147SAPE   C3916235   4.976   3.351   7.701 -0.2127  0.1374  0.7946
  147SAPE   H9X16236   4.992   3.242   7.686  0.7097 -0.0206  2.5907
  147SAPE   H9Y16237   4.871   3.378   7.678 -0.4320 -1.5498 -0.3383
  147SAPE  C31016238   5.009   3.388   7.848 -0.0005  0.4046 -0.1734
  147SAPE  H10X16239   5.118   3.387   7.866 -0.0234  0.8002 -0.0063
  147SAPE  H10Y16240   4.961   3.303   7.902 -1.1317  0.0469 -1.6578
  147SAPE  C31116241   4.952   3.523   7.898 -0.2716 -0.4458 -0.4706
  147SAPE  H11X16242   4.998   3.609   7.844 -0.1302  1.0093  1.8473
  147SAPE  H11Y16243   4.984   3.534   8.004 -0.8660 -0.1596 -0.3194
  147SAPE  C31216244   4.799   3.532   7.914 -0.1886 -0.2037 -0.0434
  147SAPE  H12X16245   4.755   3.515   7.813 -1.3347  2.3490 -0.0514
  147SAPE  H12Y16246   4.776   3.630   7.959 -1.5089 -1.5673  2.4778
  147SAPE  C31316247   4.738   3.438   8.018  0.8957 -1.1024 -0.0337
  147SAPE  H13X16248   4.810   3.426   8.102  0.7570  4.8425  1.3524
  147SAPE  H13Y16249   4.738   3.335   7.976  1.4702 -0.9934 -0.3139
  147SAPE  C31416250   4.594   3.472   8.060  0.4543 -0.3263 -0.2694
  147SAPE  H14X16251   4.526   3.490   7.974 -0.5740  1.5287  0.8635
  147SAPE  H14Y16252   4.602   3.568   8.116 -2.3478 -0.3141  0.2659
  147SAPE  C31516253   4.544   3.373   8.158 -0.0932  0.3214  0.5891
  147SAPE  H15X16254   4.608   3.389   8.247 -0.9441 -1.7359  1.6313
  147SAPE  H15Y16255   4.560   3.269   8.123  1.3873  0.7985 -0.2511
  147SAPE  C31616256   4.400   3.400   8.204  0.0534 -0.1418  0.1117
  147SAPE  H16X16257   4.328   3.369   8.125  1.1148 -0.0276 -0.9367
  147SAPE  H16Y16258   4.395   3.508   8.228  0.6075  0.1742 -1.1118
  147SAPE  C31716259   4.358   3.329   8.334 -0.0610 -0.2060  0.6201
  147SAPE  H17X16260   4.339   3.220   8.324 -0.6583 -0.4155  3.2542
  147SAPE  H17Y16261   4.251   3.359   8.342 -0.0514 -0.1166  0.4323
  147SAPE  C31816262   4.437   3.365   8.465 -0.6702 -0.2592 -0.0036
  147SAPE  H18X16263   4.532   3.307   8.466 -0.7714 -0.5116 -1.8061
  147SAPE  H18Y16264   4.393   3.350   8.566 -1.8967  1.3422 -0.2660
  147SAPE  H18Z16265   4.468   3.472   8.465  2.3393 -0.9872 -1.7727
  148SAPE     N16266   4.934   2.185   6.446  0.1555 -0.1274  0.0442
  148SAPE   HN116267   5.035   2.170   6.428 -0.1725 -1.7268 -0.6185
  148SAPE   HN216268   4.916   2.132   6.534  0.6214 -0.6621 -0.1739
  148SAPE   HN316269   4.871   2.146   6.374  0.6420  0.7168 -0.8599
  148SAPE   C1216270   4.916   2.336   6.463 -0.3957  0.6293 -0.1325
  148SAPE  H12A16271   4.866   2.367   6.369 -1.1052 -3.1603 -1.1989
  148SAPE  H12B16272   5.019   2.377   6.470  0.9183 -2.1135 -1.3179
  148SAPE   C1116273   4.814   2.353   6.574 -0.4327 -0.2813 -0.0036
  148SAPE  H11A16274   4.796   2.462   6.585  2.0205  0.0106  2.0194
  148SAPE  H11B16275   4.864   2.321   6.668  2.9781  1.7271 -0.9650
  148SAPE     P16276   4.554   2.314   6.498 -0.1886  0.0911  0.5337
  148SAPE   O1316277   4.584   2.349   6.357 -0.7229  0.1325 -0.2219
  148SAPE   O1416278   4.463   2.199   6.510 -0.2700 -0.2414 -0.1818
  148SAPE   O1216279   4.695   2.277   6.560  0.0923 -0.0166 -0.2962
  148SAPE   O1116280   4.495   2.435   6.574  0.2311  0.4842  0.2171
  148SAPE    C116281   4.451   2.416   6.707  1.1008 -0.5978 -0.0476
  148SAPE    HA16282   4.385   2.502   6.728  2.8880  1.1311 -1.1836
  148SAPE    HB16283   4.390   2.325   6.724 -0.3235  0.6264  1.6759
  148SAPE    C216284   4.570   2.437   6.815 -0.1039 -0.5896 -0.0736
  148SAPE    HS16285   4.641   2.502   6.759  1.8895 -1.4732  1.3027
  148SAPE   O2116286   4.629   2.312   6.857  0.1983 -0.3278  0.4996
  148SAPE   C2116287   4.756   2.318   6.906 -0.5917 -0.5689 -0.1617
  148SAPE   O2216288   4.827   2.419   6.903  0.0409  0.2957  0.3703
  148SAPE   C2216289   4.802   2.177   6.939  0.7032 -0.3351 -0.1897
  148SAPE   H2R16290   4.783   2.101   6.861  0.2259  0.0745 -0.4769
  148SAPE   H2S16291   4.912   2.185   6.956  1.0804  2.3665 -3.0198
  148SAPE    C316292   4.525   2.525   6.936 -0.5774 -0.0487  0.0288
  148SAPE    HX16293   4.602   2.546   7.013 -1.5967  1.6452  0.6428
  148SAPE    HY16294   4.447   2.464   6.986 -0.2859 -1.2859 -0.9799
  148SAPE   O3116295   4.451   2.641   6.904 -0.2317  0.4853  0.1707
  148SAPE   C3116296   4.527   2.738   6.865 -0.4025 -1.3776  0.9765
  148SAPE   O3216297   4.651   2.742   6.872 -0.5247  0.1316 -0.1091
  148SAPE   C3216298   4.448   2.853   6.812 -0.5949  0.4824 -0.3494
  148SAPE   H2X16299   4.358   2.811   6.763 -0.6987  1.0256 -0.6352
  148SAPE   H2Y16300   4.509   2.908   6.737 -0.2419  1.5281  0.6821
  148SAPE   C2316301   4.732   2.136   7.074 -0.5982 -0.7502  0.3398
  148SAPE   H3R16302   4.625   2.166   7.071 -1.0067 -2.1651 -2.9159
  148SAPE   H3S16303   4.769   2.203   7.154 -3.7527  1.2254  0.3104
  148SAPE   C2416304   4.754   1.990   7.115  0.2467  0.2595 -0.0205
  148SAPE   H4R16305   4.865   1.979   7.110  0.1748 -0.1404 -0.8640
  148SAPE   H4S16306   4.708   1.921   7.041 -0.3546  0.0809  0.5155
  148SAPE   C2516307   4.690   1.945   7.241  0.7191  0.6716 -0.0628
  148SAPE   H5R16308   4.583   1.924   7.225  0.6164  2.2229 -1.7256
  148SAPE   C2616309   4.750   1.912   7.358  0.0907  0.7608  0.2263
  148SAPE   H6R16310   4.688   1.878   7.442 -1.7068 -1.1906 -1.7762
  148SAPE   C2716311   4.898   1.917   7.382 -0.2217 -0.0139 -0.3616
  148SAPE   H7R16312   4.953   1.924   7.285 -2.8142  2.0986 -1.7900
  148SAPE   H7S16313   4.931   1.821   7.428 -1.9639  0.0087  1.0495
  148SAPE   C2816314   4.922   2.030   7.476 -0.3550 -0.7610  0.5595
  148SAPE   H8R16315   4.926   2.134   7.442  1.6127 -0.0051  2.8482
  148SAPE   C2916316   4.934   2.023   7.607  0.0318  0.5386 -0.8055
  148SAPE   H9R16317   4.957   2.116   7.661 -0.9263 -0.2144  0.9754
  148SAPE  C21016318   4.936   1.907   7.708 -0.2833 -0.0534  0.0946
  148SAPE  H10R16319   5.011   1.931   7.786  0.5866 -1.3442 -0.3061
  148SAPE  H10S16320   4.981   1.817   7.660  0.2166 -1.6869  3.3689
  148SAPE  C21116321   4.805   1.876   7.778 -0.1400 -0.3434  0.1374
  148SAPE  H11R16322   4.763   1.776   7.759 -1.9171  0.7694 -2.1401
  148SAPE  C21216323   4.742   1.945   7.872  0.0381  0.2772  0.0595
  148SAPE  H12R16324   4.651   1.902   7.917  1.6422 -1.9631  1.3475
  148SAPE  C21316325   4.774   2.079   7.932  0.0253  0.3749  0.4828
  148SAPE  H13R16326   4.869   2.114   7.887  0.7149 -0.5059  1.2111
  148SAPE  H13S16327   4.784   2.079   8.043 -0.0565  1.2295  0.4972
  148SAPE  C21416328   4.668   2.174   7.889 -0.3248 -0.0701 -0.3097
  148SAPE  H14R16329   4.619   2.155   7.793  0.1849  0.7375 -0.7454
  148SAPE  C21516330   4.657   2.296   7.946 -0.2720  0.5843  0.4283
  148SAPE  H15R16331   4.584   2.369   7.910 -0.7503  0.1417  0.4963
  148SAPE  C21616332   4.746   2.351   8.055  0.3418 -0.2223  0.0539
  148SAPE  H16R16333   4.806   2.438   8.020  0.9180  0.3707  2.3035
  148SAPE  H16S16334   4.815   2.272   8.091 -0.9239 -1.7659 -0.8009
  148SAPE  C21716335   4.670   2.414   8.169  0.0324  0.4709 -0.3451
  148SAPE  H17R16336   4.585   2.357   8.211  0.9141  0.4054  1.4802
  148SAPE  H17S16337   4.627   2.509   8.130 -0.5966  0.6122  0.6683
  148SAPE  C21816338   4.756   2.445   8.293 -0.2426 -0.3399 -0.2276
  148SAPE  H18R16339   4.768   2.350   8.349  0.4715  0.0630  0.3321
  148SAPE  H18S16340   4.696   2.513   8.356 -0.5349  0.0693 -0.9315
  148SAPE  C21916341   4.900   2.510   8.265 -0.3293  0.1054  0.2870
  148SAPE  H19R16342   4.883   2.603   8.207  1.1444 -0.5235 -1.2540
  148SAPE  H19S16343   4.951   2.437   8.198 -2.3226  0.2982 -1.5582
  148SAPE  C22016344   4.983   2.551   8.394 -0.1748  0.5111 -0.1077
  148SAPE  H20R16345   5.017   2.458   8.445  0.2522  0.4615 -0.4749
  148SAPE  H20S16346   4.920   2.615   8.459  0.0127  1.6337 -0.9977
  148SAPE  H20T16347   5.072   2.605   8.356  0.0905 -0.0734 -0.3237
  148SAPE   C3316348   4.404   2.960   6.913  0.1077  0.4592 -0.7136
  148SAPE   H3X16349   4.363   3.042   6.850 -0.5534  2.3307  1.9833
  148SAPE   H3Y16350   4.495   2.993   6.968  0.0836 -0.6040 -0.0172
  148SAPE   C3416351   4.305   2.919   7.016  0.2305 -0.3119 -0.5832
  148SAPE   H4X16352   4.252   2.828   6.981  1.1637 -1.1487  0.1205
  148SAPE   H4Y16353   4.231   3.002   7.024 -0.3564 -0.9001  0.3827
  148SAPE   C3516354   4.371   2.887   7.150 -0.2337 -0.5669  0.2716
  148SAPE   H5X16355   4.440   2.967   7.185  1.4159 -0.7288 -2.3577
  148SAPE   H5Y16356   4.428   2.794   7.129  1.2484 -0.1411  2.1265
  148SAPE   C3616357   4.258   2.864   7.257 -0.2360  0.1758 -0.0053
  148SAPE   H6X16358   4.196   2.784   7.212  0.9792 -0.2565 -0.9920
  148SAPE   H6Y16359   4.196   2.955   7.261  0.4354  0.8136 -2.3079
  148SAPE   C3716360   4.314   2.821   7.394 -0.0215 -0.6297  0.0978
  148SAPE   H7X16361   4.261   2.875   7.476 -2.5932 -0.8737 -1.3045
  148SAPE   H7Y16362   4.417   2.857   7.378 -1.2984  2.5966 -1.9349
  148SAPE   C3816363   4.296   2.670   7.418  0.5939 -0.3440  0.8070
  148SAPE   H8X16364   4.348   2.626   7.330 -1.0684  0.6823 -0.7777
  148SAPE   H8Y16365   4.196   2.625   7.434  0.9614 -0.2101  4.1864
  148SAPE   C3916366   4.371   2.632   7.543 -0.3393 -0.2105 -0.0179
  148SAPE   H9X16367   4.473   2.676   7.547 -0.3917  0.2851 -2.5191
  148SAPE   H9Y16368   4.394   2.523   7.534  1.6899 -0.0146  1.9158
  148SAPE  C31016369   4.293   2.658   7.672 -0.8647  0.1784 -0.1682
  148SAPE  H10X16370   4.203   2.594   7.681 -1.3288  0.8722  0.2415
  148SAPE  H10Y16371   4.263   2.764   7.663  0.1525  0.6399  1.3838
  148SAPE  C31116372   4.375   2.638   7.804 -0.4771  0.7146  0.1974
  148SAPE  H11X16373   4.465   2.702   7.792  0.3741 -0.6238 -1.1157
  148SAPE  H11Y16374   4.410   2.532   7.801 -0.5624  0.7009 -0.4809
  148SAPE  C31216375   4.308   2.661   7.940 -0.8522  0.1316 -0.2927
  148SAPE  H12X16376   4.387   2.631   8.012 -0.8991 -1.0860 -0.7254
  148SAPE  H12Y16377   4.223   2.589   7.934  1.1574 -2.2883 -1.2659
  148SAPE  C31316378   4.258   2.805   7.953  0.2650  0.1607 -0.2874
  148SAPE  H13X16379   4.178   2.827   7.879  0.4125 -1.1233 -0.8382
  148SAPE  H13Y16380   4.337   2.875   7.920 -1.0788  0.9662 -1.9409
  148SAPE  C31416381   4.207   2.838   8.095  0.4751  0.1370 -0.8199
  148SAPE  H14X16382   4.186   2.947   8.093 -3.5983 -0.4435  0.4874
  148SAPE  H14Y16383   4.289   2.824   8.169  1.3239 -1.7679 -2.0463
  148SAPE  C31516384   4.079   2.765   8.147  1.2475 -0.3512  0.3726
  148SAPE  H15X16385   4.016   2.752   8.057 -1.1133 -0.0046  1.8955
  148SAPE  H15Y16386   4.036   2.842   8.214  2.2138  1.3099 -0.8336
  148SAPE  C31616387   4.119   2.640   8.220 -0.2517  0.5113  0.3470
  148SAPE  H16X16388   4.188   2.672   8.301  0.1681  1.8968 -0.5143
  148SAPE  H16Y16389   4.171   2.564   8.158  1.2288  0.0818  2.0252
  148SAPE  C31716390   3.993   2.577   8.282 -0.3528  0.3956  0.5528
  148SAPE  H17X16391   3.912   2.558   8.210 -1.9487 -0.4553  2.4770
  148SAPE  H17Y16392   3.961   2.643   8.366  2.0212  0.1583  1.7409
  148SAPE  C31816393   4.034   2.441   8.344  0.1091 -0.5754 -0.2989
  148SAPE  H18X16394   4.074   2.441   8.447  2.2542 -2.5512 -1.0492
  148SAPE  H18Y16395   4.117   2.390   8.291 -0.2540 -1.5849  0.0837
  148SAPE  H18Z16396   3.942   2.379   8.343 -0.1714 -0.3760  2.9263
  149SAPE     N16397   0.485   4.524   6.185  0.4036 -0.0536  0.3640
  149SAPE   HN116398   0.504   4.619   6.222  0.1108  0.1867 -0.0835
  149SAPE   HN216399   0.578   4.492   6.150  1.2661  2.3390  0.3053
  149SAPE   HN316400   0.426   4.532   6.099  2.5886 -0.3586 -1.2495
  149SAPE   C1216401   0.439   4.435   6.293  0.0877  0.0190  0.0497
  149SAPE  H12A16402   0.525   4.397   6.352 -0.4206  0.2835  0.9792
  149SAPE  H12B16403   0.383   4.351   6.248  0.8146 -0.7214  0.5042
  149SAPE   C1116404   0.344   4.505   6.396  0.3082 -0.1046 -0.5841
  149SAPE  H11A16405   0.407   4.587   6.437 -1.0803  0.3849  0.6648
  149SAPE  H11B16406   0.325   4.433   6.478 -2.0949 -2.0236 -2.6588
  149SAPE     P16407   0.087   4.482   6.329  0.1830 -0.4057  0.2029
  149SAPE   O1316408  -0.015   4.568   6.276  0.2440 -0.6661  0.7217
  149SAPE   O1416409   0.119   4.363   6.254  0.3295 -0.4760  0.4473
  149SAPE   O1216410   0.221   4.559   6.345  0.4588 -0.2819  0.1384
  149SAPE   O1116411   0.058   4.434   6.467  1.0634 -0.0770 -0.0317
  149SAPE    C116412   0.087   4.489   6.595  0.0710 -0.0346  0.1685
  149SAPE    HA16413   0.183   4.452   6.635  1.5072  2.1882 -1.0067
  149SAPE    HB16414   0.111   4.597   6.584 -0.2677  0.0509  0.2662
  149SAPE    C216415  -0.023   4.455   6.695  0.5863  0.2464  0.2689
  149SAPE    HS16416  -0.048   4.539   6.763 -1.7661 -0.9005  0.9468
  149SAPE   O2116417   0.014   4.337   6.767  0.1336  1.0460  0.3981
  149SAPE   C2116418   0.097   4.365   6.871  0.0896 -0.0426  0.1295
  149SAPE   O2216419   0.104   4.472   6.934  0.5285  1.5076 -0.0990
  149SAPE   C2216420   0.191   4.250   6.904 -0.5959  1.1779  0.1817
  149SAPE   H2R16421   0.159   4.166   6.838 -0.3162 -1.6659  3.3646
  149SAPE   H2S16422   0.296   4.281   6.884 -0.7768  1.8907  0.3295
  149SAPE    C316423  -0.156   4.425   6.617 -0.7058  0.3319  0.1555
  149SAPE    HX16424  -0.159   4.327   6.565  1.4782 -0.5978  1.6124
  149SAPE    HY16425  -0.175   4.495   6.534 -1.7351  2.8121  2.3328
  149SAPE   O3116426  -0.269   4.449   6.708 -0.1876 -0.4816 -0.0649
  149SAPE   C3116427  -0.293   4.346   6.774  0.1179 -0.4743  0.1414
  149SAPE   O3216428  -0.255   4.230   6.758  0.0860  0.0576 -0.3360
  149SAPE   C3216429  -0.393   4.398   6.882  0.4160 -0.0260  0.0000
  149SAPE   H2X16430  -0.494   4.398   6.836 -0.1074  1.8717  1.0385
  149SAPE   H2Y16431  -0.380   4.505   6.911 -0.8682 -0.1710  1.1825
  149SAPE   C2316432   0.176   4.202   7.048  0.4908 -0.4279 -0.3079
  149SAPE   H3R16433   0.163   4.292   7.112  0.1502 -0.3490 -0.4839
  149SAPE   H3S16434   0.265   4.146   7.083  1.0544 -0.1907 -1.3259
  149SAPE   C2416435   0.053   4.108   7.065  0.1938 -0.3530  0.0218
  149SAPE   H4R16436  -0.042   4.155   7.033  1.0603  0.2588 -1.7925
  149SAPE   H4S16437   0.042   4.098   7.175 -0.4978 -0.9338 -0.0967
  149SAPE   C2516438   0.078   3.980   6.994  0.2174  0.3322  0.0889
  149SAPE   H5R16439   0.091   3.985   6.885 -2.1173  0.2210 -0.2464
  149SAPE   C2616440   0.098   3.856   7.044  0.6669  0.0107 -0.1860
  149SAPE   H6R16441   0.107   3.769   6.978 -2.4338 -0.0297 -0.6974
  149SAPE   C2716442   0.089   3.822   7.195 -0.4373  0.0189  0.8325
  149SAPE   H7R16443  -0.004   3.867   7.238  0.9242  1.5454  2.3191
  149SAPE   H7S16444   0.167   3.875   7.254 -1.3938  1.6940  0.6681
  149SAPE   C2816445   0.105   3.678   7.223 -0.3282 -0.2289 -1.3075
  149SAPE   H8R16446   0.125   3.613   7.137  2.8841  1.1827 -1.8013
  149SAPE   C2916447   0.118   3.625   7.347 -0.2321 -0.4912  0.1965
  149SAPE   H9R16448   0.129   3.515   7.342 -3.0950 -0.8435 -0.1710
  149SAPE  C21016449   0.121   3.697   7.476  1.3344 -0.1269  1.1292
  149SAPE  H10R16450   0.015   3.691   7.509  1.2351 -1.6615  0.6470
  149SAPE  H10S16451   0.147   3.804   7.474 -3.4481  1.3424 -3.0444
  149SAPE  C21116452   0.209   3.623   7.574 -0.4562  0.7460  0.0516
  149SAPE  H11R16453   0.317   3.644   7.572 -0.6284  1.8527  1.1965
  149SAPE  C21216454   0.161   3.533   7.672  0.2317  0.5392  0.7629
  149SAPE  H12R16455   0.235   3.479   7.734  0.5812  0.6025  0.4039
  149SAPE  C21316456   0.015   3.502   7.697  0.2052 -0.2068 -0.3001
  149SAPE  H13R16457   0.005   3.406   7.752  0.2828 -1.3924 -2.2475
  149SAPE  H13S16458  -0.033   3.483   7.598 -2.0557  1.1988  0.4471
  149SAPE  C21416459  -0.058   3.606   7.781 -0.0589 -0.5755  0.2878
  149SAPE  H14R16460  -0.085   3.703   7.737 -2.6768 -1.8824 -1.2288
  149SAPE  C21516461  -0.098   3.597   7.904  0.3135 -0.4468  0.1911
  149SAPE  H15R16462  -0.150   3.685   7.945 -1.2168 -1.2983  0.1489
  149SAPE  C21616463  -0.085   3.482   7.991  0.7863 -0.1400  0.1297
  149SAPE  H16R16464  -0.024   3.498   8.082  0.7914  1.0860 -0.0761
  149SAPE  H16S16465  -0.016   3.408   7.946  0.0677 -0.0409 -1.1939
  149SAPE  C21716466  -0.217   3.421   8.036  1.2783  0.5385 -0.0291
  149SAPE  H17R16467  -0.302   3.436   7.965 -0.9196 -1.0881  2.1035
  149SAPE  H17S16468  -0.247   3.471   8.130 -0.0236  0.1391 -0.2024
  149SAPE  C21816469  -0.207   3.267   8.056  0.0967  0.0193  0.1892
  149SAPE  H18R16470  -0.115   3.245   8.113  0.2434 -0.8320 -0.3524
  149SAPE  H18S16471  -0.180   3.231   7.954 -0.2131 -1.3610  0.5803
  149SAPE  C21916472  -0.339   3.201   8.109 -1.1171 -0.0553  0.1006
  149SAPE  H19R16473  -0.348   3.103   8.058  1.2715 -0.2757 -0.0030
  149SAPE  H19S16474  -0.420   3.267   8.072  0.4949  1.2641 -1.2478
  149SAPE  C22016475  -0.341   3.170   8.261 -0.5673 -0.3787 -0.0944
  149SAPE  H20R16476  -0.440   3.134   8.298 -0.7392 -0.5330 -0.7024
  149SAPE  H20S16477  -0.317   3.270   8.304  0.9728  0.4182 -2.5994
  149SAPE  H20T16478  -0.264   3.093   8.284 -0.9169 -0.9334 -0.7455
  149SAPE   C3316479  -0.407   4.309   7.008  0.4776  0.4520 -0.2833
  149SAPE   H3X16480  -0.419   4.206   6.969 -1.3386  0.7107 -0.4963
  149SAPE   H3Y16481  -0.498   4.345   7.061  0.3421 -1.9739  1.2562
  149SAPE   C3416482  -0.282   4.325   7.097 -0.4333  0.7802 -0.4958
  149SAPE   H4X16483  -0.196   4.290   7.036 -0.9500 -0.9079 -0.3055
  149SAPE   H4Y16484  -0.302   4.246   7.172 -1.7113 -0.9466 -2.5283
  149SAPE   C3516485  -0.261   4.462   7.160 -0.2564  0.2128  0.4969
  149SAPE   H5X16486  -0.359   4.508   7.182 -0.5434  0.5208 -1.2781
  149SAPE   H5Y16487  -0.210   4.518   7.078 -2.3467  0.1054 -0.9530
  149SAPE   C3616488  -0.181   4.465   7.292  0.1093  0.4682 -0.3642
  149SAPE   H6X16489  -0.237   4.410   7.369  1.4416 -2.5110 -1.3848
  149SAPE   H6Y16490  -0.164   4.572   7.318 -0.9320  1.1951 -2.4342
  149SAPE   C3716491  -0.031   4.422   7.280  0.5570 -0.1763 -0.3820
  149SAPE   H7X16492   0.023   4.443   7.186  0.0824  0.9449 -0.4238
  149SAPE   H7Y16493  -0.021   4.312   7.291  0.8159 -0.1322 -0.1544
  149SAPE   C3816494   0.062   4.493   7.383  0.4427  0.0084 -0.1748
  149SAPE   H8X16495   0.066   4.598   7.346 -3.6511 -0.3793 -2.2321
  149SAPE   H8Y16496   0.168   4.460   7.390  0.2141 -0.5440  0.9497
  149SAPE   C3916497   0.016   4.487   7.526  0.3391  0.3436  0.0061
  149SAPE   H9X16498  -0.015   4.383   7.553  1.6323  0.2304  1.1896
  149SAPE   H9Y16499  -0.072   4.554   7.534  0.0278  0.5213 -3.3408
  149SAPE  C31016500   0.126   4.518   7.639 -0.6384  0.1547  0.2759
  149SAPE  H10X16501   0.165   4.617   7.609 -2.1154  0.4337 -0.8258
  149SAPE  H10Y16502   0.210   4.450   7.610 -1.7491 -0.9770 -0.4303
  149SAPE  C31116503   0.075   4.498   7.784 -0.5151 -0.4267 -0.1161
  149SAPE  H11X16504  -0.000   4.418   7.778 -0.3596 -0.6158  0.3946
  149SAPE  H11Y16505   0.016   4.586   7.816  0.1267 -0.0673  0.1106
  149SAPE  C31216506   0.172   4.449   7.887 -0.0213 -0.0013  0.4906
  149SAPE  H12X16507   0.260   4.517   7.890  0.0617  0.0281 -1.5248
  149SAPE  H12Y16508   0.217   4.350   7.863 -2.3467 -1.3976  1.5685
  149SAPE  C31316509   0.102   4.438   8.020  1.0016  0.0489 -0.0776
  149SAPE  H13X16510   0.015   4.369   8.020 -1.2477  2.6465 -1.2504
  149SAPE  H13Y16511   0.048   4.535   8.026 -0.8523 -0.8002 -1.7875
  149SAPE  C31416512   0.201   4.410   8.135 -0.5787  0.7123 -0.1058
  149SAPE  H14X16513   0.292   4.471   8.116  0.7018 -1.2519 -0.6254
  149SAPE  H14Y16514   0.231   4.302   8.135  1.1206  1.1009  2.0775
  149SAPE  C31516515   0.154   4.461   8.275 -0.4792 -0.0167 -0.8096
  149SAPE  H15X16516   0.058   4.408   8.293 -0.6309 -0.0463 -1.6655
  149SAPE  H15Y16517   0.144   4.571   8.267  1.0984  0.2289  0.0840
  149SAPE  C31616518   0.259   4.438   8.381  0.0218 -0.0957  0.8206
  149SAPE  H16X16519   0.228   4.492   8.474 -0.8931  1.1145 -0.1481
  149SAPE  H16Y16520   0.354   4.471   8.334  0.0369 -0.2891  0.7151
  149SAPE  C31716521   0.277   4.290   8.432 -0.6404  0.1420  0.1601
  149SAPE  H17X16522   0.313   4.216   8.357  2.2955  0.1021  1.4742
  149SAPE  H17Y16523   0.176   4.267   8.470  0.4107  0.3019  3.3100
  149SAPE  C31816524   0.378   4.297   8.552 -0.0678 -0.2198  0.5145
  149SAPE  H18X16525   0.464   4.366   8.538 -0.7137  0.5023 -0.0264
  149SAPE  H18Y16526   0.423   4.197   8.566 -0.2165 -0.5034 -0.8831
  149SAPE  H18Z16527   0.323   4.325   8.645  0.3039 -0.3165  0.7651
  150SAPE     N16528   2.288   2.444   6.209 -0.0873 -0.6735  0.3745
  150SAPE   HN116529   2.216   2.373   6.232 -0.0306 -2.3655 -3.8189
  150SAPE   HN216530   2.249   2.504   6.133  0.2121 -0.6728  0.2184
  150SAPE   HN316531   2.379   2.400   6.186  0.1200 -0.7783  1.3593
  150SAPE   C1216532   2.334   2.539   6.321  0.8436 -0.0936  0.4800
  150SAPE  H12A16533   2.395   2.618   6.271  1.0667 -0.4709  0.1510
  150SAPE  H12B16534   2.385   2.473   6.394  1.1752 -0.4359 -0.0459
  150SAPE   C1116535   2.217   2.592   6.397  0.1788  0.1672  0.2249
  150SAPE  H11A16536   2.257   2.623   6.496  0.1565 -1.5164  0.7928
  150SAPE  H11B16537   2.137   2.517   6.415 -0.0594 -0.0327 -1.4830
  150SAPE     P16538   2.030   2.770   6.407 -0.0117  0.0758  0.4613
  150SAPE   O1316539   2.074   2.893   6.469  0.0821  0.3250 -0.6248
  150SAPE   O1416540   1.924   2.787   6.306  0.2322  0.0368 -0.2468
  150SAPE   O1216541   2.155   2.708   6.326  0.1633  0.3207  0.4392
  150SAPE   O1116542   1.978   2.673   6.524  0.1016 -0.0336  0.0248
  150SAPE    C116543   1.993   2.705   6.663  0.4680 -0.8493  0.8767
  150SAPE    HA16544   1.985   2.612   6.723  0.0965 -0.8331  0.8523
  150SAPE    HB16545   2.091   2.750   6.690  0.6856 -0.9424  0.2487
  150SAPE    C216546   1.886   2.793   6.733 -0.1412 -0.6110  0.1679
  150SAPE    HS16547   1.903   2.896   6.696 -0.1163 -0.5100  0.4542
  150SAPE   O2116548   1.919   2.791   6.872 -0.5878  0.7077 -0.4500
  150SAPE   C2116549   1.859   2.868   6.960 -0.2607  0.3566 -0.3043
  150SAPE   O2216550   1.781   2.954   6.937  0.6319  0.0310  0.6813
  150SAPE   C2216551   1.905   2.834   7.099 -0.7303  0.0660 -0.8944
  150SAPE   H2R16552   1.849   2.751   7.148 -0.0985  1.4352  2.3793
  150SAPE   H2S16553   2.015   2.823   7.101 -0.7978 -0.5595 -0.1766
  150SAPE    C316554   1.746   2.737   6.720  0.1751  0.3020 -0.0404
  150SAPE    HX16555   1.723   2.757   6.613  1.1582  1.1901 -0.1073
  150SAPE    HY16556   1.676   2.802   6.777  0.3344 -1.1366  1.8837
  150SAPE   O3116557   1.749   2.597   6.769 -0.8450 -0.1953  0.0717
  150SAPE   C3116558   1.664   2.509   6.736  0.0054 -0.0591 -0.3964
  150SAPE   O3216559   1.563   2.528   6.668  0.8046  0.1024  0.2585
  150SAPE   C3216560   1.702   2.373   6.797 -1.0175 -0.0407 -0.3722
  150SAPE   H2X16561   1.715   2.385   6.906  2.1347  0.0338 -0.6570
  150SAPE   H2Y16562   1.792   2.330   6.748 -1.3085 -2.8536  1.3595
  150SAPE   C2316563   1.877   2.964   7.185 -0.6203  0.2384 -0.3175
  150SAPE   H3R16564   1.768   2.980   7.194 -0.8530 -1.7866  1.1360
  150SAPE   H3S16565   1.922   3.054   7.139 -1.9247  0.2551 -1.6112
  150SAPE   C2416566   1.931   2.960   7.334 -0.5710  0.0387  0.3088
  150SAPE   H4R16567   1.884   2.865   7.369 -0.2596  0.6342  2.4774
  150SAPE   H4S16568   1.882   3.044   7.388 -0.5935 -0.7946  1.6192
  150SAPE   C2516569   2.085   2.965   7.345  0.4686 -0.1343  0.1671
  150SAPE   H5R16570   2.132   2.891   7.279 -1.4279 -0.7249 -0.5776
  150SAPE   C2616571   2.154   3.052   7.419  0.4158  0.4052 -0.4122
  150SAPE   H6R16572   2.263   3.040   7.413  0.4640  0.9497 -0.7217
  150SAPE   C2716573   2.101   3.165   7.508  0.6326  0.9840 -0.7285
  150SAPE   H7R16574   2.136   3.151   7.612 -1.4216 -0.7670 -0.2036
  150SAPE   H7S16575   1.990   3.155   7.519  0.6724  2.7608  2.4152
  150SAPE   C2816576   2.119   3.302   7.453  0.3438 -0.1708 -0.2428
  150SAPE   H8R16577   2.124   3.313   7.344  1.7531  2.0385 -0.0215
  150SAPE   C2916578   2.150   3.412   7.519 -0.1344 -0.7480  0.3504
  150SAPE   H9R16579   2.179   3.499   7.459  0.0560 -0.5994  0.6578
  150SAPE  C21016580   2.162   3.438   7.670  0.3653 -0.9266  0.1664
  150SAPE  H10R16581   2.237   3.518   7.688  0.2268 -0.4818 -1.1544
  150SAPE  H10S16582   2.195   3.348   7.727 -1.3454 -1.4264  0.4185
  150SAPE  C21116583   2.025   3.486   7.728  0.2499  0.0270  0.6512
  150SAPE  H11R16584   1.935   3.452   7.674 -0.4095 -2.5537  3.1069
  150SAPE  C21216585   2.006   3.563   7.840 -0.0409  0.1971 -0.5253
  150SAPE  H12R16586   1.907   3.600   7.870  0.9414  1.4405  1.3570
  150SAPE  C21316587   2.117   3.613   7.926  0.2184  0.2361  0.8932
  150SAPE  H13R16588   2.220   3.598   7.887  0.0918  1.2893  0.1175
  150SAPE  H13S16589   2.128   3.563   8.025  0.9130 -1.1613  0.1321
  150SAPE  C21416590   2.110   3.759   7.928 -0.1421  0.4004  0.0166
  150SAPE  H14R16591   2.097   3.811   7.832 -1.7087  2.3616  1.2262
  150SAPE  C21516592   2.123   3.845   8.032  0.3063 -0.8886 -0.6987
  150SAPE  H15R16593   2.124   3.955   8.026  0.3653 -0.8759 -0.4715
  150SAPE  C21616594   2.147   3.791   8.171  0.2208 -0.9732 -0.8227
  150SAPE  H16R16595   2.214   3.702   8.172  0.3431 -0.8809  0.4926
  150SAPE  H16S16596   2.051   3.759   8.217  1.1342 -0.1216  1.8813
  150SAPE  C21716597   2.210   3.886   8.275 -0.0039 -0.0827  0.2198
  150SAPE  H17R16598   2.306   3.933   8.247 -0.4005 -0.6835 -2.5264
  150SAPE  H17S16599   2.237   3.833   8.369  2.5885 -0.7917 -0.8387
  150SAPE  C21816600   2.128   4.015   8.300  0.4358 -0.1746 -0.4387
  150SAPE  H18R16601   2.022   4.008   8.334  0.6929  1.2703  0.7671
  150SAPE  H18S16602   2.141   4.084   8.215 -0.7966  0.1976 -0.3415
  150SAPE  C21916603   2.202   4.093   8.405 -0.3661 -0.1545  0.1371
  150SAPE  H19R16604   2.305   4.123   8.378 -0.8110  3.2640  1.6454
  150SAPE  H19S16605   2.207   4.032   8.498 -3.1099 -1.4920 -0.4759
  150SAPE  C22016606   2.130   4.222   8.435  0.7563 -0.6285  0.6727
  150SAPE  H20R16607   2.191   4.268   8.516 -0.3523  0.3549  0.9712
  150SAPE  H20S16608   2.024   4.206   8.462 -0.1222  0.7959 -1.6081
  150SAPE  H20T16609   2.137   4.285   8.344 -0.0259  0.7326  1.5254
  150SAPE   C3316610   1.595   2.261   6.780 -0.8902  0.0230 -0.1124
  150SAPE   H3X16611   1.568   2.243   6.674 -2.5173 -1.9292  0.5619
  150SAPE   H3Y16612   1.497   2.279   6.830  0.4752  1.0404  2.3932
  150SAPE   C3416613   1.664   2.128   6.836  0.4134 -0.1725  0.1600
  150SAPE   H4X16614   1.747   2.107   6.765 -0.8366  1.2366 -1.8477
  150SAPE   H4Y16615   1.585   2.051   6.824  0.4250  0.0121 -1.3012
  150SAPE   C3516616   1.706   2.135   6.984  0.3999  0.8518  0.1480
  150SAPE   H5X16617   1.782   2.214   6.999  2.1104 -0.5176 -0.9834
  150SAPE   H5Y16618   1.765   2.044   7.007  0.3225  1.2074  1.9379
  150SAPE   C3616619   1.585   2.136   7.080 -0.0427  0.3658 -1.0722
  150SAPE   H6X16620   1.530   2.040   7.063 -1.1338  0.8071 -0.1845
  150SAPE   H6Y16621   1.519   2.223   7.062  0.8879  1.7871  1.7333
  150SAPE   C3716622   1.622   2.161   7.228  0.5475  0.2173  0.0516
  150SAPE   H7X16623   1.687   2.250   7.235  2.0092 -0.7871 -0.1758
  150SAPE   H7Y16624   1.685   2.072   7.254  0.1379 -0.6298 -1.7343
  150SAPE   C3816625   1.511   2.157   7.323  0.8992 -0.3069 -0.2413
  150SAPE   H8X16626   1.472   2.053   7.331  1.2651 -0.3278  1.7886
  150SAPE   H8Y16627   1.440   2.235   7.288  0.5068  0.0084  1.1742
  150SAPE   C3916628   1.549   2.192   7.465 -0.6397  0.0233  0.6093
  150SAPE   H9X16629   1.576   2.300   7.467  0.7309 -0.1259 -2.7159
  150SAPE   H9Y16630   1.633   2.135   7.510 -0.1661  1.0419  1.0496
  150SAPE  C31016631   1.442   2.168   7.573  0.0519 -0.1330  0.0866
  150SAPE  H10X16632   1.384   2.087   7.523  0.3529  0.8733 -2.0131
  150SAPE  H10Y16633   1.366   2.248   7.587 -1.0366 -1.4876  2.7926
  150SAPE  C31116634   1.489   2.132   7.712 -0.0307 -0.4219  0.1223
  150SAPE  H11X16635   1.545   2.036   7.710  1.0381  0.0590  2.6415
  150SAPE  H11Y16636   1.405   2.113   7.783  0.6602 -1.2558  0.7419
  150SAPE  C31216637   1.580   2.240   7.777  0.1951  0.3149  0.4223
  150SAPE  H12X16638   1.551   2.347   7.769 -2.0107 -0.2255  0.5286
  150SAPE  H12Y16639   1.678   2.235   7.725 -0.0557  0.9907 -0.1376
  150SAPE  C31316640   1.597   2.212   7.924 -0.1642 -0.6554  0.3170
  150SAPE  H13X16641   1.627   2.105   7.925 -0.3645 -0.7257 -0.6599
  150SAPE  H13Y16642   1.503   2.215   7.983 -0.5060 -1.7908 -0.1500
  150SAPE  C31416643   1.693   2.311   7.990  0.5401 -0.5662  0.2210
  150SAPE  H14X16644   1.644   2.405   7.957  0.6956 -1.2389 -2.0484
  150SAPE  H14Y16645   1.798   2.316   7.953  0.2715 -0.3913 -0.5254
  150SAPE  C31516646   1.685   2.303   8.146  0.7814  0.6424 -0.3867
  150SAPE  H15X16647   1.737   2.215   8.189  1.4167  1.1910 -0.0077
  150SAPE  H15Y16648   1.579   2.288   8.175  0.8522 -1.7033 -1.1663
  150SAPE  C31616649   1.744   2.427   8.208 -0.1515 -0.8371  0.1771
  150SAPE  H16X16650   1.693   2.516   8.165 -0.5707 -1.8726 -1.5887
  150SAPE  H16Y16651   1.852   2.438   8.184 -0.3937 -1.1426 -1.1308
  150SAPE  C31716652   1.724   2.424   8.367 -0.5358  0.4408  0.0217
  150SAPE  H17X16653   1.795   2.491   8.419  0.8752  0.8641 -2.3230
  150SAPE  H17Y16654   1.760   2.327   8.407 -1.7149 -0.5674 -1.2558
  150SAPE  C31816655   1.584   2.452   8.403 -0.3923  0.7800 -1.2811
  150SAPE  H18X16656   1.581   2.477   8.511  1.4338 -3.4771 -0.0447
  150SAPE  H18Y16657   1.526   2.357   8.403 -0.2475  0.6913 -0.8131
  150SAPE  H18Z16658   1.542   2.534   8.340  1.6226  3.1917  0.3411
  151SAPE     N16659   5.420   4.737   6.263  0.0678 -0.3140  0.0061
  151SAPE   HN116660   5.433   4.835   6.231 -2.0869  0.2416  0.6361
  151SAPE   HN216661   5.483   4.730   6.345  3.0111  0.1711 -2.0532
  151SAPE   HN316662   5.458   4.664   6.200  0.2864 -0.4212  0.2580
  151SAPE   C1216663   5.273   4.720   6.295  0.5634 -0.3194 -0.7728
  151SAPE  H12A16664   5.262   4.615   6.330  2.1466 -1.7140 -3.9764
  151SAPE  H12B16665   5.214   4.739   6.203 -0.0844 -2.7943 -0.9438
  151SAPE   C1116666   5.227   4.804   6.420 -0.3480 -0.0315 -0.6519
  151SAPE  H11A16667   5.311   4.781   6.488  0.0326 -0.7076 -1.3350
  151SAPE  H11B16668   5.125   4.771   6.450 -0.9881  1.9297 -0.4882
  151SAPE     P16669   5.198   5.053   6.501 -0.1753 -0.3960  0.3345
  151SAPE   O1316670   5.220   5.187   6.443  0.7608 -0.9466  0.1561
  151SAPE   O1416671   5.064   5.029   6.558 -0.0470 -0.0572  0.3987
  151SAPE   O1216672   5.224   4.944   6.390  0.3692 -0.3111  0.4492
  151SAPE   O1116673   5.300   5.016   6.623 -0.0667 -0.3654  0.4505
  151SAPE    C116674   5.443   5.031   6.590  0.3513 -0.8061  0.2640
  151SAPE    HA16675   5.481   4.949   6.525  2.3372  0.8790 -0.8165
  151SAPE    HB16676   5.463   5.123   6.531 -0.0757 -1.1950 -0.5021
  151SAPE    C216677   5.524   5.035   6.726 -0.3043  0.5268  0.1793
  151SAPE    HS16678   5.632   5.056   6.706 -0.5287  2.4014  0.7329
  151SAPE   O2116679   5.510   4.915   6.798  0.1362 -0.7634 -0.2087
  151SAPE   C2116680   5.617   4.844   6.821 -0.4342  0.1077  0.1793
  151SAPE   O2216681   5.734   4.865   6.777  0.0972 -0.3953  0.1330
  151SAPE   C2216682   5.564   4.732   6.899 -0.0960  0.6026  0.2482
  151SAPE   H2R16683   5.458   4.713   6.871 -0.3389  0.6437  1.1217
  151SAPE   H2S16684   5.606   4.634   6.866 -3.2617 -1.2670  1.3850
  151SAPE    C316685   5.477   5.164   6.810  0.0197  0.0985  0.2035
  151SAPE    HX16686   5.370   5.143   6.832 -0.1346 -1.2929 -1.6982
  151SAPE    HY16687   5.488   5.256   6.749  2.9023 -0.6077 -0.4817
  151SAPE   O3116688   5.557   5.167   6.932  1.1094 -0.3051  0.0823
  151SAPE   C3116689   5.668   5.231   6.931  0.1472  0.2910  0.4933
  151SAPE   O3216690   5.698   5.307   6.841 -0.1591  0.0037  0.2331
  151SAPE   C3216691   5.753   5.208   7.053 -0.2212  0.3211  1.2351
  151SAPE   H2X16692   5.699   5.237   7.146 -0.6231  1.6861  0.6055
  151SAPE   H2Y16693   5.845   5.269   7.045 -0.7153  1.0277  0.8786
  151SAPE   C2316694   5.584   4.729   7.052  0.0386  0.0196  1.0661
  151SAPE   H3R16695   5.694   4.742   7.064  0.5083 -1.1364 -1.4631
  151SAPE   H3S16696   5.572   4.622   7.078  1.5541 -0.3540  0.3242
  151SAPE   C2416697   5.497   4.833   7.122  0.6555 -0.5867  0.3411
  151SAPE   H4R16698   5.488   4.912   7.044 -0.9180 -1.2751 -0.2263
  151SAPE   H4S16699   5.561   4.867   7.206  0.6838 -0.9822  0.4827
  151SAPE   C2516700   5.358   4.786   7.168  0.9071 -0.1606 -0.7795
  151SAPE   H5R16701   5.307   4.715   7.102 -0.4542 -0.7718  0.8550
  151SAPE   C2616702   5.310   4.801   7.289 -0.4558  0.4796  0.9195
  151SAPE   H6R16703   5.218   4.745   7.309 -0.1706  0.0401  1.0050
  151SAPE   C2716704   5.378   4.869   7.410  0.0326 -0.1493  0.5534
  151SAPE   H7R16705   5.297   4.902   7.478  0.1375 -0.8212  1.0246
  151SAPE   H7S16706   5.434   4.962   7.385 -2.6397  0.9019 -2.1536
  151SAPE   C2816707   5.468   4.773   7.484  0.7843 -0.1259  0.5459
  151SAPE   H8R16708   5.565   4.768   7.432  0.6301  2.2598 -0.1209
  151SAPE   C2916709   5.460   4.718   7.602 -0.3675  0.1922  0.1505
  151SAPE   H9R16710   5.553   4.665   7.628 -0.1243  0.5807  0.0826
  151SAPE  C21016711   5.342   4.731   7.701  0.3921  0.3437  0.5546
  151SAPE  H10R16712   5.317   4.839   7.697 -2.3229 -0.0571  3.1866
  151SAPE  H10S16713   5.386   4.708   7.800  0.7922  0.0066  0.3023
  151SAPE  C21116714   5.226   4.647   7.650 -0.4461 -0.2340 -0.0312
  151SAPE  H11R16715   5.256   4.565   7.583  2.3193 -1.0915  2.0638
  151SAPE  C21216716   5.101   4.652   7.702 -0.3057 -0.5781 -0.5937
  151SAPE  H12R16717   5.026   4.588   7.653  1.4535 -1.1417 -2.7032
  151SAPE  C21316718   5.056   4.747   7.809 -0.0248 -0.3384 -0.0171
  151SAPE  H13R16719   4.991   4.825   7.765  1.8681  0.3512 -1.7279
  151SAPE  H13S16720   5.131   4.810   7.862 -0.0182 -0.7508  0.4693
  151SAPE  C21416721   4.976   4.674   7.914  0.4816 -0.1850 -0.3686
  151SAPE  H14R16722   4.868   4.688   7.898  0.4480 -0.7858 -0.7122
  151SAPE  C21516723   5.014   4.577   7.995 -0.3506 -0.3529 -0.3333
  151SAPE  H15R16724   4.942   4.543   8.071 -0.9577 -0.4046 -0.9227
  151SAPE  C21616725   5.150   4.524   8.020  0.7911  0.2642  0.9016
  151SAPE  H16R16726   5.202   4.508   7.923 -0.8953 -0.0076 -0.0028
  151SAPE  H16S16727   5.151   4.423   8.065 -1.4252  0.1350  0.7707
  151SAPE  C21716728   5.232   4.613   8.117  0.6477 -0.4622 -0.3822
  151SAPE  H17R16729   5.240   4.719   8.085 -0.8943 -0.3578 -0.5369
  151SAPE  H17S16730   5.338   4.580   8.117  0.9261  0.4078 -0.8164
  151SAPE  C21816731   5.178   4.599   8.263  0.5094  0.3239  0.3451
  151SAPE  H18R16732   5.156   4.495   8.298  1.5272 -0.2568 -0.6603
  151SAPE  H18S16733   5.079   4.649   8.259  0.3198 -0.0814 -0.2753
  151SAPE  C21916734   5.273   4.673   8.358  0.2795  0.3931 -0.0343
  151SAPE  H19R16735   5.313   4.760   8.301 -1.2797  0.8263 -0.5059
  151SAPE  H19S16736   5.355   4.600   8.376 -0.4493 -0.3172  0.4907
  151SAPE  C22016737   5.205   4.738   8.480  0.0324  0.1923 -0.9646
  151SAPE  H20R16738   5.285   4.795   8.532  0.8114 -0.3832 -1.5240
  151SAPE  H20S16739   5.128   4.815   8.455 -1.8274 -0.7455  1.4918
  151SAPE  H20T16740   5.170   4.663   8.554  1.5582  1.0216  0.6735
  151SAPE   C3316741   5.799   5.056   7.072 -0.3402 -0.3440 -0.3624
  151SAPE   H3X16742   5.856   5.015   6.986  0.2552 -0.1617 -0.0602
  151SAPE   H3Y16743   5.703   5.002   7.072 -1.0006  0.7695 -1.3738
  151SAPE   C3416744   5.857   5.021   7.208  0.3150 -0.3615 -0.3886
  151SAPE   H4X16745   5.863   4.910   7.206 -1.1574 -0.5904  2.6843
  151SAPE   H4Y16746   5.786   5.037   7.291  1.3256 -0.7747  0.5908
  151SAPE   C3516747   5.998   5.059   7.231 -0.2107 -0.1279 -0.3617
  151SAPE   H5X16748   6.019   5.166   7.210  1.2582 -0.0986  1.0716
  151SAPE   H5Y16749   6.076   4.999   7.179  2.9101  0.7025  2.9558
  151SAPE   C3616750   6.036   5.049   7.382 -0.7157 -0.8925 -0.0464
  151SAPE   H6X16751   6.082   4.949   7.396  0.5360 -0.3474 -0.0923
  151SAPE   H6Y16752   5.950   5.060   7.451 -0.1297  1.4643  0.4091
  151SAPE   C3716753   6.136   5.156   7.423 -0.4086 -0.6343  0.3375
  151SAPE   H7X16754   6.088   5.254   7.444 -1.4267 -1.3175  1.3643
  151SAPE   H7Y16755   6.205   5.171   7.338 -1.0550 -1.9819 -0.4630
  151SAPE   C3816756   6.211   5.116   7.548 -0.0306 -0.1590  0.7374
  151SAPE   H8X16757   6.282   5.201   7.551 -1.7970  1.4429 -0.7028
  151SAPE   H8Y16758   6.275   5.028   7.524 -1.4925 -0.8467 -0.8602
  151SAPE   C3916759   6.111   5.106   7.673  0.3375 -0.1152 -0.1150
  151SAPE   H9X16760   6.047   5.018   7.653 -1.6788  1.4711 -1.1002
  151SAPE   H9Y16761   6.048   5.197   7.676 -2.1500 -1.7046 -1.1180
  151SAPE  C31016762   6.190   5.080   7.802  0.4044  0.3542  0.3287
  151SAPE  H10X16763   6.278   5.147   7.792 -1.3509  2.8905  0.8749
  151SAPE  H10Y16764   6.236   4.979   7.799  1.0477  0.6686 -1.0743
  151SAPE  C31116765   6.096   5.101   7.921 -1.1950  0.0954  0.6675
  151SAPE  H11X16766   6.005   5.038   7.909  0.4607 -2.4319  0.5758
  151SAPE  H11Y16767   6.075   5.210   7.920  0.2939  0.4167 -0.3042
  151SAPE  C31216768   6.158   5.057   8.050  0.4477 -0.0398  0.0034
  151SAPE  H12X16769   6.246   5.119   8.078  2.4473 -2.7348  0.0337
  151SAPE  H12Y16770   6.206   4.958   8.036 -1.0479 -0.9533  1.0315
  151SAPE  C31316771   6.059   5.059   8.165  0.1126  0.3307  0.0673
  151SAPE  H13X16772   6.079   4.964   8.219 -0.1313  1.7542  2.8556
  151SAPE  H13Y16773   5.955   5.064   8.127 -0.0719  1.0809  0.6528
  151SAPE  C31416774   6.073   5.183   8.248 -1.1103  0.0672 -0.3003
  151SAPE  H14X16775   5.986   5.197   8.316 -2.0965 -0.2940 -1.4546
  151SAPE  H14Y16776   6.067   5.274   8.185 -2.4439 -1.0177 -1.8335
  151SAPE  C31516777   6.192   5.174   8.352  0.3097 -0.1783  0.0156
  151SAPE  H15X16778   6.278   5.220   8.298  0.1947  0.0549  0.0292
  151SAPE  H15Y16779   6.220   5.072   8.385  0.2952  0.6452  2.7822
  151SAPE  C31616780   6.173   5.248   8.489 -0.2980 -0.1441  0.2583
  151SAPE  H16X16781   6.083   5.204   8.537  0.4949 -1.5126  0.5588
  151SAPE  H16Y16782   6.161   5.357   8.477  1.3948  0.2158  1.4234
  151SAPE  C31716783   6.286   5.227   8.592  0.1453  0.8099  0.6718
  151SAPE  H17X16784   6.283   5.118   8.615  0.4820  0.4156 -1.0004
  151SAPE  H17Y16785   6.247   5.283   8.679  1.3187  2.1724  0.3567
  151SAPE  C31816786   6.432   5.266   8.554 -0.7372  0.4156  0.0290
  151SAPE  H18X16787   6.484   5.189   8.493 -1.9546 -0.2647 -0.1892
  151SAPE  H18Y16788   6.490   5.252   8.648  0.1504 -2.0976 -0.7955
  151SAPE  H18Z16789   6.439   5.374   8.531  0.2873  1.1272  3.1410
  152SAPE     N16790   5.717   4.138   6.163  0.4451  0.3198  0.6541
  152SAPE   HN116791   5.639   4.121   6.097  1.0059 -0.0101  0.0557
  152SAPE   HN216792   5.762   4.230   6.147 -1.2790  1.0480 -0.1635
  152SAPE   HN316793   5.784   4.060   6.142  0.4570  0.8720 -1.5959
  152SAPE   C1216794   5.663   4.129   6.305 -0.3971 -0.0973 -0.4969
  152SAPE  H12A16795   5.603   4.035   6.304 -0.8079  0.1633 -0.8958
  152SAPE  H12B16796   5.577   4.198   6.320 -1.9117 -2.1587  0.9462
  152SAPE   C1116797   5.776   4.130   6.409  0.5219 -0.5934 -0.3394
  152SAPE  H11A16798   5.736   4.107   6.510 -1.3498  1.5141 -0.5463
  152SAPE  H11B16799   5.816   4.233   6.411 -1.9566  0.4100  1.3606
  152SAPE     P16800   5.887   3.886   6.422  0.4151 -0.2933  0.1512
  152SAPE   O1316801   5.764   3.814   6.383 -0.2380  1.3234  0.3446
  152SAPE   O1416802   6.013   3.834   6.364 -0.0774  0.6067 -0.0514
  152SAPE   O1216803   5.878   4.032   6.377 -0.2430  0.5176 -0.3145
  152SAPE   O1116804   5.898   3.892   6.577  0.3285  0.2787 -0.1274
  152SAPE    C116805   6.010   3.945   6.637  0.0577  0.4931  0.7331
  152SAPE    HA16806   6.106   3.909   6.594 -0.5646 -1.6760  1.0484
  152SAPE    HB16807   6.010   4.055   6.622  0.5249  0.3951 -0.0259
  152SAPE    C216808   6.011   3.932   6.790 -0.2151  0.1806 -0.2180
  152SAPE    HS16809   6.108   3.972   6.827 -0.7786  1.7183 -0.3260
  152SAPE   O2116810   5.985   3.801   6.837  0.1484 -0.0379 -0.1193
  152SAPE   C2116811   6.041   3.703   6.774 -0.4481  0.0822 -0.0253
  152SAPE   O2216812   6.155   3.699   6.734  0.4191  0.2047  0.2125
  152SAPE   C2216813   5.945   3.587   6.766  0.1185  0.3428  0.1549
  152SAPE   H2R16814   5.857   3.617   6.705  0.4169 -0.8885 -0.9385
  152SAPE   H2S16815   5.998   3.510   6.705 -2.8696 -2.3738  0.6763
  152SAPE    C316816   5.894   4.025   6.848  0.5048  0.3165 -0.2964
  152SAPE    HX16817   5.798   3.970   6.846 -0.9068  2.4102  2.3097
  152SAPE    HY16818   5.893   4.118   6.787  0.0298 -1.1194 -2.5688
  152SAPE   O3116819   5.918   4.047   6.991  0.1692 -0.0571 -0.0085
  152SAPE   C3116820   6.006   4.131   7.020  1.2630  0.0086  0.3655
  152SAPE   O3216821   6.056   4.212   6.945 -0.6515  0.1913  0.6593
  152SAPE   C3216822   6.039   4.129   7.171 -0.5462 -0.1454  0.8289
  152SAPE   H2X16823   6.059   4.024   7.198  1.7237  0.0648  0.0990
  152SAPE   H2Y16824   5.948   4.157   7.229  0.3544  3.3273  0.8149
  152SAPE   C2316825   5.910   3.531   6.902 -0.0451  0.0892 -0.4828
  152SAPE   H3R16826   5.838   3.447   6.887 -1.4046  0.4374  3.0709
  152SAPE   H3S16827   5.857   3.606   6.964  0.6693  0.8347 -0.7695
  152SAPE   C2416828   6.024   3.480   6.988  0.3822  0.0074  0.8833
  152SAPE   H4R16829   6.089   3.436   6.909  0.3419  0.0619  0.8201
  152SAPE   H4S16830   5.987   3.392   7.045 -0.9876 -0.5760 -0.8182
  152SAPE   C2516831   6.106   3.575   7.078  1.1135  0.1632  0.1252
  152SAPE   H5R16832   6.162   3.648   7.018  2.0744  1.7659  2.7872
  152SAPE   C2616833   6.146   3.551   7.204 -0.6498 -0.0292 -0.5271
  152SAPE   H6R16834   6.213   3.621   7.257  1.3815 -3.3988  1.7741
  152SAPE   C2716835   6.121   3.435   7.296 -0.6374 -0.3861 -0.1615
  152SAPE   H7R16836   6.214   3.389   7.336 -0.6264 -0.5647 -0.3887
  152SAPE   H7S16837   6.087   3.352   7.230  1.6601 -1.5890  0.0478
  152SAPE   C2816838   6.028   3.467   7.412  0.6179 -0.5641 -0.0583
  152SAPE   H8R16839   5.921   3.469   7.385  0.8946  1.6963 -1.2703
  152SAPE   C2916840   6.073   3.541   7.523 -0.4682  0.7547 -0.0672
  152SAPE   H9R16841   6.005   3.570   7.604 -0.5687 -0.0853  0.1627
  152SAPE  C21016842   6.214   3.587   7.551  0.0762 -0.4302  0.0579
  152SAPE  H10R16843   6.297   3.543   7.491  0.4240  1.1784 -0.6742
  152SAPE  H10S16844   6.233   3.550   7.654 -0.6916 -3.5380 -0.8180
  152SAPE  C21116845   6.220   3.735   7.539  0.2398 -0.1782  0.3181
  152SAPE  H11R16846   6.202   3.770   7.436  1.2662  4.1369  1.3977
  152SAPE  C21216847   6.243   3.827   7.637 -0.4174 -0.0929 -0.0655
  152SAPE  H12R16848   6.270   3.924   7.591  0.0865  0.1153  0.6464
  152SAPE  C21316849   6.278   3.811   7.790  0.4095  0.5047 -0.0625
  152SAPE  H13R16850   6.180   3.823   7.841  1.4271  0.1597  2.1239
  152SAPE  H13S16851   6.355   3.885   7.822  2.1538  0.2056 -3.1758
  152SAPE  C21416852   6.325   3.682   7.849 -0.2694  0.1616  0.2626
  152SAPE  H14R16853   6.392   3.627   7.782 -1.2303 -0.0004 -0.5973
  152SAPE  C21516854   6.286   3.625   7.970 -0.7399 -0.0861  0.5267
  152SAPE  H15R16855   6.306   3.519   7.990 -0.8919 -0.3159 -0.5024
  152SAPE  C21616856   6.205   3.702   8.066  0.1108 -0.5921  0.5808
  152SAPE  H16R16857   6.103   3.657   8.064 -0.3487  0.4195  0.6720
  152SAPE  H16S16858   6.186   3.808   8.039 -0.6815 -0.3189  2.0874
  152SAPE  C21716859   6.278   3.706   8.204  0.0888  0.2990  0.0327
  152SAPE  H17R16860   6.218   3.777   8.264  1.3838  0.5265  1.0924
  152SAPE  H17S16861   6.375   3.760   8.202 -0.0782  0.6779  1.5472
  152SAPE  C21816862   6.274   3.562   8.263  0.5264 -0.4358  0.1218
  152SAPE  H18R16863   6.339   3.487   8.214  0.7920 -0.7850  0.9780
  152SAPE  H18S16864   6.172   3.527   8.238  0.3127  0.4590 -0.2897
  152SAPE  C21916865   6.305   3.562   8.410 -0.6931 -0.0306  0.7235
  152SAPE  H19R16866   6.264   3.653   8.460  0.5013  0.7269  0.3743
  152SAPE  H19S16867   6.415   3.556   8.429 -0.5867 -1.7248 -0.2689
  152SAPE  C22016868   6.240   3.441   8.490 -0.3091  0.2334  0.0045
  152SAPE  H20R16869   6.268   3.340   8.453 -1.2746 -0.4495  1.0577
  152SAPE  H20S16870   6.130   3.454   8.483 -0.0600  2.1874 -0.9026
  152SAPE  H20T16871   6.262   3.460   8.598 -0.8720  0.4650  0.0828
  152SAPE   C3316872   6.160   4.217   7.213  0.2980 -0.1194  0.4769
  152SAPE   H3X16873   6.142   4.321   7.178  0.3895  0.2933  1.6142
  152SAPE   H3Y16874   6.255   4.187   7.162 -1.2729 -1.1134 -2.0815
  152SAPE   C3416875   6.176   4.214   7.363 -0.2476  0.3801  0.4418
  152SAPE   H4X16876   6.209   4.112   7.393 -0.1126  0.5008  0.7051
  152SAPE   H4Y16877   6.076   4.231   7.408  0.2098 -0.9491  2.0706
  152SAPE   C3516878   6.274   4.318   7.421  0.2916  0.8186 -0.0395
  152SAPE   H5X16879   6.223   4.416   7.422 -1.1295  0.1614 -1.8137
  152SAPE   H5Y16880   6.367   4.326   7.362  1.7012  1.7151  2.1809
  152SAPE   C3616881   6.307   4.283   7.568 -0.1643 -0.4032 -0.1782
  152SAPE   H6X16882   6.391   4.343   7.610 -2.2804  2.3304  0.4716
  152SAPE   H6Y16883   6.339   4.177   7.568 -0.8553 -0.6293  0.6912
  152SAPE   C3716884   6.200   4.313   7.662  0.6860 -0.3383  0.3343
  152SAPE   H7X16885   6.104   4.264   7.631 -0.9895  2.4079  0.8437
  152SAPE   H7Y16886   6.184   4.423   7.667  5.1289  0.5439 -0.8543
  152SAPE   C3816887   6.231   4.262   7.805 -0.3892 -0.1536  0.0666
  152SAPE   H8X16888   6.335   4.288   7.834  0.1541 -1.3363 -0.7349
  152SAPE   H8Y16889   6.219   4.151   7.801  2.6998 -0.5778 -2.3336
  152SAPE   C3916890   6.123   4.311   7.906  0.1484 -0.6407  0.3900
  152SAPE   H9X16891   6.026   4.270   7.872  1.0173 -1.8719 -0.6904
  152SAPE   H9Y16892   6.125   4.419   7.879  0.2737 -1.0741 -1.4587
  152SAPE  C31016893   6.157   4.288   8.046  0.5089  0.2405 -0.9123
  152SAPE  H10X16894   6.266   4.307   8.052  0.1527  2.6854 -1.1431
  152SAPE  H10Y16895   6.124   4.184   8.070  1.7118  0.3757  1.6906
  152SAPE  C31116896   6.085   4.376   8.152  0.0535  0.1959  0.0114
  152SAPE  H11X16897   5.977   4.380   8.126 -0.3187 -3.0346  0.6263
  152SAPE  H11Y16898   6.129   4.478   8.149 -0.0955  0.2395 -0.9844
  152SAPE  C31216899   6.105   4.320   8.293  0.6279 -0.3214  0.1104
  152SAPE  H12X16900   6.212   4.337   8.314  0.3275  2.0486 -0.0269
  152SAPE  H12Y16901   6.095   4.209   8.293 -1.6702 -0.1945 -1.7419
  152SAPE  C31316902   6.025   4.390   8.402 -0.6003  0.4932 -0.4951
  152SAPE  H13X16903   5.916   4.367   8.403 -0.4982 -0.0540 -1.0966
  152SAPE  H13Y16904   6.043   4.499   8.407 -3.2146  0.9827  4.5243
  152SAPE  C31416905   6.065   4.333   8.545  0.3919  0.3649  0.9298
  152SAPE  H14X16906   6.169   4.371   8.550  0.1689  1.6992 -2.2559
  152SAPE  H14Y16907   6.061   4.222   8.536 -0.6228  0.4906 -0.5432
  152SAPE  C31516908   5.959   4.374   8.643  0.5386  0.0663 -0.4203
  152SAPE  H15X16909   5.860   4.332   8.619  0.4011 -0.6057  1.1749
  152SAPE  H15Y16910   5.946   4.483   8.627  0.6889 -0.2474 -3.2106
  152SAPE  C31616911   5.989   4.328   8.786  0.5665 -0.0331  0.1632
  152SAPE  H16X16912   5.969   4.219   8.793 -0.0425 -0.0024 -0.8342
  152SAPE  H16Y16913   5.906   4.373   8.844 -0.0890  1.0020 -1.5099
  152SAPE  C31716914   6.123   4.362   8.848 -0.5369 -0.3433  0.2904
  152SAPE  H17X16915   6.137   4.472   8.840 -1.6738 -0.3041 -1.7656
  152SAPE  H17Y16916   6.205   4.311   8.794 -0.8323 -0.3101 -0.1879
  152SAPE  C31816917   6.122   4.309   8.998 -0.4906  0.2487  0.6461
  152SAPE  H18X16918   6.148   4.201   9.000  0.7933  0.4552 -1.3630
  152SAPE  H18Y16919   6.025   4.328   9.048 -1.6334  1.2963 -1.7856
  152SAPE  H18Z16920   6.210   4.355   9.050 -0.0593 -1.3447  1.3808
  153SAPE     N16921   4.947   2.806   6.554  0.2525  0.4542  0.5380
  153SAPE   HN116922   4.947   2.779   6.454  3.0741 -0.1641  0.6315
  153SAPE   HN216923   5.037   2.852   6.579  1.4939 -1.3243 -0.4400
  153SAPE   HN316924   4.933   2.721   6.612  1.2059  0.3303  0.5948
  153SAPE   C1216925   4.838   2.909   6.581  0.3447  0.1879  0.6270
  153SAPE  H12A16926   4.817   2.921   6.689 -1.5452  0.1106  0.3175
  153SAPE  H12B16927   4.740   2.861   6.557  1.0614 -1.4224  0.8487
  153SAPE   C1116928   4.878   3.043   6.515 -0.7351 -1.0321 -0.4824
  153SAPE  H11A16929   4.963   3.091   6.568 -1.0071  1.3041 -2.0271
  153SAPE  H11B16930   4.786   3.105   6.505  1.8166  2.7786 -3.1403
  153SAPE     P16931   4.926   3.150   6.291 -0.1588  0.2822  0.0818
  153SAPE   O1316932   5.064   3.168   6.254  0.0464 -0.1012 -0.4559
  153SAPE   O1416933   4.842   3.126   6.170  0.1859 -0.3481 -0.4124
  153SAPE   O1216934   4.929   3.027   6.385  0.5742  0.2134 -0.2673
  153SAPE   O1116935   4.884   3.283   6.366 -0.1455  0.2063 -0.5812
  153SAPE    C116936   4.950   3.404   6.366 -0.3771 -0.2475 -0.4107
  153SAPE    HA16937   5.001   3.433   6.272  1.5671  1.9230  1.2000
  153SAPE    HB16938   4.880   3.486   6.391  0.4363  0.5117 -0.5637
  153SAPE    C216939   5.064   3.398   6.477 -0.2702  0.1573 -1.2767
  153SAPE    HS16940   5.131   3.316   6.445 -0.3439 -0.4995  0.1810
  153SAPE   O2116941   5.007   3.374   6.611  0.1774  0.6116  0.2198
  153SAPE   C2116942   5.096   3.312   6.686  0.5478 -0.4157 -0.0514
  153SAPE   O2216943   5.205   3.267   6.653  0.7695 -0.4314  0.0151
  153SAPE   C2216944   5.033   3.316   6.829  0.0254  0.3271  0.8504
  153SAPE   H2R16945   5.118   3.317   6.901  2.4055  0.8771 -1.8217
  153SAPE   H2S16946   4.972   3.409   6.832 -0.0670  0.2911  0.1689
  153SAPE    C316947   5.148   3.531   6.481  0.1739 -0.0531 -0.1669
  153SAPE    HX16948   5.186   3.546   6.377  2.0919  0.2306  0.5396
  153SAPE    HY16949   5.241   3.518   6.539 -0.4954  0.0157  0.9527
  153SAPE   O3116950   5.066   3.637   6.531 -1.1222 -0.4512 -0.1531
  153SAPE   C3116951   5.083   3.684   6.657  0.0891 -0.2335  0.5980
  153SAPE   O3216952   5.165   3.640   6.737  0.3320  0.0542  0.4744
  153SAPE   C3216953   4.989   3.794   6.677  0.6606 -0.6973  0.1026
  153SAPE   H2X16954   4.889   3.774   6.633 -0.8158  1.3154  2.3126
  153SAPE   H2Y16955   5.033   3.882   6.624  2.6015 -1.7231 -0.0759
  153SAPE   C2316956   4.957   3.189   6.860  0.2787  0.5721  0.3539
  153SAPE   H3R16957   5.017   3.104   6.820  0.1284  0.7853 -0.3334
  153SAPE   H3S16958   4.860   3.184   6.806  1.2832 -2.3964 -1.3977
  153SAPE   C2416959   4.935   3.157   7.008 -0.3099 -1.0924  0.5785
  153SAPE   H4R16960   4.869   3.237   7.047  0.6769 -0.3080  0.6750
  153SAPE   H4S16961   5.029   3.148   7.066  0.1346  0.4336  0.1386
  153SAPE   C2516962   4.873   3.024   7.014 -0.1153  0.2650 -0.1066
  153SAPE   H5R16963   4.896   2.956   6.931  0.7306  0.0226  0.3164
  153SAPE   C2616964   4.774   2.995   7.101 -0.2881 -0.3002 -0.0763
  153SAPE   H6R16965   4.710   2.910   7.076  0.1965 -0.0181 -2.5488
  153SAPE   C2716966   4.716   3.097   7.201  0.5623 -0.3569 -0.2559
  153SAPE   H7R16967   4.613   3.066   7.230  0.2235  1.1567  0.2297
  153SAPE   H7S16968   4.705   3.194   7.148  1.3749 -1.1164 -1.9078
  153SAPE   C2816969   4.803   3.104   7.327  0.3021  0.5202  0.2135
  153SAPE   H8R16970   4.910   3.078   7.321  0.4581  0.7584  1.6726
  153SAPE   C2916971   4.758   3.129   7.448  0.2495  0.0159  0.6167
  153SAPE   H9R16972   4.836   3.157   7.521  1.5043  2.1648 -1.4329
  153SAPE  C21016973   4.615   3.155   7.481 -0.4632  0.5863  0.7432
  153SAPE  H10R16974   4.553   3.067   7.456 -0.5143  0.8561 -0.1231
  153SAPE  H10S16975   4.583   3.234   7.409  3.5022  0.5454 -1.3027
  153SAPE  C21116976   4.594   3.186   7.625 -0.0398  0.5488  0.2649
  153SAPE  H11R16977   4.687   3.212   7.679  0.1440 -2.1227  1.4065
  153SAPE  C21216978   4.478   3.183   7.691 -0.7822  0.2610  0.3991
  153SAPE  H12R16979   4.486   3.225   7.793 -2.0901  0.5433  0.4002
  153SAPE  C21316980   4.340   3.161   7.631 -0.7571  0.6339 -0.3135
  153SAPE  H13R16981   4.302   3.070   7.682  0.7617 -0.4678 -1.0647
  153SAPE  H13S16982   4.351   3.129   7.525 -1.4771 -0.8479  0.0255
  153SAPE  C21416983   4.255   3.280   7.630 -0.4544 -0.2654  0.6963
  153SAPE  H14R16984   4.249   3.319   7.527  1.3846 -1.2921  0.1388
  153SAPE  C21516985   4.188   3.332   7.735 -0.5230 -0.0373 -0.4435
  153SAPE  H15R16986   4.122   3.415   7.707 -0.3360  0.5721  0.8377
  153SAPE  C21616987   4.193   3.284   7.874 -0.1472 -0.1602 -0.0681
  153SAPE  H16R16988   4.217   3.374   7.935 -0.6020 -1.1370  1.6087
  153SAPE  H16S16989   4.269   3.207   7.897  1.8647  1.7315 -0.0046
  153SAPE  C21716990   4.052   3.246   7.922  0.1464  0.5521  0.0165
  153SAPE  H17R16991   3.971   3.317   7.896 -1.5869 -1.2388  0.2713
  153SAPE  H17S16992   4.053   3.236   8.033 -1.8313 -2.5624 -0.1085
  153SAPE  C21816993   4.002   3.105   7.867 -0.4989 -0.5024  0.5792
  153SAPE  H18R16994   4.090   3.041   7.843 -0.2613 -0.3795  1.1121
  153SAPE  H18S16995   3.959   3.125   7.766 -2.6018 -1.8301  1.1537
  153SAPE  C21916996   3.909   3.023   7.949  0.1056  0.1150 -0.5934
  153SAPE  H19R16997   3.832   3.091   7.990 -0.2655 -0.6318 -0.0312
  153SAPE  H19S16998   3.961   2.991   8.042 -0.5821 -0.8601 -0.5421
  153SAPE  C22016999   3.848   2.894   7.881  0.0808 -0.6429 -0.3802
  153SAPE  H20R17000   3.928   2.831   7.838 -0.9522 -2.7908  0.7207
  153SAPE  H20S17001   3.788   2.923   7.792  1.7473  1.4176 -0.9237
  153SAPE  H20T17002   3.798   2.837   7.962  1.4025 -1.7045 -0.2832
  153SAPE   C3317003   4.981   3.840   6.822 -0.2981 -0.0212 -0.3476
  153SAPE   H3X17004   4.950   3.758   6.891 -0.5822  0.2695 -0.1281
  153SAPE   H3Y17005   4.905   3.920   6.834  3.0692  3.8127 -2.4212
  153SAPE   C3417006   5.109   3.900   6.875 -0.7593 -0.2308  0.0327
  153SAPE   H4X17007   5.134   3.972   6.795 -1.9331 -0.4823 -0.5853
  153SAPE   H4Y17008   5.185   3.820   6.892 -1.4754 -1.3272 -1.6494
  153SAPE   C3517009   5.084   3.980   7.006 -0.1205 -0.0447  0.0032
  153SAPE   H5X17010   4.996   4.047   6.993  2.2428  3.5381  1.1933
  153SAPE   H5Y17011   5.162   4.059   7.008  0.1691 -0.2972 -0.9694
  153SAPE   C3617012   5.090   3.891   7.135  0.0665  0.8350 -0.4186
  153SAPE   H6X17013   5.034   3.797   7.121  2.1489 -0.4507 -0.6181
  153SAPE   H6Y17014   5.052   3.946   7.224 -2.1472 -0.5900 -0.4333
  153SAPE   C3717015   5.233   3.860   7.158 -0.7154 -0.4962 -0.8619
  153SAPE   H7X17016   5.295   3.952   7.149  0.3058 -1.1403 -0.4946
  153SAPE   H7Y17017   5.275   3.791   7.082 -1.2870  0.6446 -2.2777
  153SAPE   C3817018   5.263   3.790   7.287 -0.3417  0.0306 -0.1374
  153SAPE   H8X17019   5.370   3.763   7.281 -0.2845  0.2645 -0.1832
  153SAPE   H8Y17020   5.207   3.695   7.297 -0.8687  0.4111  0.5645
  153SAPE   C3917021   5.233   3.872   7.410 -0.2922 -0.1591 -0.1836
  153SAPE   H9X17022   5.124   3.867   7.427 -0.6489  0.5884 -2.0430
  153SAPE   H9Y17023   5.270   3.977   7.404  0.6757 -0.4488  0.4016
  153SAPE  C31017024   5.293   3.790   7.531 -0.6702  0.2160  0.2609
  153SAPE  H10X17025   5.400   3.766   7.508 -0.9873 -1.0028 -0.0247
  153SAPE  H10Y17026   5.233   3.697   7.539 -0.0426 -0.1435  0.9862
  153SAPE  C31117027   5.295   3.861   7.663 -0.4785  0.9889 -0.4170
  153SAPE  H11X17028   5.190   3.894   7.676 -0.8039 -0.6180  1.4190
  153SAPE  H11Y17029   5.360   3.951   7.664 -0.8639  1.2727 -0.5495
  153SAPE  C31217030   5.339   3.767   7.772  0.5834  0.1175  0.1430
  153SAPE  H12X17031   5.437   3.728   7.739 -0.3544 -1.4340 -0.9525
  153SAPE  H12Y17032   5.275   3.677   7.778 -0.5817  0.8534 -0.7996
  153SAPE  C31317033   5.336   3.831   7.910 -0.2784  0.0330  0.8754
  153SAPE  H13X17034   5.243   3.892   7.913 -0.0658  0.3904  0.4219
  153SAPE  H13Y17035   5.413   3.910   7.922 -0.5194  0.4724 -0.2475
  153SAPE  C31417036   5.331   3.742   8.033  0.2745 -0.2622  0.0573
  153SAPE  H14X17037   5.410   3.664   8.032 -0.2382 -0.8195  1.2004
  153SAPE  H14Y17038   5.231   3.694   8.044  0.2517 -0.0039  1.0443
  153SAPE  C31517039   5.364   3.831   8.154  0.5594  1.0527  0.1112
  153SAPE  H15X17040   5.268   3.882   8.176 -1.4846 -2.7248  0.9638
  153SAPE  H15Y17041   5.448   3.895   8.121  0.6354  1.8064  1.6397
  153SAPE  C31617042   5.424   3.747   8.267 -0.0736  0.4021  0.5023
  153SAPE  H16X17043   5.527   3.717   8.235 -0.1465  1.7185 -1.0220
  153SAPE  H16Y17044   5.366   3.657   8.298 -0.1804 -0.2007 -1.3515
  153SAPE  C31717045   5.444   3.837   8.388  0.0914 -0.3066 -0.5387
  153SAPE  H17X17046   5.344   3.867   8.425 -0.5571 -0.0432 -2.3967
  153SAPE  H17Y17047   5.500   3.929   8.365 -0.5600  0.5700  1.1979
  153SAPE  C31817048   5.511   3.779   8.516 -0.1393  0.1226 -0.2151
  153SAPE  H18X17049   5.621   3.775   8.500  0.0607  1.9421  0.4122
  153SAPE  H18Y17050   5.471   3.679   8.542  0.2693 -0.2772 -1.0928
  153SAPE  H18Z17051   5.499   3.853   8.598  0.4265  1.8503 -1.6205
  154SAPE     N17052   0.706   2.706   6.069 -0.2346  0.0613  0.3279
  154SAPE   HN117053   0.670   2.610   6.052  1.4897 -0.4467 -0.7333
  154SAPE   HN217054   0.658   2.771   6.003 -0.7208 -0.5588  0.0576
  154SAPE   HN317055   0.804   2.710   6.035 -0.8375  2.9535 -1.4326
  154SAPE   C1217056   0.697   2.761   6.211  0.1328  0.6848 -0.2614
  154SAPE  H12A17057   0.790   2.725   6.261  0.0381 -0.3198 -0.7898
  154SAPE  H12B17058   0.611   2.708   6.258  1.5890  0.8765  2.9120
  154SAPE   C1117059   0.666   2.906   6.220  0.3744 -0.7953  0.5822
  154SAPE  H11A17060   0.762   2.959   6.240  0.7100 -0.4039 -1.7268
  154SAPE  H11B17061   0.621   2.929   6.319  0.0480  0.3348  0.1865
  154SAPE     P17062   0.584   3.109   6.089 -0.2751 -0.0381  0.0102
  154SAPE   O1317063   0.725   3.158   6.101  0.2703  0.2504 -0.5537
  154SAPE   O1417064   0.505   3.149   5.968 -0.0034 -0.0422  0.8139
  154SAPE   O1217065   0.586   2.956   6.111  0.3656  0.0248  0.2389
  154SAPE   O1117066   0.512   3.146   6.216  0.7523  0.3352  0.1599
  154SAPE    C117067   0.503   3.294   6.245 -0.4984  0.2260  0.6933
  154SAPE    HA17068   0.593   3.350   6.212  2.0102 -2.4394  2.4914
  154SAPE    HB17069   0.422   3.334   6.180  0.3434 -3.0798 -2.7305
  154SAPE    C217070   0.466   3.327   6.394 -0.8410  0.3229 -0.2148
  154SAPE    HS17071   0.463   3.437   6.403 -0.5749  0.5071 -2.0341
  154SAPE   O2117072   0.553   3.273   6.491 -0.7019 -0.1990 -0.2772
  154SAPE   C2117073   0.683   3.300   6.494  0.5817  0.6124  0.4011
  154SAPE   O2217074   0.739   3.397   6.442  0.2873  0.1411 -0.7628
  154SAPE   C2217075   0.749   3.187   6.576 -0.0272  0.0600  0.3903
  154SAPE   H2R17076   0.674   3.109   6.599  0.3594  0.1698  2.1640
  154SAPE   H2S17077   0.816   3.133   6.506 -1.3980  0.7709 -1.5622
  154SAPE    C317078   0.333   3.269   6.433  1.6638  0.4710  0.0295
  154SAPE    HX17079   0.328   3.164   6.396  1.5810  0.7162 -0.6540
  154SAPE    HY17080   0.257   3.321   6.372  0.3028 -1.0571  0.3510
  154SAPE   O3117081   0.294   3.287   6.579 -0.4205 -0.5951  0.0358
  154SAPE   C3117082   0.293   3.175   6.648  0.0053 -0.7887  0.4379
  154SAPE   O3217083   0.315   3.066   6.608  0.2750 -0.0075 -0.0792
  154SAPE   C3217084   0.255   3.212   6.797  0.0657  0.4159  0.3976
  154SAPE   H2X17085   0.309   3.131   6.851  0.5990  1.1853  1.0378
  154SAPE   H2Y17086   0.146   3.194   6.807  0.0062  1.1190  1.0945
  154SAPE   C2317087   0.814   3.256   6.700 -0.1818 -0.3417  0.3175
  154SAPE   H3R17088   0.878   3.340   6.665  0.7454 -2.0354 -2.3839
  154SAPE   H3S17089   0.881   3.196   6.764 -0.6443  0.0134  1.1503
  154SAPE   C2417090   0.709   3.320   6.800  0.1734  0.3677 -0.2114
  154SAPE   H4R17091   0.649   3.235   6.838  0.4592  0.3099  0.1072
  154SAPE   H4S17092   0.633   3.385   6.752 -2.7863 -2.8706 -0.3031
  154SAPE   C2517093   0.779   3.395   6.913  0.4621 -0.2361 -0.1863
  154SAPE   H5R17094   0.817   3.495   6.888 -0.2744 -0.1513 -1.0232
  154SAPE   C2617095   0.802   3.340   7.038 -0.3397  0.2443 -0.2366
  154SAPE   H6R17096   0.849   3.403   7.115  1.8099 -0.5381 -0.8263
  154SAPE   C2717097   0.762   3.203   7.083 -0.5872 -0.2029  0.1378
  154SAPE   H7R17098   0.754   3.132   6.998  1.1024 -1.0597  0.6589
  154SAPE   H7S17099   0.665   3.207   7.139  0.5187 -1.7837  2.3148
  154SAPE   C2817100   0.867   3.154   7.175 -0.0790  0.8833  0.1101
  154SAPE   H8R17101   0.958   3.107   7.134 -0.1249 -0.6673  1.6630
  154SAPE   C2917102   0.867   3.146   7.311 -0.6675 -0.7184 -0.4631
  154SAPE   H9R17103   0.959   3.117   7.364  0.1947  1.1870 -0.8206
  154SAPE  C21017104   0.747   3.184   7.397  0.0858 -0.0956 -0.0837
  154SAPE  H10R17105   0.690   3.089   7.404 -1.6862  0.9061 -0.4821
  154SAPE  H10S17106   0.686   3.253   7.335  2.0410  1.4070 -0.4310
  154SAPE  C21117107   0.791   3.244   7.530 -0.0088  0.7528 -0.1654
  154SAPE  H11R17108   0.878   3.309   7.543 -0.0021  0.3724  2.1822
  154SAPE  C21217109   0.698   3.244   7.628 -0.8294 -0.1834  0.2694
  154SAPE  H12R17110   0.731   3.293   7.721 -1.2258  0.1704  0.2256
  154SAPE  C21317111   0.553   3.202   7.636  0.9924  0.1022 -0.2378
  154SAPE  H13R17112   0.511   3.157   7.543 -0.7193 -0.1551  0.6140
  154SAPE  H13S17113   0.490   3.292   7.650 -1.5542 -1.6658  0.4075
  154SAPE  C21417114   0.532   3.101   7.749  0.4360  0.0430  0.8149
  154SAPE  H14R17115   0.592   3.010   7.736 -2.3955 -1.9904  1.1048
  154SAPE  C21517116   0.435   3.106   7.841 -0.2970 -0.7131 -0.0635
  154SAPE  H15R17117   0.426   3.022   7.912 -0.8014 -0.3133  0.3484
  154SAPE  C21617118   0.349   3.229   7.848 -0.0384 -0.0827  0.4699
  154SAPE  H16R17119   0.273   3.229   7.767 -0.4226 -0.5436  0.8202
  154SAPE  H16S17120   0.403   3.324   7.831 -0.8660  0.7978  2.4930
  154SAPE  C21717121   0.263   3.228   7.979 -0.7283  0.0608 -0.0201
  154SAPE  H17R17122   0.200   3.137   7.988  2.4619 -2.2267  0.8642
  154SAPE  H17S17123   0.191   3.312   7.990 -1.4273 -0.7139  1.8744
  154SAPE  C21817124   0.354   3.247   8.101  0.2794  0.4774  0.1224
  154SAPE  H18R17125   0.386   3.353   8.092  1.0212  0.1894 -0.7628
  154SAPE  H18S17126   0.448   3.189   8.103 -0.5388 -0.8857  0.7091
  154SAPE  C21917127   0.295   3.202   8.231 -0.1907  0.7302  0.1157
  154SAPE  H19R17128   0.374   3.221   8.306 -1.0785 -1.2876  1.6745
  154SAPE  H19S17129   0.276   3.093   8.243 -1.5043  1.1132  2.2145
  154SAPE  C22017130   0.162   3.269   8.268  0.0876 -0.2179 -0.3533
  154SAPE  H20R17131   0.121   3.225   8.361 -0.4383  0.1653 -0.3973
  154SAPE  H20S17132   0.095   3.268   8.179  0.2719 -3.5349 -0.6089
  154SAPE  H20T17133   0.171   3.375   8.298  0.4377 -1.2901  3.8703
  154SAPE   C3317134   0.303   3.356   6.832 -0.5154  0.3766  0.3868
  154SAPE   H3X17135   0.237   3.425   6.776  0.2936  1.1479  0.3466
  154SAPE   H3Y17136   0.400   3.380   6.783 -0.4382 -0.0802  0.3093
  154SAPE   C3417137   0.293   3.380   6.979 -0.1730  0.1416 -0.3372
  154SAPE   H4X17138   0.205   3.325   7.017 -0.4171  0.7398 -0.0319
  154SAPE   H4Y17139   0.282   3.486   7.011  1.2850  0.5615 -1.0985
  154SAPE   C3517140   0.411   3.308   7.058  0.6157  0.2293  0.4433
  154SAPE   H5X17141   0.506   3.364   7.044  1.9652 -1.5428  2.0477
  154SAPE   H5Y17142   0.420   3.205   7.020  2.3725  0.9221 -1.1663
  154SAPE   C3617143   0.377   3.295   7.211 -0.0534  0.1188  0.2375
  154SAPE   H6X17144   0.363   3.387   7.272 -1.5977 -0.4272  0.7503
  154SAPE   H6Y17145   0.476   3.260   7.247  0.7595  0.4128 -1.6169
  154SAPE   C3717146   0.272   3.187   7.244  0.1434  0.0540  0.0337
  154SAPE   H7X17147   0.301   3.105   7.175  1.1362  0.5448 -0.1515
  154SAPE   H7Y17148   0.164   3.210   7.235 -0.4489 -0.4666  4.0818
  154SAPE   C3817149   0.294   3.129   7.388  0.5460 -0.2104 -0.2827
  154SAPE   H8X17150   0.316   3.213   7.458 -1.1056 -1.6853  2.1660
  154SAPE   H8Y17151   0.381   3.061   7.397  0.1132 -0.5383  2.3319
  154SAPE   C3917152   0.184   3.042   7.451  0.1060 -0.4603  0.2293
  154SAPE   H9X17153   0.227   2.968   7.522  0.5961  0.6239  1.0898
  154SAPE   H9Y17154   0.123   2.988   7.375  0.7009  1.7585 -1.9323
  154SAPE  C31017155   0.093   3.125   7.535 -0.7681 -0.1932 -0.7143
  154SAPE  H10X17156   0.048   3.200   7.468  0.8853  0.9571 -0.6091
  154SAPE  H10Y17157   0.150   3.189   7.605 -0.6434 -1.1128  0.0531
  154SAPE  C31117158  -0.006   3.042   7.613 -0.5820 -0.1760 -0.0173
  154SAPE  H11X17159  -0.048   2.960   7.552  1.8198 -1.1348 -0.4847
  154SAPE  H11Y17160  -0.086   3.109   7.651 -1.2539 -1.4050  0.8129
  154SAPE  C31217161   0.051   2.991   7.746 -0.9435  0.1823  0.2775
  154SAPE  H12X17162   0.114   3.076   7.781 -0.4149 -0.2417  0.3736
  154SAPE  H12Y17163   0.109   2.898   7.726 -1.4245 -0.9879  3.6434
  154SAPE  C31317164  -0.054   2.952   7.857 -0.3842  0.6220 -0.2465
  154SAPE  H13X17165  -0.116   2.881   7.798 -0.2171  0.4563 -0.2257
  154SAPE  H13Y17166  -0.115   3.043   7.877 -1.8675 -0.4322  0.2169
  154SAPE  C31417167   0.013   2.887   7.983  0.1796  0.2428 -0.0576
  154SAPE  H14X17168   0.083   2.965   8.018  1.0379 -0.9682  1.0395
  154SAPE  H14Y17169   0.066   2.799   7.939  1.4040 -0.4614  2.6090
  154SAPE  C31517170  -0.087   2.850   8.093  0.3589 -0.9219 -1.0367
  154SAPE  H15X17171  -0.170   2.788   8.053 -1.4489  0.4345  0.4530
  154SAPE  H15Y17172  -0.130   2.940   8.141  1.2498 -0.8846 -0.2859
  154SAPE  C31617173  -0.027   2.772   8.218  0.2889 -0.1891  0.2932
  154SAPE  H16X17174   0.059   2.834   8.252  0.3183  0.2728 -0.5823
  154SAPE  H16Y17175   0.025   2.681   8.181  1.9895 -1.0117  4.2518
  154SAPE  C31717176  -0.125   2.740   8.330 -0.4113 -0.0480  0.9906
  154SAPE  H17X17177  -0.204   2.686   8.274  1.2592  0.5061 -2.1040
  154SAPE  H17Y17178  -0.163   2.843   8.349 -0.3159 -0.0275  1.0760
  154SAPE  C31817179  -0.068   2.673   8.450 -0.8702 -0.3273  0.3103
  154SAPE  H18X17180  -0.145   2.661   8.529 -0.4170  0.3239  0.8649
  154SAPE  H18Y17181   0.021   2.727   8.490 -0.6360 -0.9749  0.6804
  154SAPE  H18Z17182  -0.030   2.572   8.422 -1.2759 -0.6167  0.7909
  155SAPE     N17183   2.369   4.696   6.092 -0.1683  0.2097  0.1465
  155SAPE   HN117184   2.320   4.607   6.114 -0.6284  0.5306  0.4397
  155SAPE   HN217185   2.362   4.740   5.998  0.5615  2.1990  0.9695
  155SAPE   HN317186   2.471   4.685   6.112 -0.0408 -3.5135 -1.7016
  155SAPE   C1217187   2.319   4.808   6.178 -0.8768 -0.1548  0.3862
  155SAPE  H12A17188   2.219   4.847   6.149 -0.1700 -0.0700 -2.2183
  155SAPE  H12B17189   2.378   4.901   6.164  0.0876 -0.8859 -0.6694
  155SAPE   C1117190   2.328   4.752   6.324 -0.6592 -0.4373  0.5274
  155SAPE  H11A17191   2.269   4.660   6.342 -2.8953  1.1665  2.1025
  155SAPE  H11B17192   2.282   4.833   6.386  1.2617  0.7611  0.4554
  155SAPE     P17193   2.504   4.698   6.503  0.0765 -0.2922 -0.0321
  155SAPE   O1317194   2.546   4.556   6.492  0.0699  0.3728  0.2703
  155SAPE   O1417195   2.602   4.792   6.559  0.0563  1.0661  0.2102
  155SAPE   O1217196   2.462   4.750   6.365  0.4339 -0.1557  0.3146
  155SAPE   O1117197   2.373   4.688   6.594 -0.5729 -0.2777 -0.8153
  155SAPE    C117198   2.331   4.810   6.660  0.3685  0.3832  0.3250
  155SAPE    HA17199   2.362   4.904   6.609  0.5290  0.4245  0.4949
  155SAPE    HB17200   2.221   4.817   6.665  0.2688 -0.5284 -0.3778
  155SAPE    C217201   2.386   4.813   6.810  0.1381 -0.1327 -0.6362
  155SAPE    HS17202   2.494   4.835   6.806  0.3861 -0.6620  1.6752
  155SAPE   O2117203   2.360   4.683   6.869  0.2063 -0.2035 -0.0592
  155SAPE   C2117204   2.446   4.632   6.956  0.2437 -0.1279 -0.6661
  155SAPE   O2217205   2.549   4.681   6.999  0.2579 -0.0183  0.9922
  155SAPE   C2217206   2.385   4.500   6.997  0.8727  0.2882  0.5067
  155SAPE   H2R17207   2.279   4.516   7.027  0.8655  0.4785  0.3842
  155SAPE   H2S17208   2.382   4.441   6.903  2.9684  2.0229 -0.7306
  155SAPE    C317209   2.322   4.925   6.892  0.6044  0.1848  0.3710
  155SAPE    HX17210   2.216   4.896   6.908  0.2892  0.6868 -0.6986
  155SAPE    HY17211   2.335   5.022   6.839 -2.3474  1.0766  1.0931
  155SAPE   O3117212   2.379   4.933   7.021  0.0124  0.0636  0.2629
  155SAPE   C3117213   2.498   5.006   7.037  0.2856 -0.0605  0.8979
  155SAPE   O3217214   2.542   5.078   6.948  0.5060 -0.0326 -0.1885
  155SAPE   C3217215   2.551   4.976   7.178  0.7089 -0.1828  0.5568
  155SAPE   H2X17216   2.538   4.868   7.196  0.2524 -0.5873 -1.8649
  155SAPE   H2Y17217   2.477   5.031   7.240 -0.3408  1.4823 -1.9864
  155SAPE   C2317218   2.478   4.407   7.086 -0.2210 -0.4012  0.2176
  155SAPE   H3R17219   2.472   4.447   7.190 -1.5637 -2.9299  1.1971
  155SAPE   H3S17220   2.583   4.418   7.050  0.6559 -1.4991  2.2545
  155SAPE   C2417221   2.432   4.263   7.099 -0.3095  0.2619 -0.4666
  155SAPE   H4R17222   2.491   4.222   7.183  0.2209 -2.6311 -2.1138
  155SAPE   H4S17223   2.468   4.212   7.007  0.6830  0.3979 -0.1621
  155SAPE   C2517224   2.289   4.221   7.127  0.2121  0.3658  0.4314
  155SAPE   H5R17225   2.219   4.239   7.045  0.0396 -1.0299  0.2467
  155SAPE   C2617226   2.247   4.186   7.252 -0.1705 -0.2141  0.2663
  155SAPE   H6R17227   2.145   4.144   7.258  0.1771 -1.2302 -0.5439
  155SAPE   C2717228   2.318   4.195   7.386 -0.2059 -0.3460 -0.1255
  155SAPE   H7R17229   2.414   4.242   7.358 -1.3247  0.8985 -2.1088
  155SAPE   H7S17230   2.339   4.089   7.412 -0.9377 -0.4679 -0.0021
  155SAPE   C2817231   2.240   4.273   7.487  0.3615  0.0798  0.4919
  155SAPE   H8R17232   2.196   4.371   7.462 -2.2522 -1.0405  0.3992
  155SAPE   C2917233   2.226   4.253   7.614 -0.4324  0.2996 -0.1133
  155SAPE   H9R17234   2.168   4.326   7.672  0.5823 -0.5266  2.0231
  155SAPE  C21017235   2.278   4.134   7.694 -0.9714 -0.7361  0.0651
  155SAPE  H10R17236   2.389   4.139   7.693 -0.9719 -0.4185 -2.0519
  155SAPE  H10S17237   2.256   4.037   7.645  0.4538 -0.1331 -1.9171
  155SAPE  C21117238   2.225   4.138   7.834 -0.5868  0.2744  0.7369
  155SAPE  H11R17239   2.122   4.101   7.853 -1.1821  0.0139 -2.3655
  155SAPE  C21217240   2.289   4.205   7.934 -0.5495  0.4884 -0.2212
  155SAPE  H12R17241   2.247   4.195   8.035  1.5806 -0.3831  0.6482
  155SAPE  C21317242   2.422   4.275   7.925 -0.2456  0.2022 -0.0716
  155SAPE  H13R17243   2.453   4.300   7.821  1.2491 -1.1714  0.0091
  155SAPE  H13S17244   2.503   4.211   7.964  0.1040  1.7570  1.8898
  155SAPE  C21417245   2.414   4.396   8.011 -0.1896  0.0174  0.1969
  155SAPE  H14R17246   2.332   4.465   7.986  0.5774  0.4276 -1.2795
  155SAPE  C21517247   2.493   4.419   8.119 -0.5278 -0.3868 -0.4632
  155SAPE  H15R17248   2.468   4.515   8.168 -2.1670 -1.0019 -0.0180
  155SAPE  C21617249   2.602   4.336   8.177 -1.2823 -0.5702  0.6393
  155SAPE  H16R17250   2.654   4.297   8.087 -0.2648  2.0692  0.0010
  155SAPE  H16S17251   2.568   4.255   8.245  0.1746 -2.9149 -1.2759
  155SAPE  C21717252   2.700   4.429   8.252  0.4110  0.6848  0.3369
  155SAPE  H17R17253   2.647   4.462   8.344  0.1750 -2.5305  1.4539
  155SAPE  H17S17254   2.731   4.514   8.187 -1.1934  1.1462  0.1243
  155SAPE  C21817255   2.827   4.349   8.301 -1.4537  0.9549 -0.0754
  155SAPE  H18R17256   2.890   4.307   8.220 -1.5419 -0.1425  0.4044
  155SAPE  H18S17257   2.810   4.275   8.382  0.6436  0.7688  0.2635
  155SAPE  C21917258   2.936   4.432   8.367 -0.2991  0.0035 -0.4125
  155SAPE  H19R17259   3.030   4.373   8.372 -0.5559 -0.3001  2.5849
  155SAPE  H19S17260   2.918   4.452   8.474 -0.6538 -0.3329 -0.4088
  155SAPE  C22017261   2.962   4.584   8.317  0.4472  0.1523  0.1069
  155SAPE  H20R17262   3.035   4.634   8.384  0.1934  0.7152 -0.0331
  155SAPE  H20S17263   2.867   4.640   8.309 -0.3549 -1.2746 -0.8842
  155SAPE  H20T17264   3.007   4.584   8.216  1.6441 -1.2641  0.5865
  155SAPE   C3317265   2.695   5.015   7.192  0.7283  0.0302 -0.4012
  155SAPE   H3X17266   2.739   5.003   7.091 -0.2239 -1.9612 -0.6392
  155SAPE   H3Y17267   2.748   4.935   7.248  1.2586  0.1141 -0.7759
  155SAPE   C3417268   2.719   5.145   7.263  0.0297 -0.8648  0.3550
  155SAPE   H4X17269   2.645   5.209   7.211  0.0381 -1.4947 -0.4484
  155SAPE   H4Y17270   2.816   5.180   7.222  0.3418 -1.8383  0.2367
  155SAPE   C3517271   2.716   5.155   7.417 -0.7032  0.7689  0.6202
  155SAPE   H5X17272   2.715   5.262   7.445 -1.6366  1.0585 -0.4937
  155SAPE   H5Y17273   2.809   5.103   7.450 -0.6857 -0.4899 -1.2813
  155SAPE   C3617274   2.590   5.100   7.481  0.4265  0.1225  0.9635
  155SAPE   H6X17275   2.592   4.989   7.470  0.1211  0.2718 -1.1132
  155SAPE   H6Y17276   2.510   5.137   7.413  1.1312 -1.9889 -1.1698
  155SAPE   C3717277   2.567   5.144   7.630  0.3608  0.7358 -0.0487
  155SAPE   H7X17278   2.485   5.089   7.681  1.2888  0.6570  1.4187
  155SAPE   H7Y17279   2.542   5.252   7.622  1.0366  0.9785  0.9731
  155SAPE   C3817280   2.691   5.120   7.717  0.4671  0.1652  0.4375
  155SAPE   H8X17281   2.785   5.154   7.668 -1.3650  2.0023 -2.1192
  155SAPE   H8Y17282   2.691   5.009   7.718 -1.1924 -0.0134 -2.9594
  155SAPE   C3917283   2.679   5.182   7.853 -0.6020  0.4431  0.4832
  155SAPE   H9X17284   2.578   5.177   7.899 -1.1551 -0.4159 -0.7674
  155SAPE   H9Y17285   2.708   5.289   7.842  0.6119  0.1090  0.2485
  155SAPE  C31017286   2.776   5.132   7.949  0.1000  0.2015 -0.2260
  155SAPE  H10X17287   2.872   5.110   7.900  0.5607  2.2748 -0.3510
  155SAPE  H10Y17288   2.749   5.032   7.989  2.6865 -0.5520 -0.1858
  155SAPE  C31117289   2.793   5.225   8.069 -0.4865 -0.1995 -0.7668
  155SAPE  H11X17290   2.693   5.249   8.110  0.3525 -0.6582  1.7434
  155SAPE  H11Y17291   2.846   5.318   8.039  1.2899  0.1978  3.0442
  155SAPE  C31217292   2.875   5.156   8.182 -0.2514 -0.1227  0.7368
  155SAPE  H12X17293   2.904   5.233   8.257  0.0408 -2.1288  2.8020
  155SAPE  H12Y17294   2.963   5.102   8.143 -0.1014  0.6799 -0.0607
  155SAPE  C31317295   2.788   5.071   8.275 -0.4711 -0.1209 -0.4288
  155SAPE  H13X17296   2.722   5.004   8.215 -1.3378 -0.5881  1.0015
  155SAPE  H13Y17297   2.720   5.141   8.328 -0.0446  1.3443 -1.7487
  155SAPE  C31417298   2.864   4.995   8.382  0.2380  0.2591  0.3879
  155SAPE  H14X17299   2.902   5.077   8.447 -0.2051  1.3984 -0.7399
  155SAPE  H14Y17300   2.954   4.949   8.334  1.4119  2.9467 -0.1744
  155SAPE  C31517301   2.772   4.896   8.461  0.2263  0.2778 -0.0245
  155SAPE  H15X17302   2.734   4.809   8.402  1.5830 -0.1973 -0.2286
  155SAPE  H15Y17303   2.691   4.965   8.493  2.0697  3.2865 -1.3354
  155SAPE  C31617304   2.849   4.832   8.581 -0.7689 -0.2049  0.2525
  155SAPE  H16X17305   2.887   4.914   8.646  0.9780  0.3094 -1.3328
  155SAPE  H16Y17306   2.937   4.786   8.532 -0.8161  0.9974 -1.0001
  155SAPE  C31717307   2.771   4.741   8.667  0.3640  0.0810  0.5915
  155SAPE  H17X17308   2.711   4.665   8.612  0.3418 -0.1251  0.8957
  155SAPE  H17Y17309   2.701   4.811   8.718  0.8907  2.5133 -1.7868
  155SAPE  C31817310   2.862   4.674   8.777 -0.0257 -0.5957  0.0478
  155SAPE  H18X17311   2.913   4.759   8.826 -0.5754  0.1832 -0.7149
  155SAPE  H18Y17312   2.939   4.604   8.737  0.1766 -1.1670  1.3886
  155SAPE  H18Z17313   2.796   4.617   8.846 -1.0254 -0.5084 -0.8028
  156SAPE     N17314   4.736   2.931   6.002 -0.1452 -0.4506 -0.3025
  156SAPE   HN117315   4.632   2.926   6.003 -0.2413  0.9881  0.7348
  156SAPE   HN217316   4.762   3.026   6.036  1.9667 -0.6114 -1.3285
  156SAPE   HN317317   4.754   2.925   5.900 -1.3182  2.7398 -0.8155
  156SAPE   C1217318   4.811   2.819   6.072  0.5745 -0.0584  0.1924
  156SAPE  H12A17319   4.759   2.724   6.049 -0.6445  0.8662 -1.0137
  156SAPE  H12B17320   4.805   2.826   6.183  1.5655 -1.7611  0.3966
  156SAPE   C1117321   4.960   2.799   6.030 -0.0504 -0.1252  0.1844
  156SAPE  H11A17322   5.031   2.879   6.060  0.3466  0.0049 -1.0607
  156SAPE  H11B17323   4.964   2.774   5.922 -0.0542 -1.6404  0.5097
  156SAPE     P17324   5.049   2.674   6.240  0.2581  0.5903  0.4083
  156SAPE   O1317325   4.931   2.654   6.329 -0.3152 -0.2606  0.6136
  156SAPE   O1417326   5.151   2.572   6.246 -0.0041  0.2582 -0.0077
  156SAPE   O1217327   4.995   2.678   6.088 -0.4037  0.3506  0.4518
  156SAPE   O1117328   5.124   2.812   6.277  0.2631  0.5109  0.6366
  156SAPE    C117329   5.268   2.838   6.251 -0.2010  0.0121  0.3459
  156SAPE    HA17330   5.322   2.753   6.203  2.6724  1.0931  1.4493
  156SAPE    HB17331   5.286   2.922   6.180  2.6485 -1.7893 -1.2888
  156SAPE    C217332   5.352   2.859   6.379 -0.3578 -0.0132  1.3527
  156SAPE    HS17333   5.458   2.872   6.348 -1.2876  1.5520 -1.4477
  156SAPE   O2117334   5.333   2.749   6.466 -0.6631  0.2025 -0.1259
  156SAPE   C2117335   5.390   2.635   6.427 -0.3544  0.1465 -0.2667
  156SAPE   O2217336   5.461   2.626   6.330 -0.5220  0.2488 -0.3573
  156SAPE   C2217337   5.361   2.514   6.532 -0.0172 -0.4469  0.4267
  156SAPE   H2R17338   5.338   2.421   6.475  0.4968 -0.1081 -0.3559
  156SAPE   H2S17339   5.449   2.490   6.596 -1.0909 -1.1516  1.7006
  156SAPE    C317340   5.315   2.999   6.435  0.1789  0.1820  0.6772
  156SAPE    HX17341   5.205   3.015   6.425  0.5223  1.3197 -1.9014
  156SAPE    HY17342   5.359   3.072   6.365 -0.8145  0.9920  0.8702
  156SAPE   O3117343   5.368   3.025   6.566  0.1436  0.6637  0.3795
  156SAPE   C3117344   5.288   2.978   6.665 -0.3599  0.0988  0.5223
  156SAPE   O3217345   5.178   2.922   6.652 -0.1343 -0.2450 -0.3051
  156SAPE   C3217346   5.344   3.013   6.796  0.4675  0.6037 -0.8411
  156SAPE   H2X17347   5.327   3.122   6.811  0.3635  0.5058 -0.2600
  156SAPE   H2Y17348   5.453   2.990   6.791  0.1472 -1.0702 -0.5303
  156SAPE   C2317349   5.248   2.560   6.632 -0.7409  0.5051 -0.4835
  156SAPE   H3R17350   5.144   2.563   6.591 -1.1642 -0.6319  0.4334
  156SAPE   H3S17351   5.277   2.661   6.667  0.7750  0.1119 -0.5416
  156SAPE   C2417352   5.238   2.448   6.750  0.4082 -0.4549 -0.2403
  156SAPE   H4R17353   5.273   2.353   6.705 -1.9084 -0.4929 -2.1465
  156SAPE   H4S17354   5.134   2.433   6.786 -0.2241  2.0624 -0.8164
  156SAPE   C2517355   5.324   2.500   6.863  0.1032  0.6242 -0.3792
  156SAPE   H5R17356   5.417   2.557   6.846  1.5178 -0.5838  2.5143
  156SAPE   C2617357   5.296   2.479   6.996 -1.0846  0.3200  0.3982
  156SAPE   H6R17358   5.360   2.529   7.070 -2.3695  3.0979 -0.2540
  156SAPE   C2717359   5.171   2.408   7.044  0.5060  0.4974 -0.6752
  156SAPE   H7R17360   5.138   2.333   6.969  1.9368  1.7298 -2.6421
  156SAPE   H7S17361   5.090   2.484   7.042 -1.8292 -1.8549 -2.5465
  156SAPE   C2817362   5.182   2.352   7.182 -0.2677  0.6095  0.2278
  156SAPE   H8R17363   5.268   2.284   7.194 -0.9614 -0.0401  1.8851
  156SAPE   C2917364   5.104   2.394   7.288  0.2542  0.2210  1.2410
  156SAPE   H9R17365   5.115   2.341   7.383 -0.3257  1.1677  1.8561
  156SAPE  C21017366   4.997   2.497   7.293  0.5992 -0.4737  0.5113
  156SAPE  H10R17367   4.961   2.523   7.192  1.3661  1.1216  0.6207
  156SAPE  H10S17368   5.038   2.592   7.335  2.3697 -1.0622  0.2153
  156SAPE  C21117369   4.873   2.456   7.369  0.1715 -0.0230  0.1382
  156SAPE  H11R17370   4.830   2.359   7.340  1.0654 -0.0620 -1.1084
  156SAPE  C21217371   4.811   2.524   7.466  0.6977  0.1418  0.3500
  156SAPE  H12R17372   4.719   2.487   7.514  0.8879  1.0833  1.4746
  156SAPE  C21317373   4.864   2.654   7.523 -0.0368 -0.9541  0.4690
  156SAPE  H13R17374   4.937   2.711   7.461 -1.0597 -1.1416 -0.9651
  156SAPE  H13S17375   4.919   2.635   7.617  1.1051  0.8635  0.2230
  156SAPE  C21417376   4.758   2.762   7.540 -0.3368 -0.1626  0.5276
  156SAPE  H14R17377   4.699   2.785   7.451 -3.4215 -4.3588  1.1700
  156SAPE  C21517378   4.717   2.815   7.660  0.0502 -0.3924 -0.3645
  156SAPE  H15R17379   4.640   2.892   7.672 -0.4206 -1.2431  3.8032
  156SAPE  C21617380   4.775   2.771   7.799 -0.1796  0.4924  0.1747
  156SAPE  H16R17381   4.886   2.772   7.787 -0.0814  1.6278  1.1145
  156SAPE  H16S17382   4.743   2.667   7.822  2.2625 -0.8761 -1.9728
  156SAPE  C21717383   4.733   2.866   7.914 -0.1063 -0.3385 -0.1604
  156SAPE  H17R17384   4.626   2.893   7.902 -0.1205  0.1026  0.9101
  156SAPE  H17S17385   4.789   2.962   7.906  0.3453 -0.4270  1.6142
  156SAPE  C21817386   4.765   2.799   8.049 -0.5603  0.6771 -0.7294
  156SAPE  H18R17387   4.874   2.783   8.062 -0.6811  0.3608 -0.0749
  156SAPE  H18S17388   4.715   2.701   8.067 -0.9863  1.1669  0.9365
  156SAPE  C21917389   4.733   2.895   8.174 -0.6444  0.7555  0.4493
  156SAPE  H19R17390   4.795   2.985   8.152  1.2479 -0.8069 -1.0165
  156SAPE  H19S17391   4.776   2.851   8.266 -0.3809 -2.2020 -0.9538
  156SAPE  C22017392   4.584   2.926   8.198  0.2922  0.7312 -0.1256
  156SAPE  H20R17393   4.538   2.845   8.259 -2.3478  0.4492 -2.2901
  156SAPE  H20S17394   4.527   2.930   8.103 -0.1935 -0.7835  0.0623
  156SAPE  H20T17395   4.565   3.019   8.255  1.8861  2.3136 -2.0072
  156SAPE   C3317396   5.256   2.939   6.902 -0.5617 -0.4767  0.0510
  156SAPE   H3X17397   5.283   2.831   6.891  1.7353  0.2464 -2.8600
  156SAPE   H3Y17398   5.148   2.958   6.889 -0.3701  0.5088 -0.1531
  156SAPE   C3417399   5.287   3.002   7.043 -0.4154  0.0011 -0.6240
  156SAPE   H4X17400   5.249   3.105   7.058  0.7177  0.4859 -0.9519
  156SAPE   H4Y17401   5.393   2.992   7.075 -0.3296 -1.4218 -1.2463
  156SAPE   C3517402   5.217   2.921   7.164 -0.1515  0.6606  0.4938
  156SAPE   H5X17403   5.240   2.813   7.159 -0.4314  0.3374  3.7346
  156SAPE   H5Y17404   5.109   2.918   7.139  0.2189 -1.1744 -1.1120
  156SAPE   C3617405   5.261   2.972   7.301  0.6252 -0.1645 -1.0266
  156SAPE   H6X17406   5.231   3.079   7.311  1.9923  0.2035 -0.7045
  156SAPE   H6Y17407   5.372   2.973   7.301  0.6481 -0.4009  0.4489
  156SAPE   C3717408   5.216   2.890   7.427 -0.2947 -0.4936 -0.4200
  156SAPE   H7X17409   5.274   2.795   7.426  0.2987 -0.2679  2.8475
  156SAPE   H7Y17410   5.109   2.858   7.422 -1.0429  1.9929 -2.8374
  156SAPE   C3817411   5.223   2.976   7.560  0.8922  0.0341 -0.7595
  156SAPE   H8X17412   5.134   3.044   7.563  1.1434  0.3653 -0.7836
  156SAPE   H8Y17413   5.327   3.014   7.560  1.7764 -2.1668 -2.7835
  156SAPE   C3917414   5.219   2.890   7.687  0.3480  0.2514  0.7016
  156SAPE   H9X17415   5.270   2.793   7.665 -0.7156 -0.0540 -0.5235
  156SAPE   H9Y17416   5.113   2.867   7.712  0.0206  1.3430  0.3711
  156SAPE  C31017417   5.279   2.937   7.818  0.0731  0.0360 -0.2530
  156SAPE  H10X17418   5.250   3.044   7.831  1.6837  0.5531 -0.6363
  156SAPE  H10Y17419   5.389   2.924   7.820 -0.1127 -1.5806  0.4607
  156SAPE  C31117420   5.239   2.848   7.941  0.5427  0.0713 -0.8196
  156SAPE  H11X17421   5.273   2.744   7.921 -0.5279 -0.7319  1.3233
  156SAPE  H11Y17422   5.129   2.854   7.951  0.7632  1.4230  1.2883
  156SAPE  C31217423   5.311   2.889   8.066  0.0582 -0.4408 -0.2790
  156SAPE  H12X17424   5.286   2.994   8.089  1.8091 -0.7112  3.7005
  156SAPE  H12Y17425   5.420   2.880   8.045  0.2154 -1.6988  0.9296
  156SAPE  C31317426   5.268   2.804   8.188  0.6179  0.0297  0.2134
  156SAPE  H13X17427   5.286   2.700   8.155  0.4853  0.3774 -1.0029
  156SAPE  H13Y17428   5.162   2.810   8.221  0.7276  1.6995  0.3419
  156SAPE  C31417429   5.349   2.848   8.310 -0.1381 -0.0217 -0.4874
  156SAPE  H14X17430   5.288   2.932   8.349 -1.0319 -0.3175 -1.2117
  156SAPE  H14Y17431   5.451   2.878   8.278 -0.1438 -0.5996 -1.0756
  156SAPE  C31517432   5.369   2.735   8.416 -0.1553 -0.3553  0.2478
  156SAPE  H15X17433   5.409   2.646   8.364 -0.7336 -0.9294  0.7734
  156SAPE  H15Y17434   5.274   2.706   8.466  0.6883  0.8080  2.7252
  156SAPE  C31617435   5.478   2.776   8.516 -0.0692 -0.1707  0.5474
  156SAPE  H16X17436   5.572   2.795   8.461 -0.4482 -0.9439 -0.3945
  156SAPE  H16Y17437   5.506   2.697   8.589 -0.0048  0.7109  1.4971
  156SAPE  C31717438   5.424   2.900   8.590 -0.6274  0.4487 -0.0990
  156SAPE  H17X17439   5.314   2.894   8.607 -0.7186 -1.6042 -1.0956
  156SAPE  H17Y17440   5.436   2.994   8.532 -2.1114 -0.2072 -1.5626
  156SAPE  C31817441   5.493   2.904   8.723 -0.8885 -0.4626  0.2150
  156SAPE  H18X17442   5.487   2.993   8.789  0.8113 -1.5659  1.9680
  156SAPE  H18Y17443   5.602   2.891   8.701  0.0017  2.3526  2.3949
  156SAPE  H18Z17444   5.453   2.813   8.772 -2.1231 -0.0369  0.0078
  157SAPE     N17445   5.839   0.603   5.924 -1.1043  0.6296 -0.2251
  157SAPE   HN117446   5.940   0.604   5.900 -1.0785  0.3405 -0.1309
  157SAPE   HN217447   5.795   0.555   5.843 -1.7685 -1.8295  1.4643
  157SAPE   HN317448   5.806   0.700   5.944 -2.2763  0.3510 -0.7139
  157SAPE   C1217449   5.810   0.533   6.056  0.0522 -0.4288 -0.1737
  157SAPE  H12A17450   5.848   0.593   6.141  1.2182 -1.1421 -0.1663
  157SAPE  H12B17451   5.873   0.442   6.064 -0.2614 -0.4643  4.2278
  157SAPE   C1117452   5.660   0.494   6.064 -0.5230  0.3971  0.0451
  157SAPE  H11A17453   5.645   0.411   6.136 -0.5296 -0.6439 -1.1257
  157SAPE  H11B17454   5.628   0.441   5.972 -3.5883 -1.7864  2.1661
  157SAPE     P17455   5.557   0.667   6.233 -0.6469 -0.4654  0.0383
  157SAPE   O1317456   5.678   0.744   6.255  0.1285  0.1620 -0.4413
  157SAPE   O1417457   5.434   0.749   6.238  0.0486 -0.4993  0.1997
  157SAPE   O1217458   5.571   0.605   6.087 -0.5425 -0.0089  0.4166
  157SAPE   O1117459   5.554   0.552   6.342  0.1236  0.1801  0.3511
  157SAPE    C117460   5.538   0.576   6.482  0.1268 -0.5598 -0.4547
  157SAPE    HA17461   5.489   0.675   6.497  1.1884 -0.1346  0.3695
  157SAPE    HB17462   5.482   0.494   6.530  3.1142 -1.7761  1.2145
  157SAPE    C217463   5.679   0.574   6.544 -0.3758 -0.3386 -0.3875
  157SAPE    HS17464   5.735   0.646   6.481  0.7138 -1.3642 -0.6262
  157SAPE   O2117465   5.734   0.440   6.542  0.1921 -1.0110  0.3836
  157SAPE   C2117466   5.861   0.432   6.500 -0.7043 -0.1771 -0.2491
  157SAPE   O2217467   5.930   0.525   6.468 -0.3118  0.6763 -0.1383
  157SAPE   C2217468   5.914   0.293   6.510  0.0615 -0.0269 -0.1648
  157SAPE   H2R17469   5.827   0.226   6.494  0.8425 -0.8654 -1.0268
  157SAPE   H2S17470   5.996   0.267   6.440  1.4908 -0.2367  1.5062
  157SAPE    C317471   5.679   0.626   6.688  1.0385  0.0699  0.1205
  157SAPE    HX17472   5.623   0.552   6.750  0.0195  0.7267 -0.0055
  157SAPE    HY17473   5.620   0.720   6.684  0.8985  0.0809  1.7225
  157SAPE   O3117474   5.813   0.651   6.735  0.3420 -0.0494  0.0803
  157SAPE   C3117475   5.866   0.761   6.709  0.5276 -0.0471  0.0211
  157SAPE   O3217476   5.811   0.867   6.666  0.4521  0.1107 -0.3732
  157SAPE   C3217477   6.014   0.759   6.759 -0.0587 -0.1794  0.5395
  157SAPE   H2X17478   6.070   0.782   6.666  0.4056 -0.8203  0.6514
  157SAPE   H2Y17479   6.043   0.654   6.782 -1.5314 -0.8266 -0.4184
  157SAPE   C2317480   5.955   0.259   6.653 -1.0588 -0.0131 -0.5576
  157SAPE   H3R17481   6.020   0.340   6.690 -0.8476  0.3503 -1.7165
  157SAPE   H3S17482   6.013   0.164   6.652  2.0979  1.7739 -2.8382
  157SAPE   C2417483   5.828   0.252   6.745  0.7372  0.2072  0.1370
  157SAPE   H4R17484   5.743   0.217   6.683  1.1251 -2.5520  1.0094
  157SAPE   H4S17485   5.799   0.348   6.792 -1.5645 -0.8103  0.9495
  157SAPE   C2517486   5.848   0.162   6.870 -0.5537  0.2109  0.3570
  157SAPE   H5R17487   5.803   0.063   6.856 -1.0315  0.2790  1.3902
  157SAPE   C2617488   5.895   0.185   6.986 -0.0089  0.8845 -0.2675
  157SAPE   H6R17489   5.891   0.100   7.055 -1.7465  1.2007  0.0760
  157SAPE   C2717490   5.951   0.319   7.032 -0.2043 -0.0659 -0.4834
  157SAPE   H7R17491   5.881   0.356   7.110  1.8302  0.8813  0.9857
  157SAPE   H7S17492   5.948   0.409   6.967 -4.2411  1.5423  1.5348
  157SAPE   C2817493   6.084   0.303   7.096 -0.2128  1.0441 -0.0289
  157SAPE   H8R17494   6.173   0.288   7.033  0.6523  2.4327  0.8192
  157SAPE   C2917495   6.109   0.309   7.229  0.4134  0.3972  0.7942
  157SAPE   H9R17496   6.216   0.299   7.255  0.7163  1.4568  0.0223
  157SAPE  C21017497   6.013   0.322   7.345 -0.1943 -0.5501  0.1442
  157SAPE  H10R17498   6.021   0.226   7.401  0.5185 -0.7687 -0.3061
  157SAPE  H10S17499   5.906   0.337   7.318 -0.1997 -1.0264 -0.1090
  157SAPE  C21117500   6.043   0.432   7.435  0.1780 -0.0948 -0.7548
  157SAPE  H11R17501   6.050   0.533   7.393 -1.2368  0.5189  0.4112
  157SAPE  C21217502   6.065   0.428   7.569  0.3783  0.2920  0.1288
  157SAPE  H12R17503   6.095   0.521   7.619  3.7183 -1.1786  1.1894
  157SAPE  C21317504   6.059   0.307   7.663 -0.7272 -0.0116 -0.5225
  157SAPE  H13R17505   6.081   0.211   7.610  2.8985  0.4397 -0.0682
  157SAPE  H13S17506   5.960   0.308   7.713 -1.0799  1.6982 -1.1944
  157SAPE  C21417507   6.174   0.326   7.758  0.1798 -0.3542 -0.2580
  157SAPE  H14R17508   6.275   0.315   7.717  0.0401 -5.1299  0.0926
  157SAPE  C21517509   6.158   0.356   7.890 -0.2050  0.6874 -0.4203
  157SAPE  H15R17510   6.248   0.378   7.949 -0.0208 -0.6633 -0.1704
  157SAPE  C21617511   6.022   0.379   7.956  0.1274 -0.2341  0.1890
  157SAPE  H16R17512   5.974   0.293   8.006 -0.0478  0.8044  1.9194
  157SAPE  H16S17513   5.946   0.425   7.889 -0.8733 -1.8588  0.1763
  157SAPE  C21717514   6.045   0.490   8.069  0.7890 -0.6750  0.1133
  157SAPE  H17R17515   5.946   0.536   8.089  0.2718 -1.7358  0.0676
  157SAPE  H17S17516   6.126   0.562   8.046  1.0923 -0.0715  2.7063
  157SAPE  C21817517   6.103   0.432   8.198 -0.0838 -0.4557 -0.2450
  157SAPE  H18R17518   6.194   0.373   8.173  0.0984 -0.2679 -0.0345
  157SAPE  H18S17519   6.041   0.344   8.223 -0.9754 -0.6662 -2.8560
  157SAPE  C21917520   6.145   0.540   8.294 -0.1093  0.4185 -0.8501
  157SAPE  H19R17521   6.054   0.569   8.351  1.8118 -1.8832  3.9700
  157SAPE  H19S17522   6.182   0.630   8.240  1.2585  0.7824  0.6219
  157SAPE  C22017523   6.251   0.494   8.402  1.2340  0.4875 -0.0357
  157SAPE  H20R17524   6.231   0.391   8.439  1.5493  0.3846 -0.1448
  157SAPE  H20S17525   6.246   0.559   8.492  2.1298  0.2951  0.1663
  157SAPE  H20T17526   6.354   0.506   8.361  0.2012  0.2576 -2.9310
  157SAPE   C3317527   6.037   0.868   6.869  0.5252 -0.4889  0.4374
  157SAPE   H3X17528   5.988   0.965   6.848  2.3356  0.2160 -0.6462
  157SAPE   H3Y17529   6.144   0.885   6.892  0.4496 -0.5849  0.8857
  157SAPE   C3417530   5.973   0.808   6.995  0.0920  0.1033  0.2630
  157SAPE   H4X17531   6.044   0.728   7.024 -0.1064 -0.4960 -0.8744
  157SAPE   H4Y17532   5.875   0.763   6.971  0.1867 -0.5219  1.0061
  157SAPE   C3517533   5.958   0.907   7.113  0.5417 -0.0015  0.2790
  157SAPE   H5X17534   5.871   0.972   7.089  0.2545 -0.1384  0.9222
  157SAPE   H5Y17535   6.053   0.963   7.127 -0.3440  1.2945  1.3934
  157SAPE   C3617536   5.921   0.833   7.247 -0.3913 -0.2874  0.3050
  157SAPE   H6X17537   6.011   0.768   7.258 -0.2230 -0.2036 -0.5324
  157SAPE   H6Y17538   5.834   0.764   7.243 -0.7108  0.0783  0.8790
  157SAPE   C3717539   5.892   0.921   7.364 -0.3194 -0.5904  0.2720
  157SAPE   H7X17540   5.785   0.949   7.367 -0.3652 -0.5656 -0.8759
  157SAPE   H7Y17541   5.959   1.008   7.346 -1.5769  0.0337 -1.8502
  157SAPE   C3817542   5.939   0.849   7.498 -0.3080 -0.3081  0.0334
  157SAPE   H8X17543   6.047   0.825   7.489 -0.1611  0.1418  0.5068
  157SAPE   H8Y17544   5.890   0.751   7.517 -0.1805 -0.6705 -1.4403
  157SAPE   C3917545   5.899   0.930   7.618  0.1961  0.2164  0.5749
  157SAPE   H9X17546   5.796   0.972   7.605  0.3984  0.4288 -0.4671
  157SAPE   H9Y17547   5.968   1.016   7.629 -1.7600  1.8445  0.8589
  157SAPE  C31017548   5.904   0.853   7.752 -0.4094 -0.7029  0.9027
  157SAPE  H10X17549   6.006   0.808   7.757  0.3331  0.8330  0.1626
  157SAPE  H10Y17550   5.833   0.768   7.757  0.8661 -1.8931 -0.2084
  157SAPE  C31117551   5.885   0.942   7.873  0.1643 -0.2697 -0.1967
  157SAPE  H11X17552   5.775   0.946   7.889 -0.2789 -1.0312 -2.6044
  157SAPE  H11Y17553   5.928   1.042   7.852  1.2908 -0.2548  1.9074
  157SAPE  C31217554   5.956   0.880   7.999 -0.5332  0.0169  0.5919
  157SAPE  H12X17555   6.067   0.889   7.991 -0.6821  2.3207  0.4256
  157SAPE  H12Y17556   5.920   0.777   8.018  0.2089 -0.6369 -1.3239
  157SAPE  C31317557   5.937   0.970   8.126  0.3366 -0.3944  0.3990
  157SAPE  H13X17558   5.832   0.957   8.160  0.0598  0.8273  0.0649
  157SAPE  H13Y17559   5.944   1.075   8.093  0.5934 -0.7776 -0.8185
  157SAPE  C31417560   6.044   0.941   8.233 -0.3148  0.1358 -1.0195
  157SAPE  H14X17561   6.140   0.991   8.205 -0.0392  1.0753  1.3124
  157SAPE  H14Y17562   6.066   0.833   8.240 -1.4048 -0.0255  0.5000
  157SAPE  C31517563   6.012   0.974   8.377 -0.2907 -0.2231  0.3293
  157SAPE  H15X17564   5.957   1.071   8.379  0.6554  0.3236  0.8524
  157SAPE  H15Y17565   6.107   0.994   8.431  1.9971 -1.4702 -2.9709
  157SAPE  C31617566   5.915   0.880   8.444  0.3065 -0.2077  0.0587
  157SAPE  H16X17567   5.933   0.773   8.424 -0.4223  0.0540 -2.2801
  157SAPE  H16Y17568   5.809   0.903   8.418  0.1100 -1.5597 -0.4080
  157SAPE  C31717569   5.918   0.904   8.595 -0.2758  0.0266  0.6685
  157SAPE  H17X17570   6.019   0.938   8.627  0.2133 -1.1045  0.3894
  157SAPE  H17Y17571   5.902   0.807   8.647  1.5375 -1.0369 -0.6167
  157SAPE  C31817572   5.824   1.014   8.656  0.0370 -0.5320 -0.1591
  157SAPE  H18X17573   5.717   0.984   8.653 -0.1636  0.2408 -1.6389
  157SAPE  H18Y17574   5.823   1.112   8.605  0.6492 -0.9684 -1.0370
  157SAPE  H18Z17575   5.849   1.032   8.763  1.4270 -0.2567 -0.5091
  158SAPE     N17576   6.460   2.272   6.199 -0.6370  0.2562 -0.4618
  158SAPE   HN117577   6.375   2.273   6.138 -0.4817  1.0220 -0.6735
  158SAPE   HN217578   6.441   2.298   6.298  0.4229 -0.2022 -0.1241
  158SAPE   HN317579   6.525   2.339   6.154  1.1786 -0.8780  0.3474
  158SAPE   C1217580   6.533   2.141   6.189 -0.3938  0.2048 -0.6995
  158SAPE  H12A17581   6.543   2.117   6.081 -1.5600 -1.0871 -0.5637
  158SAPE  H12B17582   6.473   2.061   6.238 -2.2080  1.7024 -0.3722
  158SAPE   C1117583   6.675   2.146   6.248 -0.4485 -0.1236  0.0008
  158SAPE  H11A17584   6.657   2.157   6.357 -1.3016 -1.2719 -0.0011
  158SAPE  H11B17585   6.713   2.241   6.205 -0.6289 -0.0697 -0.0397
  158SAPE     P17586   6.910   2.032   6.257 -0.1947  0.0456 -0.1875
  158SAPE   O1317587   6.981   1.901   6.273 -0.1428 -0.7601  0.0795
  158SAPE   O1417588   6.965   2.115   6.156  0.2481  0.0516 -0.2073
  158SAPE   O1217589   6.755   2.027   6.224 -0.3228 -0.5097 -0.5694
  158SAPE   O1117590   6.914   2.090   6.409 -0.0834  0.0529  0.2780
  158SAPE    C117591   6.941   2.223   6.433 -0.2650  0.0624  1.1257
  158SAPE    HA17592   7.043   2.254   6.402 -0.1292 -3.1010 -2.2893
  158SAPE    HB17593   6.879   2.295   6.375 -1.5980 -2.4443 -0.7400
  158SAPE    C217594   6.928   2.248   6.588  0.2007  0.3809  0.1220
  158SAPE    HS17595   6.966   2.161   6.646  0.2678  0.9194  0.9064
  158SAPE   O2117596   6.789   2.261   6.603  0.8022 -0.1008  0.0796
  158SAPE   C2117597   6.731   2.231   6.725  0.0699  0.2629  0.4757
  158SAPE   O2217598   6.792   2.190   6.825  0.1734 -0.5673  0.6754
  158SAPE   C2217599   6.580   2.271   6.718  0.1445 -0.0870  0.1720
  158SAPE   H2R17600   6.577   2.373   6.673 -0.4482  0.5190  1.5062
  158SAPE   H2S17601   6.529   2.193   6.657  0.3853 -1.9812  2.2581
  158SAPE    C317602   7.004   2.373   6.634  0.4008  0.0240 -0.3083
  158SAPE    HX17603   6.966   2.462   6.579 -1.3923  0.0076  0.7982
  158SAPE    HY17604   7.114   2.372   6.618  0.6928 -0.7800  1.4713
  158SAPE   O3117605   6.981   2.406   6.775 -0.6590  0.5167 -0.5444
  158SAPE   C3117606   7.057   2.344   6.863 -0.4162 -0.0397  0.7945
  158SAPE   O3217607   7.150   2.268   6.843  0.4969 -0.2991  0.5967
  158SAPE   C3217608   7.023   2.400   7.003 -0.3812  0.7457  0.3469
  158SAPE   H2X17609   6.934   2.344   7.040 -1.9664  3.3971  0.7339
  158SAPE   H2Y17610   7.008   2.509   7.014  1.8452  1.2394 -0.8697
  158SAPE   C2317611   6.516   2.274   6.861  0.1586  0.1301 -0.4123
  158SAPE   H3R17612   6.578   2.227   6.940 -0.9199 -0.6760 -0.0252
  158SAPE   H3S17613   6.429   2.206   6.860  0.0354  0.2881 -0.4165
  158SAPE   C2417614   6.486   2.419   6.898 -1.1641  0.0927  0.2677
  158SAPE   H4R17615   6.418   2.422   6.986  1.2074  0.8235  2.1995
  158SAPE   H4S17616   6.438   2.469   6.812  0.7978  0.0111 -0.9467
  158SAPE   C2517617   6.615   2.501   6.927  0.6135  0.6556  0.1476
  158SAPE   H5R17618   6.693   2.492   6.849 -0.2799 -0.0668 -0.6910
  158SAPE   C2617619   6.654   2.579   7.032 -0.3687 -0.4447  0.6173
  158SAPE   H6R17620   6.755   2.622   7.034 -0.5102 -0.0680 -0.0087
  158SAPE   C2717621   6.573   2.600   7.157  1.1137  0.0671 -0.1706
  158SAPE   H7R17622   6.473   2.552   7.154  0.7107  0.9093 -1.6236
  158SAPE   H7S17623   6.540   2.704   7.175  0.0841 -0.5029  1.4062
  158SAPE   C2817624   6.636   2.559   7.288  0.2400  0.1564 -0.0655
  158SAPE   H8R17625   6.695   2.637   7.339 -0.0112 -0.0406  0.5358
  158SAPE   C2917626   6.649   2.430   7.327 -0.0880  0.3962  0.0442
  158SAPE   H9R17627   6.707   2.410   7.419  1.2922 -0.3021 -0.9517
  158SAPE  C21017628   6.582   2.311   7.255 -0.2228 -0.4058  0.9685
  158SAPE  H10R17629   6.554   2.326   7.148 -0.3926 -2.1217  0.7444
  158SAPE  H10S17630   6.483   2.313   7.305  0.4652  1.3922  2.3804
  158SAPE  C21117631   6.648   2.171   7.260  0.1778 -0.1918 -0.6971
  158SAPE  H11R17632   6.678   2.118   7.168  1.0090  2.3648 -1.9983
  158SAPE  C21217633   6.642   2.095   7.374 -0.2269 -0.3108  0.3983
  158SAPE  H12R17634   6.672   1.990   7.368  2.4522  0.4562 -1.3756
  158SAPE  C21317635   6.592   2.126   7.515 -0.0266 -0.2138  0.1629
  158SAPE  H13R17636   6.499   2.069   7.538 -0.9025  0.8701 -0.6419
  158SAPE  H13S17637   6.573   2.235   7.510 -0.4440 -0.3181 -0.6894
  158SAPE  C21417638   6.699   2.091   7.614  0.1496 -0.2550 -0.0362
  158SAPE  H14R17639   6.785   2.040   7.569  0.0441 -0.3035 -0.1823
  158SAPE  C21517640   6.681   2.095   7.748 -0.5203 -0.1167 -0.1663
  158SAPE  H15R17641   6.762   2.065   7.816  1.1341  1.6394 -1.2592
  158SAPE  C21617642   6.551   2.142   7.813  0.1813  0.4147  0.0633
  158SAPE  H16R17643   6.478   2.058   7.822 -1.4233  1.4715 -2.0487
  158SAPE  H16S17644   6.505   2.217   7.745 -0.2008 -0.5296 -0.7468
  158SAPE  C21717645   6.576   2.197   7.957 -0.4021  0.5608  0.7123
  158SAPE  H17R17646   6.661   2.268   7.948  0.8741 -1.0781 -1.4191
  158SAPE  H17S17647   6.603   2.107   8.016  1.1152 -0.8315 -1.9333
  158SAPE  C21817648   6.451   2.266   8.015 -0.0541 -0.1828 -0.8925
  158SAPE  H18R17649   6.376   2.193   8.052 -1.8333  2.1598  0.3729
  158SAPE  H18S17650   6.408   2.319   7.927 -1.5606 -1.9524 -1.2870
  158SAPE  C21917651   6.485   2.358   8.129 -0.5698 -0.1682  0.3970
  158SAPE  H19R17652   6.395   2.407   8.171 -0.0963  0.4422  0.7195
  158SAPE  H19S17653   6.537   2.449   8.091  0.0331 -1.5371 -2.2804
  158SAPE  C22017654   6.570   2.294   8.232  0.2074 -0.6013 -0.2285
  158SAPE  H20R17655   6.666   2.253   8.192  3.2008  0.4832  4.9290
  158SAPE  H20S17656   6.512   2.213   8.282 -0.1977  1.0603  2.1543
  158SAPE  H20T17657   6.595   2.358   8.319  0.6907 -0.8801 -0.1566
  158SAPE   C3317658   7.145   2.347   7.088 -0.4979 -0.5264  0.6303
  158SAPE   H3X17659   7.246   2.362   7.044 -0.7461  1.5115  0.6444
  158SAPE   H3Y17660   7.141   2.237   7.101  0.1242 -0.7029 -0.4892
  158SAPE   C3417661   7.144   2.410   7.229 -0.6828  0.5160  0.3733
  158SAPE   H4X17662   7.108   2.515   7.239  0.7071  1.1780 -1.1662
  158SAPE   H4Y17663   7.244   2.402   7.277 -0.1187  1.5349 -0.6126
  158SAPE   C3517664   7.039   2.338   7.325 -0.2046  0.2989  0.0271
  158SAPE   H5X17665   7.049   2.227   7.321 -0.3187  0.2052  1.7702
  158SAPE   H5Y17666   6.938   2.372   7.293  0.2324  0.4052 -1.2819
  158SAPE   C3617667   7.060   2.385   7.468 -0.4991  0.0126 -0.2431
  158SAPE   H6X17668   7.155   2.343   7.508 -1.4607 -0.6576  1.4214
  158SAPE   H6Y17669   6.979   2.346   7.534  0.5393 -0.2814  0.9019
  158SAPE   C3717670   7.043   2.537   7.478 -0.3828  0.5091  0.7831
  158SAPE   H7X17671   7.118   2.588   7.414  1.4540  0.1346  2.5330
  158SAPE   H7Y17672   6.946   2.570   7.437 -1.0544 -3.3776 -1.0892
  158SAPE   C3817673   7.051   2.606   7.616 -0.0810  0.1684 -1.1112
  158SAPE   H8X17674   7.054   2.717   7.610 -1.1033  0.2401 -0.4858
  158SAPE   H8Y17675   7.147   2.578   7.665 -0.4620  1.3504  0.3851
  158SAPE   C3917676   6.928   2.580   7.709  0.1966 -0.1195  0.8099
  158SAPE   H9X17677   6.952   2.634   7.803  1.1611 -2.0030  1.7046
  158SAPE   H9Y17678   6.923   2.470   7.728 -1.5865 -0.6481 -2.0183
  158SAPE  C31017679   6.787   2.626   7.651  0.1652  0.2403 -0.6907
  158SAPE  H10X17680   6.763   2.566   7.561  0.4499 -0.4299 -0.3267
  158SAPE  H10Y17681   6.790   2.733   7.619 -1.8055  0.2048 -1.1044
  158SAPE  C31117682   6.668   2.598   7.751  0.3302  0.2045  0.6019
  158SAPE  H11X17683   6.677   2.673   7.833 -1.0121  0.3798  0.6216
  158SAPE  H11Y17684   6.666   2.495   7.792  0.2764 -0.4367 -0.9459
  158SAPE  C31217685   6.536   2.632   7.679 -0.3420 -0.5729 -0.1836
  158SAPE  H12X17686   6.535   2.553   7.600 -0.8062 -0.1276 -0.6344
  158SAPE  H12Y17687   6.540   2.738   7.648 -0.3703 -0.7525 -0.8153
  158SAPE  C31317688   6.410   2.606   7.760 -0.0446 -1.8088 -0.0670
  158SAPE  H13X17689   6.412   2.501   7.796 -2.3172 -1.0350  2.6934
  158SAPE  H13Y17690   6.330   2.620   7.685 -0.4203 -1.1665  0.4409
  158SAPE  C31417691   6.409   2.708   7.884 -0.0948  0.1201  0.0842
  158SAPE  H14X17692   6.426   2.811   7.847  1.9119  0.1846  1.0666
  158SAPE  H14Y17693   6.494   2.681   7.951 -0.9220 -0.8762  0.7596
  158SAPE  C31517694   6.287   2.702   7.968  0.0798 -0.1741 -0.6472
  158SAPE  H15X17695   6.251   2.601   7.996  1.3916 -0.3651  0.4489
  158SAPE  H15Y17696   6.206   2.747   7.907  0.5820 -0.1826 -1.3185
  158SAPE  C31617697   6.308   2.786   8.101  0.7115  0.3129  0.3686
  158SAPE  H16X17698   6.303   2.889   8.061 -2.1832  0.3899  0.7290
  158SAPE  H16Y17699   6.409   2.763   8.142  0.2725  1.1684  1.9886
  158SAPE  C31717700   6.196   2.757   8.204 -0.7234  0.2544 -0.6189
  158SAPE  H17X17701   6.211   2.657   8.248  1.5781 -0.0638 -1.9508
  158SAPE  H17Y17702   6.089   2.748   8.177 -1.0269 -1.1754  0.8983
  158SAPE  C31817703   6.216   2.865   8.315  0.1191  0.0754 -0.6910
  158SAPE  H18X17704   6.131   2.859   8.385  1.4578 -0.9253  0.9243
  158SAPE  H18Y17705   6.207   2.967   8.273 -1.2904  0.1153 -0.3353
  158SAPE  H18Z17706   6.311   2.856   8.372 -0.9670 -2.8997  0.8495
  159SAPE     N17707   6.723   6.586   6.341  0.6573 -0.3181 -0.4909
  159SAPE   HN117708   6.722   6.502   6.403 -0.9910  0.0585  0.0349
  159SAPE   HN217709   6.724   6.665   6.408  1.8250 -0.8343  0.1419
  159SAPE   HN317710   6.635   6.586   6.286 -0.0817  0.6376  0.6461
  159SAPE   C1217711   6.847   6.593   6.260 -0.2760  0.1686  0.4415
  159SAPE  H12A17712   6.823   6.525   6.175 -1.4380 -0.9864  1.6427
  159SAPE  H12B17713   6.933   6.554   6.317  0.2309  0.3220 -0.1999
  159SAPE   C1117714   6.856   6.739   6.223 -0.4429 -0.6161  0.8960
  159SAPE  H11A17715   6.938   6.754   6.149 -2.9128 -0.2920 -1.9684
  159SAPE  H11B17716   6.881   6.802   6.312  1.7537  0.7140 -0.5668
  159SAPE     P17717   6.736   6.944   6.135  0.3707  0.2898 -0.1881
  159SAPE   O1317718   6.872   6.988   6.098 -0.3549  0.2559 -0.1881
  159SAPE   O1417719   6.613   6.974   6.048  0.0613  0.6553 -0.3096
  159SAPE   O1217720   6.741   6.792   6.157  0.2677 -0.2632 -0.3768
  159SAPE   O1117721   6.696   7.004   6.274 -0.1323 -0.6509  0.9803
  159SAPE    C117722   6.616   6.946   6.373  0.5620 -0.5695  0.3247
  159SAPE    HA17723   6.521   6.908   6.328  0.2449 -2.6686  2.5683
  159SAPE    HB17724   6.655   6.858   6.428 -1.0245 -1.7447 -0.3487
  159SAPE    C217725   6.579   7.057   6.475 -0.1801  0.5975 -0.7553
  159SAPE    HS17726   6.528   7.136   6.416 -2.9712 -0.7634 -0.3544
  159SAPE   O2117727   6.699   7.098   6.558  0.1038  0.8073  0.3691
  159SAPE   C2117728   6.685   7.212   6.613 -0.0712 -0.6002  0.5466
  159SAPE   O2217729   6.604   7.301   6.583 -1.0498  0.3926 -0.3277
  159SAPE   C2217730   6.782   7.227   6.726 -0.0390 -0.3893  0.3741
  159SAPE   H2R17731   6.804   7.125   6.765 -0.4976  0.0628  1.8484
  159SAPE   H2S17732   6.874   7.279   6.693  1.7167 -0.1022  5.0379
  159SAPE    C317733   6.464   7.012   6.573  0.6217  1.2730  0.4700
  159SAPE    HX17734   6.487   6.919   6.629 -1.9194  1.1759  1.4611
  159SAPE    HY17735   6.376   6.986   6.511 -0.3029  3.6328  0.6982
  159SAPE   O3117736   6.411   7.101   6.669 -0.1226  0.3752 -0.1049
  159SAPE   C3117737   6.324   7.193   6.629 -0.2739 -0.9665 -0.5372
  159SAPE   O3217738   6.291   7.222   6.516  0.1017  0.0488  0.2073
  159SAPE   C3217739   6.275   7.273   6.748  0.2121  0.0102  0.2942
  159SAPE   H2X17740   6.197   7.204   6.785  2.6622 -2.4575  1.2576
  159SAPE   H2Y17741   6.233   7.369   6.711  3.5311  2.0171  1.2846
  159SAPE   C2317742   6.727   7.310   6.848  0.6441  0.2914 -0.6216
  159SAPE   H3R17743   6.644   7.250   6.890  0.2960  1.8288  1.0044
  159SAPE   H3S17744   6.693   7.412   6.821  1.3234  1.0415  1.2124
  159SAPE   C2417745   6.830   7.314   6.959  0.0944  0.2374  0.4026
  159SAPE   H4R17746   6.798   7.401   7.021 -0.7580  1.2629 -1.3810
  159SAPE   H4S17747   6.920   7.342   6.901 -1.3456 -0.5108 -2.3836
  159SAPE   C2517748   6.850   7.181   7.033 -0.0162 -0.7667  0.2169
  159SAPE   H5R17749   6.927   7.120   6.984 -0.5809 -0.6092 -0.8770
  159SAPE   C2617750   6.806   7.148   7.157 -0.1699  0.1112 -0.5060
  159SAPE   H6R17751   6.836   7.050   7.194 -0.8664 -1.4348 -3.6651
  159SAPE   C2717752   6.709   7.230   7.241 -0.0984  0.7267 -0.1381
  159SAPE   H7R17753   6.605   7.191   7.252 -0.4090  1.6347  0.2496
  159SAPE   H7S17754   6.690   7.328   7.193 -1.0342  0.6043 -0.0489
  159SAPE   C2817755   6.788   7.254   7.369  1.1660  0.3869  0.2003
  159SAPE   H8R17756   6.884   7.306   7.355  0.2899  1.4703 -2.3473
  159SAPE   C2917757   6.739   7.225   7.490  0.3545  0.1925 -0.0270
  159SAPE   H9R17758   6.804   7.233   7.578 -0.8937  0.1697  0.9106
  159SAPE  C21017759   6.606   7.165   7.533  0.3872 -0.4355 -0.7410
  159SAPE  H10R17760   6.618   7.093   7.617 -0.9094  0.6791  0.4548
  159SAPE  H10S17761   6.554   7.101   7.458  1.9795 -0.9332 -1.4623
  159SAPE  C21117762   6.523   7.284   7.576  0.3082  0.1700 -0.2808
  159SAPE  H11R17763   6.452   7.319   7.499 -1.9597  0.7115  1.9363
  159SAPE  C21217764   6.520   7.343   7.700 -0.0880  0.3371  0.8143
  159SAPE  H12R17765   6.446   7.420   7.727  0.0822  1.1232 -0.7837
  159SAPE  C21317766   6.610   7.302   7.812  0.1573  0.2515 -0.3311
  159SAPE  H13R17767   6.620   7.382   7.889  2.3006  1.1817 -1.4886
  159SAPE  H13S17768   6.716   7.298   7.781  0.4102  1.5465  0.2716
  159SAPE  C21417769   6.581   7.166   7.875 -0.2554 -0.1809 -0.0348
  159SAPE  H14R17770   6.590   7.084   7.803 -0.6832 -0.5254  0.2971
  159SAPE  C21517771   6.540   7.139   7.999  0.3279  0.0733 -0.3651
  159SAPE  H15R17772   6.532   7.033   8.025 -0.5462 -0.3513 -2.1789
  159SAPE  C21617773   6.504   7.240   8.110 -0.1362  0.2958  1.0016
  159SAPE  H16R17774   6.402   7.218   8.148 -0.9385  0.0506 -1.1255
  159SAPE  H16S17775   6.497   7.346   8.076  1.7072 -0.1539 -1.0153
  159SAPE  C21717776   6.593   7.241   8.234  0.0999 -0.2598  0.0452
  159SAPE  H17R17777   6.603   7.136   8.267 -0.6196 -0.5871 -0.7621
  159SAPE  H17S17778   6.558   7.293   8.326  2.0788  0.0498  0.6707
  159SAPE  C21817779   6.739   7.293   8.192  0.5540  0.0151 -0.1870
  159SAPE  H18R17780   6.722   7.399   8.164  1.1640  0.0218 -0.5464
  159SAPE  H18S17781   6.778   7.244   8.100 -2.6720  0.2548 -1.8584
  159SAPE  C21917782   6.830   7.292   8.320  0.1997  0.2308 -0.9911
  159SAPE  H19R17783   6.837   7.189   8.360  2.1522  0.8007  0.2846
  159SAPE  H19S17784   6.777   7.349   8.399 -0.7816 -1.8614 -0.0837
  159SAPE  C22017785   6.970   7.347   8.287 -0.3872  0.4561 -0.1825
  159SAPE  H20R17786   7.033   7.268   8.241 -1.3383 -0.9328  0.8277
  159SAPE  H20S17787   7.022   7.365   8.384 -1.5199  0.4630  0.4458
  159SAPE  H20T17788   6.936   7.436   8.229 -2.3446 -0.9957 -1.4004
  159SAPE   C3317789   6.374   7.312   6.855  0.8070  0.5144  0.1245
  159SAPE   H3X17790   6.460   7.372   6.817 -0.3863  0.5565 -2.7616
  159SAPE   H3Y17791   6.406   7.211   6.889 -0.8724  0.0553  0.3919
  159SAPE   C3417792   6.314   7.394   6.967  0.6720  0.4178  0.3452
  159SAPE   H4X17793   6.243   7.329   7.023 -0.4833  0.5930 -0.8651
  159SAPE   H4Y17794   6.245   7.472   6.927 -1.1600 -1.1674  0.2586
  159SAPE   C3517795   6.420   7.442   7.066 -0.0336 -0.9568 -0.1312
  159SAPE   H5X17796   6.499   7.508   7.024 -1.2326  0.0340 -0.8719
  159SAPE   H5Y17797   6.473   7.357   7.115  0.1435  0.2486  1.8774
  159SAPE   C3617798   6.361   7.531   7.171  0.5781  0.0213 -0.3167
  159SAPE   H6X17799   6.270   7.488   7.217  1.3746 -0.6205  0.7021
  159SAPE   H6Y17800   6.342   7.629   7.123  1.9622 -0.9902 -3.1765
  159SAPE   C3717801   6.434   7.561   7.301  0.6303  0.1691  0.4275
  159SAPE   H7X17802   6.533   7.604   7.275  2.0952 -3.0411  0.1838
  159SAPE   H7Y17803   6.451   7.467   7.358 -0.9226 -2.5108 -3.1066
  159SAPE   C3817804   6.363   7.663   7.386  0.1690  1.3126 -0.9276
  159SAPE   H8X17805   6.259   7.628   7.400  0.5552  0.2073 -0.6652
  159SAPE   H8Y17806   6.350   7.748   7.316 -0.3240  0.1157 -2.3445
  159SAPE   C3917807   6.435   7.696   7.523 -0.1147  0.0777  0.2621
  159SAPE   H9X17808   6.542   7.728   7.517  0.6987 -2.2507  1.1827
  159SAPE   H9Y17809   6.443   7.609   7.591 -1.9656  1.9101  3.0455
  159SAPE  C31017810   6.363   7.807   7.594  0.6634 -0.4235  0.6864
  159SAPE  H10X17811   6.259   7.776   7.619 -0.3789  0.9091 -1.6314
  159SAPE  H10Y17812   6.349   7.883   7.514  1.9930 -0.9430 -0.0822
  159SAPE  C31117813   6.438   7.866   7.709 -0.1289 -0.2940 -0.5788
  159SAPE  H11X17814   6.384   7.953   7.752  1.2612 -0.3007  1.2999
  159SAPE  H11Y17815   6.538   7.903   7.679  0.5652  0.6971  2.5919
  159SAPE  C31217816   6.475   7.763   7.822  0.0358  0.3513  0.2376
  159SAPE  H12X17817   6.544   7.816   7.891  1.2791 -0.3504 -0.4275
  159SAPE  H12Y17818   6.537   7.678   7.787  0.3803  1.1491 -1.1944
  159SAPE  C31317819   6.356   7.696   7.898 -0.0711 -0.3078 -0.0190
  159SAPE  H13X17820   6.291   7.628   7.839 -1.4611  0.2379  0.8439
  159SAPE  H13Y17821   6.294   7.777   7.941  0.2567 -0.1351  0.1339
  159SAPE  C31417822   6.407   7.613   8.023 -0.4099 -0.0253  0.8430
  159SAPE  H14X17823   6.484   7.541   7.988  0.3362  0.6600  1.0456
  159SAPE  H14Y17824   6.315   7.563   8.059 -1.0176  0.9980  0.7609
  159SAPE  C31517825   6.441   7.704   8.144  0.7319  0.3437  0.0453
  159SAPE  H15X17826   6.343   7.740   8.182  0.1851 -2.0988  1.1495
  159SAPE  H15Y17827   6.508   7.789   8.121 -0.4383  1.3351  0.1896
  159SAPE  C31617828   6.498   7.635   8.266 -0.2396  0.1317 -0.0841
  159SAPE  H16X17829   6.600   7.593   8.256 -0.2683  0.4538 -1.9769
  159SAPE  H16Y17830   6.418   7.564   8.298  0.0827  0.4044  1.4090
  159SAPE  C31717831   6.505   7.735   8.386 -0.3327  0.3553 -0.5204
  159SAPE  H17X17832   6.403   7.776   8.403  0.4684  1.9196  0.6686
  159SAPE  H17Y17833   6.580   7.815   8.366  0.6743 -0.1631  1.0149
  159SAPE  C31817834   6.538   7.666   8.517 -0.0105  0.3029 -0.0751
  159SAPE  H18X17835   6.527   7.733   8.605  0.0192 -1.8517  1.6477
  159SAPE  H18Y17836   6.648   7.646   8.515 -0.0896 -0.1901  0.3048
  159SAPE  H18Z17837   6.485   7.569   8.525  2.1338 -0.8628  0.9551
  160SAPE     N17838   6.699   5.761   6.275  0.4265  0.2351  0.1962
  160SAPE   HN117839   6.601   5.793   6.257  0.2854  0.8799  1.8878
  160SAPE   HN217840   6.720   5.691   6.201 -2.4737 -1.0880  0.4827
  160SAPE   HN317841   6.698   5.714   6.368  0.8974 -0.8253 -0.3190
  160SAPE   C1217842   6.793   5.876   6.252  0.3319 -0.5281  0.3585
  160SAPE  H12A17843   6.781   5.940   6.342 -0.6444  1.3302 -0.9994
  160SAPE  H12B17844   6.753   5.930   6.163 -0.6709 -1.7275  0.0551
  160SAPE   C1117845   6.943   5.832   6.236 -1.2369 -0.0380 -0.1583
  160SAPE  H11A17846   7.006   5.920   6.261 -0.2631 -1.0618  1.1331
  160SAPE  H11B17847   6.956   5.811   6.127 -0.0970  1.0230 -0.2573
  160SAPE     P17848   7.108   5.672   6.329  0.2707  0.1131  0.1749
  160SAPE   O1317849   7.150   5.644   6.194 -0.2352 -0.1016  0.0496
  160SAPE   O1417850   7.187   5.776   6.404  0.4111  0.8655 -0.1999
  160SAPE   O1217851   6.962   5.717   6.322  0.8679 -0.3073  0.5962
  160SAPE   O1117852   7.098   5.534   6.405 -0.0776 -0.3281  0.0218
  160SAPE    C117853   6.996   5.495   6.493  0.1631  0.1438  0.6499
  160SAPE    HA17854   6.897   5.529   6.455 -0.4876 -1.7685  0.5272
  160SAPE    HB17855   6.993   5.384   6.506 -0.7196 -0.0545 -0.9483
  160SAPE    C217856   7.008   5.575   6.629 -0.5394 -0.5831  0.2577
  160SAPE    HS17857   6.997   5.680   6.596  1.0338 -1.2115 -2.6365
  160SAPE   O2117858   7.140   5.541   6.686  0.3056 -0.3664  0.7692
  160SAPE   C2117859   7.190   5.642   6.756 -0.1319 -0.1232  0.0111
  160SAPE   O2217860   7.147   5.758   6.748 -0.4315  0.6319  0.3916
  160SAPE   C2217861   7.313   5.600   6.829  0.2090  0.1241  0.4480
  160SAPE   H2R17862   7.351   5.515   6.767 -1.7642 -0.3497 -0.1863
  160SAPE   H2S17863   7.384   5.685   6.826  1.3903 -0.8302  0.6753
  160SAPE    C317864   6.903   5.529   6.742 -0.1301  0.1146 -0.6110
  160SAPE    HX17865   6.945   5.435   6.783  2.7509  1.2472 -0.7645
  160SAPE    HY17866   6.801   5.513   6.699 -0.2974  1.8434 -0.9333
  160SAPE   O3117867   6.888   5.617   6.853  0.6966  0.2734 -0.2350
  160SAPE   C3117868   6.786   5.705   6.845  0.2553  0.3765 -0.0867
  160SAPE   O3217869   6.705   5.706   6.756  0.2194 -0.2633  0.2688
  160SAPE   C3217870   6.777   5.794   6.970 -0.1874 -0.0858 -0.3459
  160SAPE   H2X17871   6.798   5.749   7.070 -1.8028  0.1213  0.1073
  160SAPE   H2Y17872   6.671   5.827   6.979  0.0883  0.3436  1.9902
  160SAPE   C2317873   7.277   5.550   6.974 -0.3325 -0.9817 -0.1881
  160SAPE   H3R17874   7.350   5.477   7.015 -0.6911 -0.1139  2.1220
  160SAPE   H3S17875   7.184   5.488   6.972 -1.1079  0.0598  1.4207
  160SAPE   C2417876   7.239   5.673   7.066 -0.4835 -0.2975  0.1999
  160SAPE   H4R17877   7.177   5.750   7.015  1.1209  1.0902  0.2791
  160SAPE   H4S17878   7.334   5.726   7.088 -0.2221 -1.0597  0.9591
  160SAPE   C2517879   7.173   5.616   7.189 -0.1398 -0.3026  0.0360
  160SAPE   H5R17880   7.082   5.564   7.154 -1.3646  2.0782 -0.5131
  160SAPE   C2617881   7.206   5.626   7.320  0.6018 -0.1634 -0.4154
  160SAPE   H6R17882   7.147   5.578   7.400  2.2816  1.2324  1.7992
  160SAPE   C2717883   7.324   5.710   7.372 -0.2687  0.3165 -0.3116
  160SAPE   H7R17884   7.280   5.792   7.433  0.4008  1.1982 -0.9863
  160SAPE   H7S17885   7.382   5.764   7.294 -0.4951  0.4051 -0.4220
  160SAPE   C2817886   7.434   5.641   7.448 -0.2342 -0.1692 -0.5205
  160SAPE   H8R17887   7.476   5.553   7.398 -1.1255 -0.6478 -0.4334
  160SAPE   C2917888   7.479   5.680   7.567  0.2048  0.6250  0.8217
  160SAPE   H9R17889   7.565   5.626   7.611  1.0821  0.0720 -1.4580
  160SAPE  C21017890   7.431   5.805   7.644  0.1238  0.1459 -0.4740
  160SAPE  H10R17891   7.399   5.879   7.567  2.6723  0.3942 -1.3865
  160SAPE  H10S17892   7.522   5.848   7.691 -0.6312  1.5393 -0.2471
  160SAPE  C21117893   7.322   5.769   7.748  1.1375  0.2225  0.3017
  160SAPE  H11R17894   7.283   5.669   7.726  3.3246 -0.3657 -1.3162
  160SAPE  C21217895   7.277   5.847   7.844 -0.2987  0.0861  0.5039
  160SAPE  H12R17896   7.185   5.817   7.896  0.4907 -0.9042  1.3740
  160SAPE  C21317897   7.329   5.982   7.881 -0.1003  0.8425 -0.5977
  160SAPE  H13R17898   7.355   6.046   7.794  0.9188  1.0566 -0.1523
  160SAPE  H13S17899   7.433   5.972   7.920  0.6375 -0.6395 -2.7532
  160SAPE  C21417900   7.249   6.064   7.985  0.1198  0.0881  0.7058
  160SAPE  H14R17901   7.190   6.140   7.931  0.5665 -1.7488 -2.6229
  160SAPE  C21517902   7.259   6.049   8.115  0.3807 -0.6663  0.0596
  160SAPE  H15R17903   7.192   6.113   8.173 -0.9138 -0.7527 -1.2903
  160SAPE  C21617904   7.346   5.964   8.196 -0.0010  0.3692  0.6933
  160SAPE  H16R17905   7.388   6.016   8.284  1.2374 -0.5750  0.6863
  160SAPE  H16S17906   7.428   5.927   8.131  0.1619  1.7062  0.1165
  160SAPE  C21717907   7.270   5.844   8.259 -0.4331  0.1883 -0.4568
  160SAPE  H17R17908   7.236   5.779   8.175 -1.5041  0.3822 -0.1856
  160SAPE  H17S17909   7.180   5.890   8.304 -0.4617  0.8843 -1.1926
  160SAPE  C21817910   7.341   5.784   8.375  0.4415  0.2252  0.4454
  160SAPE  H18R17911   7.363   5.856   8.457  1.4015 -1.0005  1.3055
  160SAPE  H18S17912   7.434   5.738   8.336 -1.0472 -2.0126 -0.6710
  160SAPE  C21917913   7.269   5.661   8.435  0.0992  0.7909 -0.1613
  160SAPE  H19R17914   7.283   5.575   8.365  1.7167  0.6342  0.3067
  160SAPE  H19S17915   7.162   5.685   8.451  0.1231  1.1443 -0.5313
  160SAPE  C22017916   7.339   5.612   8.562 -0.5520 -1.1731 -0.3071
  160SAPE  H20R17917   7.449   5.610   8.547 -0.1227  0.3324  2.0961
  160SAPE  H20S17918   7.314   5.508   8.592 -1.6555 -0.3800  1.7316
  160SAPE  H20T17919   7.323   5.686   8.644  0.5014  0.5953 -1.6097
  160SAPE   C3317920   6.859   5.929   6.959  0.5107  0.1414  0.0064
  160SAPE   H3X17921   6.968   5.913   6.942  0.1758  0.9994 -3.8537
  160SAPE   H3Y17922   6.850   5.999   7.045 -2.9991  0.5715 -0.5401
  160SAPE   C3417923   6.815   6.008   6.833  0.8930 -0.4785 -0.0942
  160SAPE   H4X17924   6.760   5.946   6.759 -0.1546  0.6414 -0.2692
  160SAPE   H4Y17925   6.902   6.061   6.788 -1.9360  3.2574 -1.7493
  160SAPE   C3517926   6.706   6.111   6.873 -0.9983 -0.0758 -0.3675
  160SAPE   H5X17927   6.646   6.068   6.956  0.7195  0.6731  1.3265
  160SAPE   H5Y17928   6.638   6.134   6.788 -0.2085  0.0412 -0.9839
  160SAPE   C3617929   6.763   6.248   6.923 -0.5931 -0.5803 -0.2555
  160SAPE   H6X17930   6.833   6.279   6.843 -1.4500  0.1064 -0.7551
  160SAPE   H6Y17931   6.836   6.231   7.006  0.7703 -1.9582 -1.6573
  160SAPE   C3717932   6.660   6.362   6.951  0.1804  0.5040 -0.3972
  160SAPE   H7X17933   6.612   6.372   6.852 -1.3059 -0.3635  0.1958
  160SAPE   H7Y17934   6.719   6.453   6.977 -0.0280  1.2112 -2.2819
  160SAPE   C3817935   6.556   6.341   7.059 -0.9848  0.1373 -1.2084
  160SAPE   H8X17936   6.504   6.245   7.038 -0.3061  0.0250 -2.4852
  160SAPE   H8Y17937   6.487   6.428   7.066  0.8662  1.5140  3.1020
  160SAPE   C3917938   6.604   6.316   7.203 -0.4224 -0.2857  0.0572
  160SAPE   H9X17939   6.676   6.231   7.200 -1.1368 -0.8758 -1.0479
  160SAPE   H9Y17940   6.520   6.282   7.267  1.4995 -1.2871  2.2219
  160SAPE  C31017941   6.655   6.437   7.278  0.3413  0.2806  0.2952
  160SAPE  H10X17942   6.587   6.524   7.263 -2.0852 -1.6855 -1.0517
  160SAPE  H10Y17943   6.759   6.457   7.247  0.3076 -1.6121 -1.2930
  160SAPE  C31117944   6.663   6.414   7.429  0.0793  1.2574 -1.0170
  160SAPE  H11X17945   6.721   6.501   7.468  4.4163 -1.2313 -1.3128
  160SAPE  H11Y17946   6.734   6.331   7.449 -0.2865  0.6533 -2.1506
  160SAPE  C31217947   6.534   6.399   7.516 -0.5191  0.0247 -0.0070
  160SAPE  H12X17948   6.482   6.302   7.498  2.4281 -1.3885 -1.6477
  160SAPE  H12Y17949   6.470   6.485   7.488  2.6729  2.0853 -1.5936
  160SAPE  C31317950   6.548   6.432   7.669 -0.0319 -0.1085  0.1950
  160SAPE  H13X17951   6.446   6.426   7.712 -1.0870  3.3387 -1.4371
  160SAPE  H13Y17952   6.582   6.535   7.690 -2.6511  1.1448 -1.2918
  160SAPE  C31417953   6.643   6.326   7.737 -0.7468  0.3421 -0.0011
  160SAPE  H14X17954   6.750   6.323   7.709 -0.6097 -1.0939  0.5977
  160SAPE  H14Y17955   6.607   6.228   7.700  1.3045  0.6007 -2.9971
  160SAPE  C31517956   6.631   6.339   7.894  0.7977  0.3080 -0.1771
  160SAPE  H15X17957   6.665   6.441   7.925 -0.2953 -0.0392  2.4758
  160SAPE  H15Y17958   6.697   6.269   7.951  0.4093 -0.1025 -0.2264
  160SAPE  C31617959   6.487   6.328   7.947  0.1809  0.3865  0.1114
  160SAPE  H16X17960   6.434   6.417   7.909 -0.5730  0.0681  0.3904
  160SAPE  H16Y17961   6.499   6.335   8.057 -1.6785 -0.2085  0.3925
  160SAPE  C31717962   6.421   6.191   7.914 -0.2216  0.0787  0.6603
  160SAPE  H17X17963   6.485   6.100   7.918 -0.6145 -0.2673 -0.4030
  160SAPE  H17Y17964   6.402   6.201   7.805  0.0488  1.0223  0.6981
  160SAPE  C31817965   6.283   6.177   7.981  0.2153 -0.4295 -0.4415
  160SAPE  H18X17966   6.248   6.282   7.988  0.5491 -0.3380 -0.0443
  160SAPE  H18Y17967   6.303   6.140   8.085 -1.6774  0.8085  0.4104
  160SAPE  H18Z17968   6.228   6.103   7.920  3.5916 -3.5755 -0.0540
  161SOPE     N17969   4.433   3.004  10.774  0.2442 -0.4271 -0.1776
  161SOPE   HN117970   4.426   2.965  10.870 -0.3069  0.1554  0.0256
  161SOPE   HN217971   4.494   3.088  10.781 -1.3037  0.7683 -0.5654
  161SOPE   HN317972   4.344   3.047  10.743  1.1662 -0.1192 -2.6405
  161SOPE   C1217973   4.492   2.905  10.680 -0.0971 -0.2420  1.3741
  161SOPE  H12A17974   4.576   2.854  10.733  1.1730  1.0053  0.6304
  161SOPE  H12B17975   4.528   2.965  10.594 -1.2258 -0.3496  0.8118
  161SOPE   C1117976   4.387   2.804  10.625 -0.5763  0.0335 -0.6497
  161SOPE  H11A17977   4.432   2.750  10.539  0.4186 -1.0036  0.4887
  161SOPE  H11B17978   4.301   2.859  10.580  0.4549 -1.4534 -4.8908
  161SOPE     P17979   4.221   2.625  10.708  0.0178 -0.2862  0.0250
  161SOPE   O1317980   4.110   2.712  10.684  0.8786  0.7551  0.5401
  161SOPE   O1417981   4.205   2.538  10.825  0.7165 -0.2782  0.2625
  161SOPE   O1217982   4.349   2.716  10.726  0.6576 -0.2669 -0.3512
  161SOPE   O1117983   4.245   2.532  10.585  0.1742  0.4506 -0.1765
  161SOPE    C117984   4.345   2.435  10.589 -0.5903  0.5827 -0.9616
  161SOPE    HA17985   4.303   2.332  10.591  1.2732 -0.2287  0.3265
  161SOPE    HB17986   4.412   2.437  10.678 -2.2170 -0.0111  0.3373
  161SOPE    C217987   4.438   2.449  10.464 -0.0916  0.3561  0.2193
  161SOPE    HS17988   4.478   2.552  10.455  0.2029  0.4999  2.5749
  161SOPE   O2117989   4.355   2.418  10.347 -0.2255  0.0825 -0.8275
  161SOPE   C2117990   4.380   2.503  10.241 -0.5098  0.7195 -0.4571
  161SOPE   O2217991   4.454   2.602  10.243 -0.3403 -0.3274  0.0760
  161SOPE   C2217992   4.308   2.449  10.117  0.8372  0.1532 -0.4178
  161SOPE   H2R17993   4.208   2.497  10.108  0.5196 -0.5179 -0.5127
  161SOPE   H2S17994   4.283   2.342  10.136 -1.9573  0.4357 -1.9634
  161SOPE    C317995   4.549   2.346  10.474 -0.1585  0.8276 -0.5067
  161SOPE    HX17996   4.507   2.244  10.461  1.1370  0.0763  0.8011
  161SOPE    HY17997   4.598   2.342  10.574  1.1695 -0.2476 -1.1621
  161SOPE   O3117998   4.650   2.358  10.367  0.4323 -0.2015 -0.0066
  161SOPE   C3117999   4.735   2.460  10.381 -1.0763 -0.4361 -0.1379
  161SOPE   O3218000   4.739   2.549  10.465 -0.0522  0.2774 -0.0825
  161SOPE   C3218001   4.832   2.449  10.261 -0.7430  1.1461 -0.1821
  161SOPE   H2X18002   4.891   2.358  10.283 -0.0886  1.3027 -1.2319
  161SOPE   H2Y18003   4.903   2.533  10.280  1.3559 -0.6921  0.4942
  161SOPE   C2318004   4.389   2.450   9.982 -0.0992 -0.4842  0.5563
  161SOPE   H3R18005   4.371   2.356   9.925  2.3101 -1.7059  1.6452
  161SOPE   H3S18006   4.497   2.466  10.005  0.3674  0.1310 -1.7504
  161SOPE   C2418007   4.345   2.568   9.888  0.2607 -0.6614 -0.7570
  161SOPE   H4R18008   4.234   2.578   9.884  0.3620  0.4301 -1.0833
  161SOPE   H4S18009   4.376   2.662   9.940  2.1166  0.0506 -2.9859
  161SOPE   C2518010   4.405   2.545   9.754  0.0732 -0.3895  0.4010
  161SOPE   H5R18011   4.515   2.535   9.753  0.0552 -0.5942  0.4151
  161SOPE   H5S18012   4.359   2.449   9.722  1.6929 -1.2111  0.4736
  161SOPE   C2618013   4.364   2.654   9.648 -0.1567 -0.9883  0.1776
  161SOPE   H6R18014   4.258   2.629   9.628 -0.5264  1.1756 -0.7867
  161SOPE   H6S18015   4.357   2.757   9.688 -0.5959 -1.3889  1.1759
  161SOPE   C2718016   4.451   2.644   9.526 -0.1998 -0.1705 -0.1605
  161SOPE   H7R18017   4.554   2.682   9.538  0.9293 -2.5843 -1.5546
  161SOPE   H7S18018   4.462   2.537   9.497  0.2695 -0.9355  2.5436
  161SOPE   C2818019   4.381   2.717   9.404 -0.1978  0.0715  0.7173
  161SOPE   H8R18020   4.273   2.690   9.415  0.1941 -0.9274  2.4829
  161SOPE   H8S18021   4.385   2.827   9.421 -1.5322  0.5352 -1.5580
  161SOPE   C2918022   4.425   2.680   9.263 -0.0971 -0.3017 -0.1555
  161SOPE   H9118023   4.528   2.645   9.244  0.3942 -0.6413  2.7042
  161SOPE  C21018024   4.348   2.691   9.157  0.6921  0.1848  0.8212
  161SOPE  H10118025   4.390   2.675   9.057  1.3060 -0.6879  1.2083
  161SOPE  C21118026   4.206   2.742   9.161  0.4032  0.7026  0.1658
  161SOPE  H11R18027   4.193   2.849   9.185 -0.5721  0.2804  1.6576
  161SOPE  H11S18028   4.158   2.687   9.245 -0.6246  2.1172  0.5461
  161SOPE  C21218029   4.126   2.706   9.035 -0.4811  0.6781  0.2910
  161SOPE  H12R18030   4.018   2.721   9.054 -0.5074 -1.0989  1.8664
  161SOPE  H12S18031   4.137   2.599   9.006 -0.3761 -0.0266  2.7068
  161SOPE  C21318032   4.162   2.790   8.913  0.0038  0.2927  0.5307
  161SOPE  H13R18033   4.269   2.789   8.882 -0.3755  2.8961 -1.2060
  161SOPE  H13S18034   4.160   2.898   8.941  1.2164  1.0562 -1.9655
  161SOPE  C21418035   4.069   2.747   8.796 -0.8643 -0.6058  0.2655
  161SOPE  H14R18036   3.969   2.793   8.813 -0.7052  0.6416 -1.8267
  161SOPE  H14S18037   4.067   2.637   8.815  2.2541 -0.5701  1.4417
  161SOPE  C21518038   4.119   2.788   8.664 -0.2330 -0.0636 -0.3533
  161SOPE  H15R18039   4.047   2.762   8.584 -0.5864  1.2802 -0.4970
  161SOPE  H15S18040   4.218   2.741   8.646  0.2787  0.8006  0.1272
  161SOPE  C21618041   4.137   2.940   8.647 -0.0119  0.1560 -0.0046
  161SOPE  H16R18042   4.231   2.972   8.696 -0.0470  0.3058 -0.0344
  161SOPE  H16S18043   4.059   2.988   8.710  1.4857  0.8237  1.4214
  161SOPE  C21718044   4.126   2.988   8.501 -0.3289 -0.0145  0.0459
  161SOPE  H17R18045   4.105   3.097   8.509 -0.3993  0.1576 -1.8641
  161SOPE  H17S18046   4.044   2.931   8.453  0.6609 -1.2070 -0.2799
  161SOPE  C21818047   4.243   2.944   8.415  0.0561 -0.3004  0.1611
  161SOPE  H18R18048   4.338   2.960   8.470 -0.3328  1.1492  0.4573
  161SOPE  H18S18049   4.264   3.004   8.324 -2.6493  0.3058 -0.1321
  161SOPE  H18T18050   4.228   2.837   8.389 -3.3754  0.9119 -3.8629
  161SOPE   C3318051   4.769   2.465  10.130 -0.8322 -0.4055  0.6132
  161SOPE   H3X18052   4.742   2.573  10.124 -1.0481 -0.4977 -0.1663
  161SOPE   H3Y18053   4.676   2.404  10.122 -0.3533 -1.3000  1.7106
  161SOPE   C3418054   4.853   2.441  10.001  0.4219  0.1057  0.4110
  161SOPE   H4X18055   4.881   2.335   9.984 -0.0745 -0.1330  1.0508
  161SOPE   H4Y18056   4.942   2.507  10.001 -0.9685  2.0930 -0.2530
  161SOPE   C3518057   4.769   2.469   9.869 -0.6912  0.0751 -0.2609
  161SOPE   H5X18058   4.736   2.574   9.853  2.0325  0.6329 -3.4303
  161SOPE   H5Y18059   4.683   2.399   9.874  0.4786 -1.3417  0.6387
  161SOPE   C3618060   4.846   2.447   9.740  0.3035 -0.0999  0.0463
  161SOPE   H6X18061   4.894   2.350   9.766  1.4870  0.8387  1.5801
  161SOPE   H6Y18062   4.925   2.524   9.731  1.2690 -1.0448  0.2598
  161SOPE   C3718063   4.762   2.447   9.605 -0.8914 -0.1192 -0.1649
  161SOPE   H7X18064   4.683   2.525   9.608 -2.3583 -1.5588 -0.3181
  161SOPE   H7Y18065   4.707   2.351   9.592  0.2670 -1.0505  1.4032
  161SOPE   C3818066   4.837   2.460   9.475  0.0068  0.5220 -0.5907
  161SOPE   H8X18067   4.913   2.380   9.461 -1.0035 -1.2738  3.1274
  161SOPE   H8Y18068   4.894   2.555   9.486  3.3216 -1.3071 -0.4961
  161SOPE   C3918069   4.753   2.477   9.354  0.0867  0.1431  0.1495
  161SOPE   H9X18070   4.681   2.560   9.372  0.9619  1.0892 -0.6071
  161SOPE   H9Y18071   4.701   2.387   9.315  0.0242  1.1892 -2.3223
  161SOPE  C31018072   4.836   2.514   9.230 -0.1586  0.7360 -0.3980
  161SOPE  H10X18073   4.921   2.445   9.212  0.2997  1.1749  0.0509
  161SOPE  H10Y18074   4.869   2.618   9.252  0.2609  0.6464 -0.5988
  161SOPE  C31118075   4.756   2.514   9.102  0.0146  0.1540  0.3362
  161SOPE  H11X18076   4.688   2.602   9.107  0.9831  1.0170 -0.9134
  161SOPE  H11Y18077   4.695   2.422   9.094 -1.5046  1.1386  0.0994
  161SOPE  C31218078   4.842   2.516   8.977 -0.0669 -0.0508  0.5756
  161SOPE  H12X18079   4.918   2.435   8.979 -0.6681 -0.6323  0.2505
  161SOPE  H12Y18080   4.910   2.604   8.974  3.2482 -2.4252 -2.4815
  161SOPE  C31318081   4.768   2.508   8.840  0.2832  0.7617 -0.1582
  161SOPE  H13X18082   4.685   2.438   8.863  1.3587 -0.0961  1.2549
  161SOPE  H13Y18083   4.826   2.450   8.765  1.7011  0.3016  1.2430
  161SOPE  C31418084   4.718   2.636   8.772 -0.2340 -0.6514  0.9081
  161SOPE  H14X18085   4.673   2.608   8.674 -0.0984  1.1487  0.2861
  161SOPE  H14Y18086   4.801   2.702   8.737 -0.9130 -0.2069  0.0888
  161SOPE  C31518087   4.635   2.730   8.860 -0.5992 -0.0821 -0.0833
  161SOPE  H15X18088   4.703   2.765   8.941  0.4831 -0.9884 -0.5701
  161SOPE  H15Y18089   4.546   2.687   8.910 -0.4933 -0.4228 -0.1886
  161SOPE  C31618090   4.581   2.850   8.780 -0.0528  0.8904 -0.3019
  161SOPE  H16X18091   4.489   2.822   8.725  0.6155 -0.9090 -0.5763
  161SOPE  H16Y18092   4.649   2.875   8.695 -0.2855 -1.8966 -1.4157
  161SOPE  C31718093   4.549   2.983   8.853 -0.5454  0.2990 -0.5253
  161SOPE  H17X18094   4.636   3.009   8.918  0.9019  0.0744 -2.3092
  161SOPE  H17Y18095   4.463   2.966   8.921  0.4419 -1.0263  0.4433
  161SOPE  C31818096   4.525   3.100   8.766 -0.1775  0.1260  0.8912
  161SOPE  H18X18097   4.447   3.074   8.692  0.0585 -2.1926  1.3739
  161SOPE  H18Y18098   4.618   3.115   8.707 -0.5678 -1.1087 -0.0876
  161SOPE  H18Z18099   4.503   3.201   8.807  1.0520  1.0033 -0.4836
  162SOPE     N18100   2.149   1.479  11.051 -0.3667 -0.4362 -0.2514
  162SOPE   HN118101   2.110   1.385  11.029 -1.1284 -0.0697 -0.4811
  162SOPE   HN218102   2.072   1.548  11.063  1.8742  2.6949 -2.3890
  162SOPE   HN318103   2.204   1.503  10.967 -1.5132  1.7541 -0.4274
  162SOPE   C1218104   2.238   1.491  11.174 -0.3101 -0.3060  0.9833
  162SOPE  H12A18105   2.183   1.481  11.270  1.4538 -2.3339  1.8555
  162SOPE  H12B18106   2.284   1.592  11.174  1.9117 -1.2636  1.0160
  162SOPE   C1118107   2.349   1.383  11.161 -0.1389 -0.2120  0.1158
  162SOPE  H11A18108   2.312   1.286  11.121  0.1460  0.7404 -2.7014
  162SOPE  H11B18109   2.396   1.373  11.262 -0.3210 -0.0146  0.2195
  162SOPE     P18110   2.579   1.361  11.029  0.5764 -0.6776  0.2087
  162SOPE   O1318111   2.630   1.288  11.143  0.5187 -0.0318  0.2539
  162SOPE   O1418112   2.666   1.468  10.965  0.0932  0.1205  0.1125
  162SOPE   O1218113   2.447   1.437  11.066  0.2697 -0.2110 -0.0015
  162SOPE   O1118114   2.536   1.260  10.915  0.2228  0.3399  0.2428
  162SOPE    C118115   2.461   1.292  10.798 -0.3154 -1.0271  0.1828
  162SOPE    HA18116   2.399   1.383  10.814 -0.8796 -0.9469 -2.0420
  162SOPE    HB18117   2.379   1.219  10.781 -2.2170  0.2381  3.1046
  162SOPE    C218118   2.555   1.320  10.677 -0.2008 -0.6358  0.2023
  162SOPE    HS18119   2.612   1.414  10.693 -0.6469 -0.4303  0.6033
  162SOPE   O2118120   2.472   1.336  10.556  0.1274  0.6921 -0.5303
  162SOPE   C2118121   2.408   1.449  10.555 -0.3278  0.1801 -0.4299
  162SOPE   O2218122   2.427   1.554  10.613 -0.6133  0.2682  0.2500
  162SOPE   C2218123   2.288   1.439  10.455 -0.1034 -0.5228  0.5140
  162SOPE   H2R18124   2.281   1.543  10.417  0.2405 -0.0667  1.6560
  162SOPE   H2S18125   2.197   1.416  10.515 -1.6722 -0.1883 -1.6307
  162SOPE    C318126   2.658   1.213  10.657 -0.0492  0.5480 -0.3617
  162SOPE    HX18127   2.611   1.112  10.664  0.1328  0.4068 -1.0340
  162SOPE    HY18128   2.724   1.234  10.744 -2.4409  2.6381  1.0842
  162SOPE   O3118129   2.732   1.230  10.533  0.1813 -0.3498 -0.3047
  162SOPE   C3118130   2.803   1.119  10.497  0.2253 -0.1120 -0.8355
  162SOPE   O3218131   2.810   1.019  10.563  0.0711  0.1179 -0.2986
  162SOPE   C3218132   2.877   1.147  10.361  0.6568 -0.2258 -0.8220
  162SOPE   H2X18133   2.985   1.142  10.388  1.3817 -2.5212 -3.6639
  162SOPE   H2Y18134   2.843   1.244  10.320  1.4316  0.4186  0.0119
  162SOPE   C2318135   2.300   1.353  10.332 -0.5693 -0.1869  0.4663
  162SOPE   H3R18136   2.296   1.245  10.360  0.8359 -0.0765  1.1830
  162SOPE   H3S18137   2.390   1.369  10.269 -1.9470 -0.1008 -1.5562
  162SOPE   C2418138   2.180   1.375  10.232 -0.2072 -0.1219 -0.2653
  162SOPE   H4R18139   2.085   1.361  10.288 -0.3915  3.0917  0.3852
  162SOPE   H4S18140   2.177   1.474  10.182 -2.0179  0.4490  0.8949
  162SOPE   C2518141   2.187   1.273  10.121 -0.0201  0.0816 -0.1291
  162SOPE   H5R18142   2.285   1.276  10.070  0.5960  1.2493  1.0867
  162SOPE   H5S18143   2.168   1.174  10.167  1.4417  1.0383  2.7877
  162SOPE   C2618144   2.082   1.300  10.015 -0.1529  0.8773 -0.8629
  162SOPE   H6R18145   2.057   1.204   9.964  0.1423  0.2773  0.0917
  162SOPE   H6S18146   1.984   1.332  10.057 -0.0019  0.4261 -0.1532
  162SOPE   C2718147   2.122   1.390   9.896 -0.5098 -0.5522 -0.4104
  162SOPE   H7R18148   2.135   1.493   9.934  1.3683 -1.1497  0.7049
  162SOPE   H7S18149   2.225   1.367   9.860 -0.4607  1.9951 -2.1608
  162SOPE   C2818150   2.027   1.385   9.777  0.3067  0.4444  0.9298
  162SOPE   H8R18151   2.039   1.287   9.725 -1.6363  1.0180 -0.7277
  162SOPE   H8S18152   1.923   1.385   9.816 -0.1657 -2.0582 -0.1295
  162SOPE   C2918153   2.035   1.493   9.669 -1.1015 -0.2023 -0.5089
  162SOPE   H9118154   1.999   1.589   9.711  1.3709 -0.9132  3.8069
  162SOPE  C21018155   2.088   1.478   9.552  0.1220  0.9325 -0.0379
  162SOPE  H10118156   2.079   1.560   9.478  1.8483  1.1732 -0.0085
  162SOPE  C21118157   2.144   1.349   9.494 -0.2664 -0.3783 -0.2715
  162SOPE  H11R18158   2.052   1.294   9.463 -0.8997  1.7226 -2.4745
  162SOPE  H11S18159   2.209   1.289   9.560 -1.8022 -1.3125  0.4439
  162SOPE  C21218160   2.213   1.401   9.363 -0.0899  0.6807  0.0234
  162SOPE  H12R18161   2.267   1.314   9.321 -0.1313 -0.2649  1.8200
  162SOPE  H12S18162   2.290   1.478   9.383  0.9465 -0.0245 -1.1454
  162SOPE  C21318163   2.112   1.437   9.248 -0.1063 -0.6855 -0.0754
  162SOPE  H13R18164   2.054   1.525   9.280 -2.4196 -2.3360  0.5218
  162SOPE  H13S18165   2.036   1.357   9.239  0.0564 -0.8340 -0.1425
  162SOPE  C21418166   2.171   1.472   9.107 -0.2642 -0.4072 -0.2309
  162SOPE  H14R18167   2.228   1.384   9.070  0.2480  0.2959 -1.1425
  162SOPE  H14S18168   2.241   1.558   9.115 -1.6906  1.0662 -2.4660
  162SOPE  C21518169   2.060   1.504   9.011 -0.0842  0.6784 -0.1480
  162SOPE  H15R18170   2.096   1.577   8.935 -1.2366  0.4243 -0.9614
  162SOPE  H15S18171   1.977   1.551   9.068  1.1101  0.8021  1.5564
  162SOPE  C21618172   2.009   1.373   8.953 -0.7665  0.2536  0.2198
  162SOPE  H16R18173   1.975   1.324   9.046  1.8865  0.4254  1.3596
  162SOPE  H16S18174   2.089   1.308   8.911  0.0116  0.3966  1.4431
  162SOPE  C21718175   1.895   1.378   8.856  0.3238  0.6854  0.2304
  162SOPE  H17R18176   1.865   1.484   8.870 -2.1164  0.2283 -1.0362
  162SOPE  H17S18177   1.806   1.316   8.882 -0.3099  1.2430 -0.5520
  162SOPE  C21818178   1.932   1.361   8.709 -0.6626  0.1445 -0.1448
  162SOPE  H18R18179   1.947   1.251   8.698  0.3323 -0.1863  3.2754
  162SOPE  H18S18180   2.032   1.408   8.694  0.1486  0.0691  3.8192
  162SOPE  H18T18181   1.854   1.398   8.640 -0.5657 -1.4677 -1.1799
  162SOPE   C3318182   2.866   1.027  10.264 -0.5042 -0.2710 -0.6674
  162SOPE   H3X18183   2.766   1.024  10.216 -1.7674  3.2196  1.3655
  162SOPE   H3Y18184   2.878   0.936  10.328 -3.1730 -0.5680 -0.4874
  162SOPE   C3418185   2.964   1.043  10.148 -0.4546  0.2143  0.5865
  162SOPE   H4X18186   2.967   0.941  10.104 -3.1134  0.2667  0.1536
  162SOPE   H4Y18187   3.058   1.070  10.201 -0.6288  1.2743  0.3817
  162SOPE   C3518188   2.922   1.148  10.051  1.0090  0.9415  0.4766
  162SOPE   H5X18189   3.006   1.169   9.981  0.6825 -0.8776 -0.5226
  162SOPE   H5Y18190   2.870   1.238  10.090 -1.1195 -0.5937  1.3576
  162SOPE   C3618191   2.835   1.068   9.945 -0.4463 -0.1140 -0.1611
  162SOPE   H6X18192   2.746   1.033  10.002  0.6108  0.6102  2.0521
  162SOPE   H6Y18193   2.905   0.987   9.915  0.6820 -0.3543  2.8115
  162SOPE   C3718194   2.807   1.146   9.819 -0.2701 -0.7335 -0.8779
  162SOPE   H7X18195   2.912   1.171   9.791 -0.3349 -1.6493 -2.0396
  162SOPE   H7Y18196   2.746   1.236   9.839 -1.0259 -1.8418  2.2864
  162SOPE   C3818197   2.742   1.056   9.712 -0.1413 -0.4990 -0.1869
  162SOPE   H8X18198   2.656   0.999   9.754  0.8552 -2.7063 -1.0184
  162SOPE   H8Y18199   2.812   0.972   9.691  1.2463  0.7642 -0.7798
  162SOPE   C3918200   2.711   1.119   9.578 -0.7711 -0.1448 -0.0256
  162SOPE   H9X18201   2.796   1.187   9.555  0.0539 -1.7106 -1.8630
  162SOPE   H9Y18202   2.627   1.191   9.575 -0.3382  0.3511 -2.9057
  162SOPE  C31018203   2.695   1.025   9.463 -0.5104  0.1183 -1.1594
  162SOPE  H10X18204   2.593   0.980   9.472 -0.6143  0.5509  0.0341
  162SOPE  H10Y18205   2.770   0.944   9.463 -1.1096 -0.4402 -1.1646
  162SOPE  C31118206   2.710   1.098   9.331 -0.0230  0.9309  0.0363
  162SOPE  H11X18207   2.729   1.027   9.247 -2.5279  1.2720 -0.9096
  162SOPE  H11Y18208   2.791   1.174   9.321  1.7442 -0.7545  0.7299
  162SOPE  C31218209   2.582   1.164   9.282  0.2336 -0.0031 -0.7993
  162SOPE  H12X18210   2.550   1.237   9.361  2.5535  2.0374 -1.6306
  162SOPE  H12Y18211   2.495   1.095   9.290  1.3185 -1.3301 -0.0599
  162SOPE  C31318212   2.576   1.230   9.145 -0.6361 -0.0120  0.1315
  162SOPE  H13X18213   2.475   1.277   9.149 -0.5677  0.2649 -1.0196
  162SOPE  H13Y18214   2.573   1.153   9.066 -0.0209 -0.8839  0.9430
  162SOPE  C31418215   2.678   1.341   9.114  0.2505 -0.3352  0.1987
  162SOPE  H14X18216   2.776   1.288   9.116  1.0827  0.9742 -2.0242
  162SOPE  H14Y18217   2.681   1.422   9.190 -3.0497  1.0609 -0.9919
  162SOPE  C31518218   2.686   1.404   8.973  0.4080  0.4236  0.2677
  162SOPE  H15X18219   2.649   1.334   8.895 -2.7134  1.0575  1.0514
  162SOPE  H15Y18220   2.788   1.439   8.945  1.1148  0.8633  3.0986
  162SOPE  C31618221   2.601   1.532   8.967 -0.0774 -0.0256  0.1578
  162SOPE  H16X18222   2.518   1.526   9.041 -0.0387 -2.1504  0.0686
  162SOPE  H16Y18223   2.562   1.542   8.863  0.7305  2.8623  0.0262
  162SOPE  C31718224   2.671   1.664   8.999  0.2453  0.0715  0.1367
  162SOPE  H17X18225   2.629   1.746   8.936  0.7542  1.9508  2.1187
  162SOPE  H17Y18226   2.777   1.657   8.967  0.5970 -3.9881  1.6117
  162SOPE  C31818227   2.660   1.716   9.143  0.2247  0.2027 -0.4044
  162SOPE  H18X18228   2.556   1.715   9.181 -0.2819 -1.3280 -1.7154
  162SOPE  H18Y18229   2.702   1.819   9.143  1.0752 -0.1361 -0.1737
  162SOPE  H18Z18230   2.710   1.648   9.215  0.5475  0.0798 -0.7381
  163SOPE     N18231   3.057   0.043  10.889 -0.4649  0.1477 -0.3974
  163SOPE   HN118232   3.030  -0.054  10.861 -0.4344  0.2969 -0.9395
  163SOPE   HN218233   2.970   0.099  10.895 -1.1898 -0.7701 -1.8222
  163SOPE   HN318234   3.123   0.091  10.825  0.2715 -1.3060 -0.7538
  163SOPE   C1218235   3.124   0.022  11.026 -0.3363 -0.5453  0.5096
  163SOPE  H12A18236   3.146  -0.085  11.040  1.4084 -0.1567  0.9069
  163SOPE  H12B18237   3.054   0.072  11.096 -0.8226  1.9455 -1.5456
  163SOPE   C1118238   3.251   0.104  11.037  0.1449  0.1668 -0.3688
  163SOPE  H11A18239   3.286   0.086  11.141  0.3683  0.2626 -0.4276
  163SOPE  H11B18240   3.237   0.214  11.033  0.1495  0.5490  4.4353
  163SOPE     P18241   3.480   0.122  10.921  0.1134  0.0433  0.2125
  163SOPE   O1318242   3.589   0.025  10.921 -0.1023 -0.1962  0.0004
  163SOPE   O1418243   3.489   0.237  11.010  0.3077  0.1338 -0.3871
  163SOPE   O1218244   3.343   0.046  10.943 -0.1993  0.0692  0.1719
  163SOPE   O1118245   3.471   0.171  10.771 -0.3325  0.3227  0.1883
  163SOPE    C118246   3.441   0.295  10.719 -0.0034  0.3318 -0.2316
  163SOPE    HA18247   3.532   0.359  10.723 -0.3923  0.8578  1.8339
  163SOPE    HB18248   3.353   0.342  10.770  0.7874  0.8610  0.6905
  163SOPE    C218249   3.397   0.304  10.567 -0.2662  0.4560 -0.3511
  163SOPE    HS18250   3.304   0.364  10.559 -1.6546 -1.3074  1.5338
  163SOPE   O2118251   3.369   0.178  10.514 -0.2008  0.3753 -0.0200
  163SOPE   C2118252   3.249   0.128  10.543  0.0880 -0.6869 -0.0803
  163SOPE   O2218253   3.179   0.165  10.638  0.2180 -0.1267  0.7128
  163SOPE   C2218254   3.209   0.005  10.455  0.0033 -0.1807 -0.3789
  163SOPE   H2R18255   3.217  -0.079  10.526  1.1144  0.7538  0.6453
  163SOPE   H2S18256   3.272  -0.005  10.364  0.6447  1.5729 -0.1631
  163SOPE    C318257   3.517   0.368  10.480  0.2135 -0.4579 -0.5981
  163SOPE    HX18258   3.604   0.300  10.476 -0.1138 -1.0096  0.9093
  163SOPE    HY18259   3.554   0.462  10.525 -1.1096 -0.2190  0.0522
  163SOPE   O3118260   3.462   0.388  10.347 -0.1532 -0.0970  0.6660
  163SOPE   C3118261   3.408   0.508  10.320  0.0254 -0.4684  0.3202
  163SOPE   O3218262   3.407   0.599  10.399 -0.8613 -0.3586  0.5081
  163SOPE   C3218263   3.314   0.499  10.192 -0.2112  0.2962 -0.0297
  163SOPE   H2X18264   3.207   0.504  10.220 -0.3437 -1.2709 -0.1626
  163SOPE   H2Y18265   3.330   0.400  10.144  0.9830  0.7646 -0.6412
  163SOPE   C2318266   3.060   0.017  10.404  0.1497 -0.0223 -0.8001
  163SOPE   H3R18267   2.992   0.030  10.491  2.0173 -0.1782  0.7613
  163SOPE   H3S18268   3.027  -0.079  10.359 -1.9832  0.7015 -0.8477
  163SOPE   C2418269   3.036   0.131  10.299  0.2229  0.2136  0.4330
  163SOPE   H4R18270   2.933   0.124  10.257  0.0929 -1.6728  0.9502
  163SOPE   H4S18271   3.051   0.232  10.343  0.2930  0.3499  0.1018
  163SOPE   C2518272   3.117   0.110  10.165 -0.6326  0.3062  0.0485
  163SOPE   H5R18273   3.221   0.137  10.191  0.0585 -2.3471  0.3237
  163SOPE   H5S18274   3.123   0.001  10.143 -1.6477 -0.3022  2.4390
  163SOPE   C2618275   3.062   0.206  10.061 -0.3991  0.8971  0.0180
  163SOPE   H6R18276   2.952   0.197  10.051 -0.6778  1.2300  2.2076
  163SOPE   H6S18277   3.088   0.305  10.104 -0.5786  1.6294 -1.4857
  163SOPE   C2718278   3.146   0.201   9.937  0.4539  0.1682  0.2707
  163SOPE   H7R18279   3.252   0.188   9.971 -0.1747 -0.2610  2.2003
  163SOPE   H7S18280   3.111   0.108   9.887 -0.6698  0.1452  1.0623
  163SOPE   C2818281   3.152   0.324   9.854  0.1568  0.6856 -0.5241
  163SOPE   H8R18282   3.175   0.414   9.913  1.9575 -0.2529  0.2828
  163SOPE   H8S18283   3.235   0.320   9.780  0.8152 -2.6599  0.1900
  163SOPE   C2918284   3.016   0.342   9.788 -1.1683 -0.7226 -0.2549
  163SOPE   H9118285   2.938   0.352   9.865 -0.9374 -1.2418  0.0520
  163SOPE  C21018286   2.990   0.352   9.659 -0.5352 -0.1934  0.7446
  163SOPE  H10118287   2.890   0.379   9.621  0.8303  1.7323 -1.7976
  163SOPE  C21118288   3.091   0.338   9.545 -0.0325  0.3697 -0.4711
  163SOPE  H11R18289   3.085   0.240   9.493  0.7984 -1.4405  2.6281
  163SOPE  H11S18290   3.196   0.350   9.577  0.0171 -2.7860  0.8795
  163SOPE  C21218291   3.071   0.442   9.426  0.0416 -0.1559 -0.6600
  163SOPE  H12R18292   3.171   0.478   9.393  0.5705  0.0723  1.0562
  163SOPE  H12S18293   3.037   0.540   9.466  0.5064  0.3394 -1.4498
  163SOPE  C21318294   2.974   0.400   9.309  0.1339  0.7606 -0.2413
  163SOPE  H13R18295   2.872   0.373   9.346  0.8765 -2.2664 -0.1551
  163SOPE  H13S18296   3.016   0.315   9.251  1.1555 -1.4157  3.3681
  163SOPE  C21418297   2.952   0.526   9.221 -0.5925  0.2644  0.3902
  163SOPE  H14R18298   3.038   0.597   9.221 -2.0868  2.2354  2.2217
  163SOPE  H14S18299   2.871   0.591   9.261 -0.5218  0.2902  0.4934
  163SOPE  C21518300   2.938   0.497   9.069 -0.4005  0.1414  0.2301
  163SOPE  H15R18301   3.034   0.464   9.024  0.8713  1.0244  2.1828
  163SOPE  H15S18302   2.901   0.583   9.010  0.2624  1.7031  1.9953
  163SOPE  C21618303   2.830   0.387   9.049 -0.3226 -0.4026  0.1153
  163SOPE  H16R18304   2.734   0.433   9.082  0.4849  0.1476  1.8157
  163SOPE  H16S18305   2.855   0.300   9.112  1.6633 -0.4858 -0.7032
  163SOPE  C21718306   2.830   0.346   8.905  0.1701 -0.5605 -0.1222
  163SOPE  H17R18307   2.923   0.295   8.872 -0.8352 -2.2404 -0.4956
  163SOPE  H17S18308   2.818   0.443   8.852  0.5887 -1.0430 -1.1191
  163SOPE  C21818309   2.717   0.247   8.880  0.2044  0.0004 -0.3567
  163SOPE  H18R18310   2.704   0.173   8.962  0.5463  1.2528  0.8612
  163SOPE  H18S18311   2.721   0.196   8.782 -0.8898 -0.8926  0.0407
  163SOPE  H18T18312   2.622   0.304   8.885  0.5934  0.6563 -0.3601
  163SOPE   C3318313   3.342   0.615  10.090  0.5236  0.0775 -0.7911
  163SOPE   H3X18314   3.410   0.580  10.009 -0.0505  0.1913 -1.3232
  163SOPE   H3Y18315   3.385   0.704  10.141  1.0973 -0.1615 -0.8403
  163SOPE   C3418316   3.214   0.667  10.014 -0.1010 -0.0570 -0.4032
  163SOPE   H4X18317   3.190   0.769  10.052  0.8468  0.4494 -1.1091
  163SOPE   H4Y18318   3.129   0.598  10.030 -0.6730  0.2691 -1.9202
  163SOPE   C3518319   3.246   0.669   9.870 -0.7282  0.1322 -0.0133
  163SOPE   H5X18320   3.280   0.576   9.819 -0.4304 -0.9748  2.0636
  163SOPE   H5Y18321   3.324   0.747   9.858 -0.7652 -0.1690 -3.0087
  163SOPE   C3618322   3.126   0.714   9.791  0.2181 -0.6097 -0.0215
  163SOPE   H6X18323   3.096   0.814   9.827  0.3516 -0.8748  0.8752
  163SOPE   H6Y18324   3.044   0.642   9.812  1.8610 -2.0507  1.9866
  163SOPE   C3718325   3.167   0.718   9.643  0.0702  0.4647 -0.2041
  163SOPE   H7X18326   3.176   0.613   9.610 -0.6406  0.4222 -0.2730
  163SOPE   H7Y18327   3.265   0.771   9.646  1.0778 -1.2717 -1.0657
  163SOPE   C3818328   3.065   0.801   9.555 -0.1337  0.3341  0.3534
  163SOPE   H8X18329   3.033   0.883   9.622 -2.0043 -1.6924  2.0991
  163SOPE   H8Y18330   2.979   0.733   9.539  1.3667 -1.4641 -0.4407
  163SOPE   C3918331   3.138   0.857   9.429 -0.2485  0.3752  0.0573
  163SOPE   H9X18332   3.196   0.770   9.391 -0.6284  1.0899 -2.2936
  163SOPE   H9Y18333   3.198   0.946   9.458  0.7636 -0.4348  0.5189
  163SOPE  C31018334   3.035   0.881   9.312 -0.5583 -0.6258  1.0275
  163SOPE  H10X18335   2.986   0.980   9.327  1.6188  1.0221 -1.6871
  163SOPE  H10Y18336   2.968   0.793   9.301  0.6240 -1.2596 -2.2045
  163SOPE  C31118337   3.106   0.880   9.179 -0.2824  0.5153  0.5340
  163SOPE  H11X18338   3.188   0.805   9.179  1.2428  2.0578  2.2809
  163SOPE  H11Y18339   3.154   0.978   9.160  1.0069 -0.7360 -3.7509
  163SOPE  C31218340   3.011   0.879   9.055  0.0614 -0.0337 -0.1786
  163SOPE  H12X18341   2.928   0.952   9.068  1.3995  1.4066  0.5994
  163SOPE  H12Y18342   2.968   0.778   9.037 -0.0089  0.2957 -1.9929
  163SOPE  C31318343   3.086   0.904   8.925 -0.7326 -0.7031 -0.3160
  163SOPE  H13X18344   3.158   0.830   8.883  1.2490  1.1238 -0.2967
  163SOPE  H13Y18345   3.143   0.997   8.945  0.4738 -1.4239 -0.3153
  163SOPE  C31418346   2.981   0.936   8.817  0.5359  0.7481  0.0161
  163SOPE  H14X18347   3.021   0.996   8.734 -0.9985  1.0800 -0.5212
  163SOPE  H14Y18348   2.893   0.990   8.858 -1.5456 -2.5821  0.3473
  163SOPE  C31518349   2.930   0.807   8.750  0.5691  0.3635  0.4302
  163SOPE  H15X18350   2.883   0.739   8.825 -0.0450  0.8201  0.4609
  163SOPE  H15Y18351   3.012   0.758   8.693 -1.1042 -0.6188 -1.2603
  163SOPE  C31618352   2.812   0.822   8.646 -0.0709  0.2855 -0.1454
  163SOPE  H16X18353   2.814   0.724   8.594 -0.0153  0.4703 -0.4946
  163SOPE  H16Y18354   2.826   0.894   8.562  1.5917 -0.5221 -0.5879
  163SOPE  C31718355   2.672   0.841   8.713 -0.3405 -0.5264  0.0313
  163SOPE  H17X18356   2.664   0.949   8.738 -2.4373 -1.1320  2.4821
  163SOPE  H17Y18357   2.665   0.781   8.807  1.5436 -1.2876 -0.2771
  163SOPE  C31818358   2.550   0.805   8.636  0.7439 -0.9138  0.0419
  163SOPE  H18X18359   2.538   0.872   8.547  1.0098  1.0839  1.4388
  163SOPE  H18Y18360   2.462   0.831   8.699 -0.3401 -0.9680 -1.3953
  163SOPE  H18Z18361   2.555   0.697   8.611  1.7363 -1.2739  1.6919
  164SOPE     N18362   2.588   2.871  10.591 -0.2858  0.0527 -0.0998
  164SOPE   HN118363   2.605   2.913  10.684  0.1375  0.8899 -0.5368
  164SOPE   HN218364   2.535   2.783  10.604 -0.6419  0.0857 -1.2037
  164SOPE   HN318365   2.679   2.841  10.548 -0.3440  0.3987 -0.4768
  164SOPE   C1218366   2.526   2.969  10.490 -0.3945  0.4186  0.3267
  164SOPE  H12A18367   2.508   2.911  10.397 -2.8608  1.4338  0.0865
  164SOPE  H12B18368   2.593   3.057  10.480 -2.2754  1.8690 -0.1664
  164SOPE   C1118369   2.380   3.012  10.531 -0.7358 -0.3930  0.2945
  164SOPE  H11A18370   2.320   2.919  10.519 -2.4484  0.6630  0.4600
  164SOPE  H11B18371   2.361   3.085  10.450  1.0540  0.0749  0.2557
  164SOPE     P18372   2.249   3.056  10.744 -0.1443  0.0570 -0.3273
  164SOPE   O1318373   2.244   3.162  10.852 -0.4791  0.3361 -0.4086
  164SOPE   O1418374   2.245   2.913  10.784  0.2932  0.3216  0.2405
  164SOPE   O1218375   2.382   3.075  10.661  0.3450 -0.0321  0.4713
  164SOPE   O1118376   2.137   3.089  10.639 -0.1947 -0.6579 -0.1924
  164SOPE    C118377   2.109   3.232  10.610 -0.3705  0.3967  0.5344
  164SOPE    HA18378   2.202   3.292  10.602 -0.1833 -0.1496 -3.2535
  164SOPE    HB18379   2.050   3.270  10.697  0.3502 -0.6689  1.5131
  164SOPE    C218380   2.028   3.241  10.479  0.4920  0.0881 -0.4498
  164SOPE    HS18381   1.950   3.163  10.494  0.3855 -0.3856 -2.9970
  164SOPE   O2118382   2.109   3.222  10.361 -0.0239  0.3766 -0.0587
  164SOPE   C2118383   2.075   3.116  10.292 -0.1888  0.4076  0.2636
  164SOPE   O2218384   1.973   3.056  10.307  0.1906  1.2908 -0.2932
  164SOPE   C2218385   2.188   3.080  10.186  0.3821  0.1471 -0.2020
  164SOPE   H2R18386   2.223   2.976  10.205  1.9008  0.3483 -1.6108
  164SOPE   H2S18387   2.274   3.148  10.205 -0.0070  0.2733  1.2103
  164SOPE    C318388   1.950   3.375  10.481 -0.8148  0.6868  0.1441
  164SOPE    HX18389   2.033   3.448  10.494  0.1138 -0.1809 -0.6965
  164SOPE    HY18390   1.886   3.372  10.571 -0.4458 -2.4500  0.4171
  164SOPE   O3118391   1.884   3.386  10.357 -0.2034 -0.1461 -0.0962
  164SOPE   C3118392   1.753   3.357  10.352 -0.8063  0.2840  0.7115
  164SOPE   O3218393   1.686   3.319  10.448  0.2888  0.0140  0.1913
  164SOPE   C3218394   1.717   3.382  10.211 -0.2389  0.1587  0.1409
  164SOPE   H2X18395   1.784   3.343  10.131 -0.1368 -1.3943  0.9402
  164SOPE   H2Y18396   1.726   3.493  10.207  0.4662  0.1914  1.8971
  164SOPE   C2318397   2.122   3.094  10.051 -0.0176  0.6579 -0.1128
  164SOPE   H3R18398   2.040   3.020  10.043  1.4059 -0.8463 -1.4676
  164SOPE   H3S18399   2.198   3.071   9.973  0.7311  0.2638  0.7165
  164SOPE   C2418400   2.071   3.232  10.015 -0.2716  0.0771 -0.3988
  164SOPE   H4R18401   2.038   3.290  10.104 -0.9509 -1.8525  0.6671
  164SOPE   H4S18402   2.152   3.294   9.971  0.5816  0.4014  1.5294
  164SOPE   C2518403   1.958   3.233   9.905  0.2153 -0.7888 -0.8135
  164SOPE   H5R18404   2.009   3.180   9.821  1.4714  1.7515 -1.7641
  164SOPE   H5S18405   1.871   3.180   9.949 -2.7649  2.5770 -2.2294
  164SOPE   C2618406   1.943   3.376   9.850 -0.0266  0.5508  0.6714
  164SOPE   H6R18407   1.888   3.437   9.925 -1.3949 -1.0529  1.0453
  164SOPE   H6S18408   2.040   3.419   9.817  0.6935 -2.1810 -1.0504
  164SOPE   C2718409   1.850   3.371   9.723  0.4729 -0.2756  0.2445
  164SOPE   H7R18410   1.877   3.296   9.645  0.3324  0.3370 -0.4021
  164SOPE   H7S18411   1.765   3.319   9.771  1.6264 -1.1043  1.4674
  164SOPE   C2818412   1.819   3.503   9.667  0.9051 -0.1550 -0.3685
  164SOPE   H8R18413   1.772   3.573   9.740  2.4194 -0.1300  0.6344
  164SOPE   H8S18414   1.910   3.554   9.630  0.6951 -0.7024 -1.6753
  164SOPE   C2918415   1.724   3.486   9.550 -0.3452  0.2640  0.1490
  164SOPE   H9118416   1.668   3.392   9.552  2.6652 -1.6322  0.6358
  164SOPE  C21018417   1.669   3.589   9.490 -0.8010 -0.6544  0.2707
  164SOPE  H10118418   1.589   3.576   9.416 -0.4377 -0.9083 -0.0839
  164SOPE  C21118419   1.698   3.741   9.509  0.2738 -0.0515  0.2301
  164SOPE  H11R18420   1.754   3.761   9.603  2.8055  0.7190 -1.3671
  164SOPE  H11S18421   1.603   3.799   9.510 -0.0507 -0.5685  1.2220
  164SOPE  C21218422   1.795   3.796   9.411 -0.0615  0.2494  0.8549
  164SOPE  H12R18423   1.888   3.736   9.422 -0.0156 -0.2230 -1.5207
  164SOPE  H12S18424   1.822   3.902   9.430  0.8512  0.4601 -1.3121
  164SOPE  C21318425   1.764   3.768   9.267 -0.4577 -0.5231  1.0103
  164SOPE  H13R18426   1.671   3.814   9.227  1.6069  2.0783 -1.2340
  164SOPE  H13S18427   1.760   3.659   9.248 -0.9405 -0.1541 -1.3421
  164SOPE  C21418428   1.875   3.822   9.161 -0.3442  0.0862  0.4396
  164SOPE  H14R18429   1.961   3.762   9.196 -0.5398  0.2215  1.1702
  164SOPE  H14S18430   1.899   3.928   9.184  1.1748 -0.2515  0.5084
  164SOPE  C21518431   1.846   3.795   9.011 -0.5334  0.1638 -0.2706
  164SOPE  H15R18432   1.753   3.843   8.976 -2.0318 -0.3871  2.6487
  164SOPE  H15S18433   1.827   3.687   8.989 -1.3424  0.7155 -2.5342
  164SOPE  C21618434   1.960   3.837   8.919  0.0964 -0.1505 -0.2124
  164SOPE  H16R18435   2.057   3.811   8.968 -0.4870 -0.6810  0.6929
  164SOPE  H16S18436   1.961   3.946   8.897 -1.3512 -0.1561 -0.3782
  164SOPE  C21718437   1.954   3.776   8.778  0.1308  0.1486 -0.1532
  164SOPE  H17R18438   1.858   3.813   8.736 -1.2726 -2.2273  0.7033
  164SOPE  H17S18439   1.944   3.666   8.792  1.0190  0.0899  0.0763
  164SOPE  C21818440   2.057   3.824   8.680 -0.3320 -0.0423  0.4815
  164SOPE  H18R18441   2.149   3.765   8.663  0.2037  1.3426 -1.8974
  164SOPE  H18S18442   2.094   3.925   8.707 -0.0347  0.7709 -2.5750
  164SOPE  H18T18443   2.019   3.835   8.576 -0.8740 -1.5484  0.4880
  164SOPE   C3318444   1.566   3.350  10.177 -0.5448 -0.5704  0.1458
  164SOPE   H3X18445   1.515   3.410  10.255  0.8028  0.5158  0.2286
  164SOPE   H3Y18446   1.540   3.242  10.185 -0.0790 -0.9526 -2.4581
  164SOPE   C3418447   1.519   3.416  10.044 -0.6045  0.4061 -0.0370
  164SOPE   H4X18448   1.556   3.351   9.962 -0.0870 -0.3337  0.7759
  164SOPE   H4Y18449   1.565   3.517  10.033  0.9167 -0.3169 -0.5835
  164SOPE   C3518450   1.369   3.431  10.034 -0.0231 -0.7310  0.0959
  164SOPE   H5X18451   1.335   3.482  10.127  1.4036 -1.9019  1.3080
  164SOPE   H5Y18452   1.320   3.331  10.035 -0.7929 -0.3929 -1.5193
  164SOPE   C3618453   1.322   3.510   9.906 -0.3442  0.0286  0.0445
  164SOPE   H6X18454   1.390   3.598   9.893 -0.5070  0.0296 -0.8761
  164SOPE   H6Y18455   1.218   3.545   9.922 -0.2810  0.5373 -0.6090
  164SOPE   C3718456   1.331   3.421   9.778 -0.2530  0.4032 -0.0992
  164SOPE   H7X18457   1.256   3.340   9.792 -0.5179  0.9016  1.4911
  164SOPE   H7Y18458   1.434   3.379   9.778 -0.3757  0.0355 -1.4702
  164SOPE   C3818459   1.313   3.484   9.640  0.8956  0.6109 -0.5991
  164SOPE   H8X18460   1.387   3.566   9.629  0.5099  0.8360 -1.6783
  164SOPE   H8Y18461   1.210   3.527   9.641 -0.6785 -2.8698  0.0667
  164SOPE   C3918462   1.330   3.384   9.521  0.0798 -0.4353  0.0122
  164SOPE   H9X18463   1.398   3.297   9.539 -0.3898 -0.6336  0.9145
  164SOPE   H9Y18464   1.363   3.447   9.436  4.1499  0.3566  1.9379
  164SOPE  C31018465   1.195   3.314   9.479 -0.1282 -0.3887  0.2612
  164SOPE  H10X18466   1.125   3.396   9.453 -0.0844 -0.8271 -1.2747
  164SOPE  H10Y18467   1.166   3.252   9.567 -0.6117 -0.9142 -0.2660
  164SOPE  C31118468   1.217   3.223   9.361  0.4882 -0.0474  0.0754
  164SOPE  H11X18469   1.128   3.158   9.347 -0.1200  0.6785  0.4442
  164SOPE  H11Y18470   1.305   3.157   9.374 -0.3678 -0.9495  1.5857
  164SOPE  C31218471   1.249   3.303   9.233 -0.5091 -0.4875 -0.1654
  164SOPE  H12X18472   1.346   3.356   9.232 -1.1823  0.7941  0.4651
  164SOPE  H12Y18473   1.169   3.378   9.213  0.3494  0.4470 -0.1564
  164SOPE  C31318474   1.276   3.209   9.122 -0.6353  0.8297  0.1988
  164SOPE  H13X18475   1.198   3.135   9.098  1.1160 -1.3247  0.8230
  164SOPE  H13Y18476   1.351   3.129   9.141  0.2065  0.8602 -2.5922
  164SOPE  C31418477   1.314   3.273   8.989 -0.1128 -1.0127  0.8876
  164SOPE  H14X18478   1.421   3.301   8.991 -0.2899 -0.3800  2.1815
  164SOPE  H14Y18479   1.257   3.367   8.971  1.8138 -0.1382 -1.2593
  164SOPE  C31518480   1.273   3.188   8.864  0.5907  0.2428 -0.3997
  164SOPE  H15X18481   1.162   3.185   8.858  0.6728 -1.1048 -1.7210
  164SOPE  H15Y18482   1.303   3.083   8.886 -1.8838 -0.6773 -1.0969
  164SOPE  C31618483   1.345   3.243   8.748  0.4214  0.3066  0.1387
  164SOPE  H16X18484   1.452   3.219   8.766  1.0415  2.0647 -0.9576
  164SOPE  H16Y18485   1.331   3.353   8.739  1.1834  0.3388 -0.8095
  164SOPE  C31718486   1.294   3.183   8.616 -0.7749 -0.3000 -0.7692
  164SOPE  H17X18487   1.194   3.218   8.582 -0.6543 -1.0661 -1.9927
  164SOPE  H17Y18488   1.276   3.075   8.632 -0.7612 -0.4080 -1.4328
  164SOPE  C31818489   1.399   3.209   8.499  0.3537 -0.0845 -0.5775
  164SOPE  H18X18490   1.503   3.177   8.520  0.6660 -0.0725 -1.9848
  164SOPE  H18Y18491   1.409   3.319   8.485  2.2776  0.0077  1.1651
  164SOPE  H18Z18492   1.365   3.175   8.399 -1.3884 -1.9028  0.5755
  165SOPE     N18493   2.023   5.748  11.037  0.2406 -0.7203  0.3945
  165SOPE   HN118494   2.046   5.764  11.137  2.5565 -2.7075  0.2778
  165SOPE   HN218495   1.925   5.715  11.029  0.3100 -0.6318 -1.4225
  165SOPE   HN318496   2.080   5.666  11.008  1.0312 -1.0615  2.7488
  165SOPE   C1218497   2.027   5.867  10.949 -0.8101 -0.0899 -0.7459
  165SOPE  H12A18498   2.006   5.842  10.843 -1.3163  1.5679 -1.0707
  165SOPE  H12B18499   2.128   5.912  10.954 -0.4460 -0.9029 -0.6797
  165SOPE   C1118500   1.919   5.974  10.990  0.3686 -0.1940 -0.5336
  165SOPE  H11A18501   1.942   6.069  10.938 -0.7907  0.0104 -0.6962
  165SOPE  H11B18502   1.933   6.009  11.094 -1.7244  0.3723 -0.4090
  165SOPE     P18503   1.678   6.015  10.903  0.1235 -0.0827 -0.0365
  165SOPE   O1318504   1.665   6.146  10.976 -0.9120  0.7359  0.2225
  165SOPE   O1418505   1.551   5.938  10.901 -0.0314 -0.3335  0.9167
  165SOPE   O1218506   1.784   5.929  10.981  0.5865  0.4727  0.0063
  165SOPE   O1118507   1.741   6.030  10.761 -0.7509 -0.2695 -0.4587
  165SOPE    C118508   1.768   5.908  10.691 -0.6176 -0.5300 -0.3511
  165SOPE    HA18509   1.721   5.818  10.736 -3.2299 -0.0793 -1.9314
  165SOPE    HB18510   1.876   5.883  10.691 -0.4387  0.1299  1.2627
  165SOPE    C218511   1.707   5.906  10.548 -0.4617  0.2500  0.2221
  165SOPE    HS18512   1.737   5.811  10.499  4.2663  2.3454 -1.6328
  165SOPE   O2118513   1.749   6.020  10.476 -0.2572 -0.2164  0.1544
  165SOPE   C2118514   1.874   6.036  10.444  0.4946 -1.0921  0.1521
  165SOPE   O2218515   1.966   5.961  10.477 -0.5742 -0.3378  0.6429
  165SOPE   C2218516   1.899   6.164  10.369 -0.3841 -0.1378 -0.3122
  165SOPE   H2R18517   1.968   6.220  10.436 -0.9616  1.7188 -1.2089
  165SOPE   H2S18518   1.808   6.229  10.364 -1.1664 -0.8174  2.6564
  165SOPE    C318519   1.554   5.907  10.562 -0.0078 -0.2524 -0.0774
  165SOPE    HX18520   1.528   6.002  10.614  0.6899 -0.5198  0.7904
  165SOPE    HY18521   1.518   5.830  10.633  0.1516  0.0364  0.3267
  165SOPE   O3118522   1.489   5.877  10.441  0.2916  0.8717  0.3517
  165SOPE   C3118523   1.426   5.966  10.364  0.0408 -0.4835 -0.3652
  165SOPE   O3218524   1.418   6.086  10.389 -0.0469 -0.1230  0.4657
  165SOPE   C3218525   1.340   5.907  10.246 -0.4549  0.2495  0.2348
  165SOPE   H2X18526   1.230   5.911  10.261 -0.4408 -1.0012  0.7984
  165SOPE   H2Y18527   1.367   5.799  10.243 -1.9320 -0.2058  1.6205
  165SOPE   C2318528   1.959   6.137  10.234  0.3152 -0.4145  0.0192
  165SOPE   H3R18529   2.053   6.082  10.258  0.8453 -0.5392 -2.1523
  165SOPE   H3S18530   1.992   6.240  10.207  2.0566 -1.0085 -0.2257
  165SOPE   C2418531   1.869   6.067  10.129  0.5577  0.2078  0.2224
  165SOPE   H4R18532   1.844   5.968  10.171 -0.5434  0.9326  1.3165
  165SOPE   H4S18533   1.773   6.122  10.127 -0.2484 -1.1877 -0.4547
  165SOPE   C2518534   1.907   6.071   9.979 -0.1788 -0.0651  0.6008
  165SOPE   H5R18535   1.946   6.174   9.967 -1.9816  0.5780 -0.1728
  165SOPE   H5S18536   1.984   5.993   9.961  0.9161  1.2833 -0.6902
  165SOPE   C2618537   1.790   6.043   9.881 -0.8402 -0.7333 -0.0202
  165SOPE   H6R18538   1.756   5.938   9.882 -1.0079 -0.6854 -0.6284
  165SOPE   H6S18539   1.699   6.103   9.904  0.1181 -0.2465  3.0936
  165SOPE   C2718540   1.820   6.071   9.732 -1.1137  1.0802  0.6295
  165SOPE   H7R18541   1.912   6.018   9.701 -0.2762  1.7519  1.8719
  165SOPE   H7S18542   1.745   6.017   9.670  0.8101 -0.2796 -0.6213
  165SOPE   C2818543   1.847   6.213   9.692 -0.5580  0.3436  1.1051
  165SOPE   H8R18544   1.759   6.280   9.704 -0.3555  0.4496  2.0444
  165SOPE   H8S18545   1.931   6.232   9.762  0.4614 -2.0209  0.6194
  165SOPE   C2918546   1.905   6.232   9.557  1.1306  0.0032  0.3797
  165SOPE   H9118547   2.010   6.202   9.546  0.9644 -0.5778  0.3231
  165SOPE  C21018548   1.842   6.284   9.451 -0.2554 -0.0647 -0.5658
  165SOPE  H10118549   1.901   6.301   9.359  2.2569  2.1164  1.2879
  165SOPE  C21118550   1.697   6.331   9.449 -0.0432  0.2748  0.2342
  165SOPE  H11R18551   1.701   6.441   9.455  0.9479  0.2055  1.0861
  165SOPE  H11S18552   1.638   6.290   9.534 -2.4195 -1.3651 -2.0189
  165SOPE  C21218553   1.606   6.268   9.337 -0.5014 -0.4106 -0.3068
  165SOPE  H12R18554   1.500   6.293   9.359 -0.3359 -0.4297  0.5795
  165SOPE  H12S18555   1.609   6.157   9.340  1.1733 -0.5442 -3.2471
  165SOPE  C21318556   1.648   6.313   9.198  0.2868 -0.1383  0.0288
  165SOPE  H13R18557   1.585   6.253   9.129 -0.6067  0.3009  0.4534
  165SOPE  H13S18558   1.752   6.283   9.172  1.0039  2.3397 -0.1524
  165SOPE  C21418559   1.613   6.462   9.169  0.1543 -0.0801 -1.3008
  165SOPE  H14R18560   1.664   6.524   9.246 -1.6004  0.0284 -0.1726
  165SOPE  H14S18561   1.507   6.467   9.202 -0.3901  0.8635 -3.0265
  165SOPE  C21518562   1.627   6.499   9.028  0.6055 -0.2095  0.0764
  165SOPE  H15R18563   1.577   6.594   8.997 -2.1684 -2.9344 -5.3149
  165SOPE  H15S18564   1.565   6.427   8.971  0.4140 -0.3781  0.4929
  165SOPE  C21618565   1.761   6.508   8.969 -0.5331  0.4906 -0.3570
  165SOPE  H16R18566   1.815   6.411   8.967  0.2831  0.5464  4.9992
  165SOPE  H16S18567   1.827   6.570   9.033  0.0235 -0.4913  0.0456
  165SOPE  C21718568   1.764   6.568   8.831  0.1953 -0.8470 -0.4394
  165SOPE  H17R18569   1.729   6.674   8.838 -0.1734 -0.9919 -0.0772
  165SOPE  H17S18570   1.691   6.520   8.762 -0.6193  0.8899 -0.8554
  165SOPE  C21818571   1.900   6.569   8.765  0.5972  0.0192 -0.1681
  165SOPE  H18R18572   1.954   6.475   8.788 -0.4331 -0.3696  0.8319
  165SOPE  H18S18573   1.960   6.660   8.787  0.5847  0.3323 -1.3866
  165SOPE  H18T18574   1.890   6.575   8.655 -2.4185 -1.4607 -0.0750
  165SOPE   C3318575   1.368   5.969  10.111 -0.0034  0.8645  0.0119
  165SOPE   H3X18576   1.476   5.966  10.083  0.7546  0.0594  2.6523
  165SOPE   H3Y18577   1.340   6.073  10.135 -0.6915  0.2878  1.9365
  165SOPE   C3418578   1.275   5.911  10.008 -0.4625  0.6256 -0.4619
  165SOPE   H4X18579   1.169   5.908  10.041 -0.8083  0.2582 -1.5575
  165SOPE   H4Y18580   1.309   5.807   9.991  0.5853  1.0162 -0.8742
  165SOPE   C3518581   1.288   6.003   9.880  0.2495 -0.1427  1.3068
  165SOPE   H5X18582   1.397   6.000   9.856 -0.3033 -0.1144 -1.4811
  165SOPE   H5Y18583   1.250   6.105   9.902 -1.1654 -0.4726  0.4832
  165SOPE   C3618584   1.223   5.941   9.757 -0.2145 -0.3161 -0.3280
  165SOPE   H6X18585   1.207   6.029   9.692  0.8280  0.7408  0.7866
  165SOPE   H6Y18586   1.125   5.892   9.777 -0.4219 -0.4096 -1.5243
  165SOPE   C3718587   1.315   5.849   9.683  0.0091  0.6093 -0.3850
  165SOPE   H7X18588   1.340   5.762   9.748  0.0785 -0.5786 -1.9269
  165SOPE   H7Y18589   1.414   5.898   9.665  0.7737 -0.9345 -0.5918
  165SOPE   C3818590   1.253   5.805   9.550  0.5352 -0.4938  0.1716
  165SOPE   H8X18591   1.330   5.779   9.475 -1.8625  1.1541 -3.1236
  165SOPE   H8Y18592   1.208   5.894   9.499 -0.6228 -1.8482 -1.2792
  165SOPE   C3918593   1.159   5.691   9.552  0.1904 -0.0870  0.0792
  165SOPE   H9X18594   1.054   5.722   9.566  0.1277 -0.1946 -0.1509
  165SOPE   H9Y18595   1.171   5.625   9.640 -2.4012  0.6673  1.0757
  165SOPE  C31018596   1.167   5.601   9.422  0.4603  0.0260  0.0596
  165SOPE  H10X18597   1.098   5.516   9.444  1.0252 -0.9206 -1.6066
  165SOPE  H10Y18598   1.271   5.563   9.413 -0.2217 -1.8296 -0.5286
  165SOPE  C31118599   1.116   5.670   9.290  0.5443  0.7016 -0.5818
  165SOPE  H11X18600   1.189   5.750   9.265 -1.3812  2.7424 -0.0112
  165SOPE  H11Y18601   1.022   5.724   9.312 -0.2134  0.2538 -2.5616
  165SOPE  C31218602   1.088   5.579   9.170  0.1539 -0.3417  0.0405
  165SOPE  H12X18603   0.986   5.538   9.187  0.0819  0.3733  1.5129
  165SOPE  H12Y18604   1.159   5.494   9.170 -0.0694 -0.5872  2.4305
  165SOPE  C31318605   1.107   5.653   9.032  0.0933  0.8846 -0.1729
  165SOPE  H13X18606   1.098   5.578   8.950  2.0260 -1.6996  1.8102
  165SOPE  H13Y18607   1.210   5.694   9.022  0.6069 -0.6916 -1.6830
  165SOPE  C31418608   1.016   5.779   9.033  0.3468 -0.6910  0.4422
  165SOPE  H14X18609   1.068   5.842   9.109  4.0240  0.1991 -2.4766
  165SOPE  H14Y18610   0.909   5.766   9.057 -0.3285  2.1549 -0.6574
  165SOPE  C31518611   1.023   5.851   8.893  0.5281  0.0785 -0.8822
  165SOPE  H15X18612   1.125   5.892   8.875  0.3761  0.6522 -0.4808
  165SOPE  H15Y18613   0.951   5.936   8.889  0.5504  0.0401 -3.8266
  165SOPE  C31618614   0.996   5.758   8.774 -0.2066 -0.7813  0.4369
  165SOPE  H16X18615   0.913   5.686   8.790 -0.0318 -1.5204 -1.6741
  165SOPE  H16Y18616   1.078   5.685   8.755 -1.5744 -2.2316 -0.1323
  165SOPE  C31718617   0.952   5.829   8.649 -0.0105 -0.0771 -0.3667
  165SOPE  H17X18618   1.015   5.920   8.640  1.7221 -1.2544 -0.5962
  165SOPE  H17Y18619   0.851   5.872   8.666  0.8037  1.8198 -0.1243
  165SOPE  C31818620   0.972   5.745   8.521 -0.1635  0.1648 -0.5768
  165SOPE  H18X18621   1.076   5.737   8.483 -0.4343  2.7792 -2.1468
  165SOPE  H18Y18622   0.916   5.797   8.440  0.2280  0.1644 -0.8535
  165SOPE  H18Z18623   0.935   5.642   8.540  2.8391 -0.9778 -0.4205
  166SOPE     N18624   6.426   5.355  11.181  0.0762 -1.1178 -0.7996
  166SOPE   HN118625   6.507   5.303  11.222 -0.2633  0.0164  1.4542
  166SOPE   HN218626   6.462   5.424  11.112 -0.4961 -0.0488 -0.0593
  166SOPE   HN318627   6.383   5.410  11.258 -0.0875 -1.7437 -0.4428
  166SOPE   C1218628   6.330   5.250  11.146  0.6554  0.3015 -0.3475
  166SOPE  H12A18629   6.229   5.281  11.111  0.4123 -1.1052 -0.9274
  166SOPE  H12B18630   6.307   5.193  11.239 -0.4914 -1.1336 -1.4691
  166SOPE   C1118631   6.384   5.157  11.033  0.2756  0.0634  0.6753
  166SOPE  H11A18632   6.322   5.065  11.023 -0.8227  0.7136  1.2417
  166SOPE  H11B18633   6.478   5.107  11.064  1.6716  1.5279 -1.0233
  166SOPE     P18634   6.303   5.225  10.790 -0.0357 -0.2381 -0.1999
  166SOPE   O1318635   6.210   5.339  10.809 -0.1236  0.1091  0.5034
  166SOPE   O1418636   6.230   5.095  10.774 -0.6861 -0.2694 -0.6310
  166SOPE   O1218637   6.408   5.221  10.907  0.1739 -0.8005 -0.1279
  166SOPE   O1118638   6.390   5.255  10.667 -0.0759  0.4136  0.2778
  166SOPE    C118639   6.341   5.326  10.551 -0.9714 -0.5420 -0.8272
  166SOPE    HA18640   6.424   5.351  10.482  0.2161  0.2761  0.8101
  166SOPE    HB18641   6.298   5.423  10.584 -0.7773 -0.6150 -0.3500
  166SOPE    C218642   6.226   5.258  10.471  0.2341  0.0602  0.0653
  166SOPE    HS18643   6.138   5.232  10.533  0.0587  1.7873  0.5817
  166SOPE   O2118644   6.299   5.139  10.426 -0.0998  0.2861  0.8032
  166SOPE   C2118645   6.214   5.039  10.395 -0.3127 -0.4426 -0.4757
  166SOPE   O2218646   6.092   5.052  10.396 -0.1383  0.0180 -0.0692
  166SOPE   C2218647   6.285   4.908  10.375 -0.0052  0.0473 -0.2792
  166SOPE   H2R18648   6.279   4.859  10.475  0.2328  1.8288  0.6536
  166SOPE   H2S18649   6.394   4.921  10.356 -0.0076 -0.0603 -0.3668
  166SOPE    C318650   6.166   5.334  10.354  0.1478 -0.1098  0.2742
  166SOPE    HX18651   6.091   5.405  10.395 -0.4819 -1.3936  1.4100
  166SOPE    HY18652   6.096   5.269  10.297 -0.5818  1.9684 -1.3303
  166SOPE   O3118653   6.258   5.404  10.275 -0.4956 -0.0453  0.1042
  166SOPE   C3118654   6.316   5.341  10.175 -0.1368 -0.3323 -0.7512
  166SOPE   O3218655   6.290   5.228  10.138  0.2273 -0.0346  0.4252
  166SOPE   C3218656   6.422   5.426  10.107  0.0797  0.4870 -0.5477
  166SOPE   H2X18657   6.496   5.437  10.189 -1.3431  0.8264  0.7362
  166SOPE   H2Y18658   6.366   5.520  10.086  1.4633  1.0664 -1.8400
  166SOPE   C2318659   6.226   4.806  10.270 -0.2600 -0.2501  0.7735
  166SOPE   H3R18660   6.130   4.767  10.312  1.1084 -2.7862  1.7464
  166SOPE   H3S18661   6.294   4.719  10.278 -0.0699 -0.3192 -1.2631
  166SOPE   C2418662   6.240   4.847  10.122 -0.0801 -0.1774 -0.9351
  166SOPE   H4R18663   6.182   4.939  10.097 -2.1081 -1.3189 -0.6704
  166SOPE   H4S18664   6.349   4.866  10.108  0.1022  0.3898  0.9466
  166SOPE   C2518665   6.190   4.734  10.026 -0.3616 -0.2843 -0.0395
  166SOPE   H5R18666   6.226   4.630  10.042  0.1618 -0.3002 -1.1844
  166SOPE   H5S18667   6.080   4.737  10.033 -0.5332  0.0504 -2.0819
  166SOPE   C2618668   6.205   4.786   9.878 -0.0690  0.6888  0.0842
  166SOPE   H6R18669   6.201   4.896   9.867 -1.6472  0.5303 -1.3785
  166SOPE   H6S18670   6.306   4.757   9.842 -0.1161 -0.7382  1.0241
  166SOPE   C2718671   6.108   4.709   9.780  0.5227 -0.4426 -0.7348
  166SOPE   H7R18672   6.110   4.599   9.799  1.4939 -0.5683 -1.4757
  166SOPE   H7S18673   6.001   4.738   9.792  1.2297  1.2879  2.1306
  166SOPE   C2818674   6.136   4.737   9.630 -0.2275  0.2313 -0.2652
  166SOPE   H8R18675   6.043   4.741   9.569 -0.1237 -1.3641 -0.5646
  166SOPE   H8S18676   6.189   4.834   9.620  2.2812 -1.0226  0.1199
  166SOPE   C2918677   6.225   4.628   9.583  0.2582 -0.1218 -0.1857
  166SOPE   H9118678   6.278   4.572   9.662  0.2112 -0.3855 -0.3403
  166SOPE  C21018679   6.243   4.599   9.451 -0.8103 -0.2686 -0.3130
  166SOPE  H10118680   6.333   4.538   9.434 -0.9914 -0.2033 -1.5744
  166SOPE  C21118681   6.173   4.659   9.332  0.2516 -0.0174  0.4290
  166SOPE  H11R18682   6.070   4.671   9.371 -0.5546 -1.4506 -1.1167
  166SOPE  H11S18683   6.151   4.588   9.249  0.2618  0.6667 -0.1643
  166SOPE  C21218684   6.223   4.791   9.279  0.4129 -0.4409  0.3489
  166SOPE  H12R18685   6.223   4.882   9.342  0.9456  0.0865 -0.3816
  166SOPE  H12S18686   6.149   4.800   9.197 -1.3383 -0.0922  1.9065
  166SOPE  C21318687   6.365   4.775   9.231 -0.8479 -0.4977 -0.4419
  166SOPE  H13R18688   6.367   4.834   9.136  0.3327 -0.5400 -0.4531
  166SOPE  H13S18689   6.391   4.672   9.199  0.5035  0.6338 -3.3955
  166SOPE  C21418690   6.474   4.832   9.320 -0.2346  0.8528  0.1078
  166SOPE  H14R18691   6.486   4.759   9.403 -0.4730 -0.4964 -1.0066
  166SOPE  H14S18692   6.434   4.922   9.372  1.5822  0.9689  1.3914
  166SOPE  C21518693   6.602   4.855   9.233  0.0230  0.7124  0.1117
  166SOPE  H15R18694   6.585   4.917   9.142 -0.1601 -0.5478 -0.7311
  166SOPE  H15S18695   6.641   4.756   9.203 -3.4066 -0.5241 -0.7334
  166SOPE  C21618696   6.719   4.908   9.320 -0.5981  0.0387  0.0496
  166SOPE  H16R18697   6.742   4.830   9.396  0.5236 -0.5168 -0.8296
  166SOPE  H16S18698   6.703   4.998   9.384 -0.1915  0.4966 -0.4842
  166SOPE  C21718699   6.857   4.924   9.252  0.7838  0.2094  0.4325
  166SOPE  H17R18700   6.900   5.027   9.256  1.0955  0.0497  2.2443
  166SOPE  H17S18701   6.840   4.893   9.147 -0.6091  0.6112  0.5157
  166SOPE  C21818702   6.955   4.824   9.304 -0.6323  0.1800 -0.3346
  166SOPE  H18R18703   6.902   4.729   9.326 -0.9470  0.6962  1.2003
  166SOPE  H18S18704   7.003   4.867   9.394  1.0955  0.2677 -1.2325
  166SOPE  H18T18705   7.037   4.799   9.233  0.6949 -0.4667  1.3641
  166SOPE   C3318706   6.480   5.352   9.985  0.6355  0.1212  0.1908
  166SOPE   H3X18707   6.399   5.292   9.937  0.3638 -0.0941  0.9108
  166SOPE   H3Y18708   6.551   5.283  10.035  1.4240  1.3633  0.8465
  166SOPE   C3418709   6.538   5.449   9.881 -0.2598 -0.0602 -0.6824
  166SOPE   H4X18710   6.594   5.396   9.800  2.1296  0.1622  0.7222
  166SOPE   H4Y18711   6.610   5.506   9.944 -0.4280 -2.0471  1.4729
  166SOPE   C3518712   6.430   5.549   9.814 -0.0667 -0.1929  0.5493
  166SOPE   H5X18713   6.375   5.607   9.892  1.8240  1.9805  0.3545
  166SOPE   H5Y18714   6.356   5.479   9.770  0.0875  1.2661 -2.2264
  166SOPE   C3618715   6.481   5.648   9.707  0.3549 -0.0019 -0.1996
  166SOPE   H6X18716   6.549   5.585   9.646 -1.6464 -4.1047  1.4160
  166SOPE   H6Y18717   6.542   5.728   9.754  0.0976  0.6229 -0.9116
  166SOPE   C3718718   6.363   5.719   9.626  0.3190  0.1976 -0.7025
  166SOPE   H7X18719   6.312   5.777   9.706  0.9681  0.0777 -0.1957
  166SOPE   H7Y18720   6.297   5.641   9.582 -0.5662  0.2146  0.5357
  166SOPE   C3818721   6.408   5.833   9.524  0.0732  0.0912 -0.9536
  166SOPE   H8X18722   6.487   5.896   9.570  1.3004 -1.5744 -0.6953
  166SOPE   H8Y18723   6.316   5.894   9.516  0.3779  0.9636  1.2736
  166SOPE   C3918724   6.447   5.775   9.383  0.1345 -0.6502 -0.6757
  166SOPE   H9X18725   6.367   5.701   9.358 -1.2805  0.9631 -1.0840
  166SOPE   H9Y18726   6.540   5.718   9.403  0.6482  0.4493  0.1566
  166SOPE  C31018727   6.469   5.877   9.269 -0.1636 -0.4407 -0.2420
  166SOPE  H10X18728   6.518   5.972   9.296 -0.0465 -0.7305  0.6061
  166SOPE  H10Y18729   6.367   5.917   9.247 -0.3332 -0.1306  1.0449
  166SOPE  C31118730   6.549   5.819   9.152 -0.7645  0.2150 -0.0181
  166SOPE  H11X18731   6.501   5.724   9.119 -0.5103  0.1742 -0.2724
  166SOPE  H11Y18732   6.653   5.792   9.182 -1.1608 -0.1876  1.0253
  166SOPE  C31218733   6.568   5.900   9.024 -1.2801  0.2656 -0.5030
  166SOPE  H12X18734   6.473   5.953   9.001 -1.5253  0.1194  0.1446
  166SOPE  H12Y18735   6.588   5.835   8.936 -1.6763 -1.8991  0.9175
  166SOPE  C31318736   6.680   6.008   9.041  0.8955  0.0950  0.6836
  166SOPE  H13X18737   6.765   5.971   9.102  1.8832  0.4003 -0.4688
  166SOPE  H13Y18738   6.629   6.091   9.095 -3.9748 -1.1201 -1.4277
  166SOPE  C31418739   6.706   6.074   8.908 -0.5069 -0.1500  0.6015
  166SOPE  H14X18740   6.781   6.156   8.920  0.5626 -1.1152  0.6996
  166SOPE  H14Y18741   6.614   6.115   8.862 -0.3014 -2.7280 -2.4401
  166SOPE  C31518742   6.758   5.980   8.798 -0.1958 -1.2718  0.3622
  166SOPE  H15X18743   6.776   6.037   8.704 -1.5792 -0.6862  0.4214
  166SOPE  H15Y18744   6.671   5.917   8.772 -1.8230  0.8324  0.4242
  166SOPE  C31618745   6.875   5.891   8.832  0.1176 -0.4307  0.2665
  166SOPE  H16X18746   6.846   5.847   8.930 -0.6634  0.6454  0.5374
  166SOPE  H16Y18747   6.957   5.964   8.847 -1.6977  1.7362  0.2361
  166SOPE  C31718748   6.899   5.793   8.717 -0.0896 -0.2120 -0.2212
  166SOPE  H17X18749   6.926   5.850   8.626 -1.7217 -0.9642 -1.2277
  166SOPE  H17Y18750   6.807   5.734   8.695 -0.1465 -1.0613  1.9685
  166SOPE  C31818751   7.014   5.701   8.755 -0.4071 -0.7271  0.0260
  166SOPE  H18X18752   7.100   5.750   8.806 -0.5428 -0.7570  0.2862
  166SOPE  H18Y18753   7.059   5.648   8.669  0.6565  0.6175 -0.2840
  166SOPE  H18Z18754   6.982   5.631   8.835  0.7884  0.2199  1.3931
  167SOPE     N18755   3.478   3.608   5.950  0.1673 -1.0122  0.1923
  167SOPE   HN118756   3.552   3.625   6.021 -0.3867 -1.7223  0.9635
  167SOPE   HN218757   3.466   3.506   5.934 -1.0785 -0.9810  0.8480
  167SOPE   HN318758   3.512   3.641   5.857  0.3392  1.7581  1.1375
  167SOPE   C1218759   3.347   3.677   5.975 -0.1615  0.3749 -0.4093
  167SOPE  H12A18760   3.344   3.703   6.083 -0.7380 -1.0034 -0.0704
  167SOPE  H12B18761   3.268   3.607   5.940  0.0191  0.4450 -0.9675
  167SOPE   C1118762   3.343   3.799   5.878  0.3006  0.6719  0.5672
  167SOPE  H11A18763   3.356   3.769   5.771  0.4520 -1.2030  1.0684
  167SOPE  H11B18764   3.427   3.864   5.909  2.3200 -0.4324 -2.1556
  167SOPE     P18765   3.182   3.960   6.002  0.3101  0.1682  0.1109
  167SOPE   O1318766   3.047   4.009   5.980 -0.2664 -0.6008  0.1055
  167SOPE   O1418767   3.290   4.061   6.012 -0.4293  0.1348 -0.2262
  167SOPE   O1218768   3.210   3.860   5.887  0.1909  0.2134 -0.0213
  167SOPE   O1118769   3.187   3.865   6.134 -0.2601 -0.3927 -0.0876
  167SOPE    C118770   3.077   3.776   6.152  0.8962 -0.3723  0.1798
  167SOPE    HA18771   3.073   3.695   6.076  3.5372 -0.1064 -0.3404
  167SOPE    HB18772   2.982   3.833   6.143  1.3637  0.1960 -1.6720
  167SOPE    C218773   3.076   3.715   6.291 -0.3433  0.0706 -0.6697
  167SOPE    HS18774   3.008   3.628   6.287  1.5931 -1.4877 -1.7690
  167SOPE   O2118775   3.024   3.816   6.378 -0.0461  0.4518 -0.1549
  167SOPE   C2118776   2.959   3.775   6.485 -0.1966 -0.3816 -0.1459
  167SOPE   O2218777   2.923   3.660   6.502 -0.0356 -0.1496  0.1010
  167SOPE   C2218778   2.950   3.894   6.589 -0.4447  0.6699  0.9471
  167SOPE   H2R18779   2.847   3.934   6.584 -0.3686  1.0398  1.9973
  167SOPE   H2S18780   3.023   3.974   6.561 -1.4985  1.6089  0.7957
  167SOPE    C318781   3.219   3.665   6.323 -0.3160  0.7963 -0.2430
  167SOPE    HX18782   3.302   3.739   6.311  0.5540 -0.2602 -0.9337
  167SOPE    HY18783   3.240   3.588   6.246 -2.8987 -1.4960  1.1958
  167SOPE   O3118784   3.218   3.605   6.459 -0.1643  0.1514  0.0274
  167SOPE   C3118785   3.178   3.478   6.472  0.4619  0.2081 -0.0712
  167SOPE   O3218786   3.137   3.412   6.375  0.1543  0.0391 -0.3431
  167SOPE   C3218787   3.199   3.431   6.615  0.1594 -0.1647  0.3129
  167SOPE   H2X18788   3.205   3.529   6.666  0.2478 -0.2420  0.4527
  167SOPE   H2Y18789   3.294   3.374   6.607 -0.1323 -0.4785 -1.2927
  167SOPE   C2318790   2.971   3.855   6.732 -0.0981 -0.4066 -0.1395
  167SOPE   H3R18791   2.911   3.767   6.765  0.1402  0.2766  2.3044
  167SOPE   H3S18792   2.931   3.935   6.797 -1.7804 -0.6688 -0.7929
  167SOPE   C2418793   3.124   3.828   6.752  0.3599 -0.0881 -0.0376
  167SOPE   H4R18794   3.158   3.767   6.665 -1.4578 -2.2662  0.6636
  167SOPE   H4S18795   3.162   3.932   6.757  0.2502 -0.1051  1.4707
  167SOPE   C2518796   3.143   3.733   6.876 -0.7641  0.3351  0.3132
  167SOPE   H5R18797   3.105   3.631   6.857 -0.9417  0.3882  0.3822
  167SOPE   H5S18798   3.253   3.725   6.889 -0.5903  2.8702  0.9623
  167SOPE   C2618799   3.074   3.791   7.001 -0.9680 -0.0327  0.6035
  167SOPE   H6R18800   3.092   3.895   7.036  0.9974 -0.6372  1.5692
  167SOPE   H6S18801   2.966   3.786   6.978 -1.1405  0.5513  1.2390
  167SOPE   C2718802   3.115   3.701   7.115  0.0196 -0.6326 -0.3710
  167SOPE   H7R18803   3.142   3.600   7.077 -1.8271 -0.9156 -1.0642
  167SOPE   H7S18804   3.206   3.740   7.165 -0.3170  0.8326 -0.8364
  167SOPE   C2818805   2.997   3.686   7.214 -0.3179 -0.3803  0.4392
  167SOPE   H8R18806   2.947   3.781   7.242  0.2925  0.3728 -0.8888
  167SOPE   H8S18807   2.919   3.621   7.170 -0.1311 -0.0872 -0.3424
  167SOPE   C2918808   3.023   3.608   7.346  0.2636 -0.4933  0.5911
  167SOPE   H9118809   3.012   3.499   7.337 -1.0127 -0.3657  0.3615
  167SOPE  C21018810   3.054   3.661   7.466 -0.0144  0.0834 -0.5030
  167SOPE  H10118811   3.061   3.598   7.556  2.9345  1.1207  0.1140
  167SOPE  C21118812   3.077   3.808   7.492 -0.6579  0.3100 -0.3292
  167SOPE  H11R18813   3.019   3.828   7.584 -1.1897  0.7570 -0.7577
  167SOPE  H11S18814   3.045   3.871   7.406 -0.7386  0.2262 -0.3604
  167SOPE  C21218815   3.228   3.854   7.517  0.5217  0.3735 -0.6437
  167SOPE  H12R18816   3.221   3.958   7.555 -1.7691  0.1767 -0.4117
  167SOPE  H12S18817   3.288   3.860   7.423  0.8796 -1.3913 -0.5648
  167SOPE  C21318818   3.291   3.767   7.621 -0.2338  0.1225 -0.3928
  167SOPE  H13R18819   3.400   3.791   7.614 -0.4562  0.8573 -1.7176
  167SOPE  H13S18820   3.281   3.667   7.575 -2.5216 -0.0170  0.2818
  167SOPE  C21418821   3.244   3.783   7.760 -0.2968 -0.3187 -0.6301
  167SOPE  H14R18822   3.133   3.778   7.762 -0.2555 -2.2857 -1.3806
  167SOPE  H14S18823   3.279   3.883   7.793  0.1522 -0.5912 -0.2654
  167SOPE  C21518824   3.308   3.668   7.841 -0.5264 -0.2124 -0.0108
  167SOPE  H15R18825   3.415   3.674   7.811 -0.7447  2.8292 -0.5244
  167SOPE  H15S18826   3.273   3.568   7.810  0.0330 -0.9984  1.8018
  167SOPE  C21618827   3.297   3.693   7.995  0.1544  0.1818  0.0363
  167SOPE  H16R18828   3.275   3.594   8.042  0.7738 -1.1861 -2.3663
  167SOPE  H16S18829   3.208   3.758   8.006  0.4012  0.4651  0.4001
  167SOPE  C21718830   3.423   3.749   8.064  0.0872 -0.3073  1.1577
  167SOPE  H17R18831   3.459   3.844   8.020  1.6461 -0.8821  1.1524
  167SOPE  H17S18832   3.500   3.679   8.026  1.3097  2.4968 -2.0129
  167SOPE  C21818833   3.408   3.777   8.214  0.2803  0.7542 -0.3530
  167SOPE  H18R18834   3.371   3.686   8.265 -0.2515  0.6272 -0.9389
  167SOPE  H18S18835   3.338   3.857   8.245 -0.6827 -0.1640 -0.1131
  167SOPE  H18T18836   3.509   3.799   8.253 -0.1674  0.4828  0.9878
  167SOPE   C3318837   3.081   3.353   6.679  0.2506 -0.7029 -0.0900
  167SOPE   H3X18838   3.068   3.275   6.601 -2.6386  0.5779 -1.0667
  167SOPE   H3Y18839   2.987   3.412   6.688  1.9665  1.9489  1.7131
  167SOPE   C3418840   3.109   3.303   6.819 -0.3064  0.2891  0.0101
  167SOPE   H4X18841   3.088   3.386   6.890 -0.8549  0.5194 -0.4174
  167SOPE   H4Y18842   3.216   3.278   6.833 -0.2990 -0.2798 -1.0017
  167SOPE   C3518843   3.022   3.174   6.850 -0.7249 -0.4058 -0.3938
  167SOPE   H5X18844   3.072   3.100   6.784  3.7849  1.4511  0.6190
  167SOPE   H5Y18845   2.921   3.200   6.811 -0.4156  0.6903 -0.4987
  167SOPE   C3618846   3.025   3.125   6.995  0.2671  0.3534 -0.0665
  167SOPE   H6X18847   2.961   3.203   7.044  0.4003  0.2200  0.3265
  167SOPE   H6Y18848   3.131   3.126   7.029  0.3453 -0.4923 -0.2791
  167SOPE   C3718849   2.970   2.981   7.024 -0.6818  0.2019  0.6175
  167SOPE   H7X18850   3.047   2.915   6.979 -0.6210 -1.5331  3.0456
  167SOPE   H7Y18851   2.874   2.966   6.970 -0.4310  0.5778  0.0559
  167SOPE   C3818852   2.957   2.936   7.167 -0.6402 -0.0150 -0.3566
  167SOPE   H8X18853   2.880   2.998   7.217 -0.1592  0.4867 -0.2262
  167SOPE   H8Y18854   3.054   2.945   7.221 -0.4605 -0.6478 -0.5627
  167SOPE   C3918855   2.930   2.785   7.181 -0.8044 -0.2669 -0.1162
  167SOPE   H9X18856   3.004   2.731   7.119  1.7962  0.1113  2.4492
  167SOPE   H9Y18857   2.827   2.753   7.153 -1.5402  0.0888  2.0209
  167SOPE  C31018858   2.933   2.734   7.331  0.4324  0.0750 -0.6323
  167SOPE  H10X18859   3.037   2.713   7.362 -0.2841 -0.5748  1.5638
  167SOPE  H10Y18860   2.862   2.649   7.320 -2.4309  2.5637 -3.8015
  167SOPE  C31118861   2.882   2.834   7.436  0.6225 -0.2001  0.2303
  167SOPE  H11X18862   2.771   2.833   7.432  0.6195  0.8059 -0.3104
  167SOPE  H11Y18863   2.920   2.935   7.411  1.5148 -0.3937  0.7722
  167SOPE  C31218864   2.929   2.793   7.579 -0.4014 -0.4971 -0.0914
  167SOPE  H12X18865   3.039   2.801   7.586 -0.3324  0.8242 -1.7916
  167SOPE  H12Y18866   2.912   2.684   7.591 -0.9320 -0.3533  0.5063
  167SOPE  C31318867   2.867   2.856   7.697 -0.4354 -0.1917 -0.3037
  167SOPE  H13X18868   2.757   2.841   7.698 -0.3387 -1.0777 -1.5597
  167SOPE  H13Y18869   2.897   2.961   7.716  1.3590 -0.2257 -2.6116
  167SOPE  C31418870   2.917   2.773   7.826  0.3104 -0.0215 -0.1531
  167SOPE  H14X18871   3.028   2.766   7.824  0.6355  1.8640  3.3301
  167SOPE  H14Y18872   2.869   2.674   7.815  2.7400 -1.1376 -1.3359
  167SOPE  C31518873   2.867   2.835   7.958  0.0900  0.7094  0.4872
  167SOPE  H15X18874   2.756   2.827   7.956  0.1543 -1.6183  1.8679
  167SOPE  H15Y18875   2.903   2.940   7.965 -1.8096  1.4027  0.6938
  167SOPE  C31618876   2.926   2.769   8.081 -0.1684  0.3066 -0.1521
  167SOPE  H16X18877   2.896   2.827   8.171  0.0807 -2.1218  1.6095
  167SOPE  H16Y18878   3.037   2.765   8.077 -0.1640 -1.9333  0.5121
  167SOPE  C31718879   2.892   2.619   8.110  0.7885 -0.2063 -0.1649
  167SOPE  H17X18880   2.940   2.564   8.026  1.0157 -0.4817  0.1379
  167SOPE  H17Y18881   2.782   2.607   8.106  1.0012 -2.2036 -1.1216
  167SOPE  C31818882   2.937   2.553   8.246  0.5884 -0.7429  0.2104
  167SOPE  H18X18883   2.908   2.446   8.254  1.2603 -0.9194  0.2705
  167SOPE  H18Y18884   2.893   2.607   8.333  0.3302 -1.2973  0.4287
  167SOPE  H18Z18885   3.045   2.574   8.256  1.0396 -2.2105 -1.0989
  168SOPE     N18886   4.329   6.547   6.534 -0.7028 -0.0154 -0.2203
  168SOPE   HN118887   4.231   6.521   6.509 -0.8584  0.9467 -0.6865
  168SOPE   HN218888   4.336   6.644   6.497 -0.5023  0.7474  1.6817
  168SOPE   HN318889   4.385   6.481   6.477  0.2076 -0.1058  0.7451
  168SOPE   C1218890   4.357   6.520   6.679 -0.3581 -0.3346  0.0876
  168SOPE  H12A18891   4.277   6.558   6.746  0.9264  2.6072  0.0790
  168SOPE  H12B18892   4.446   6.585   6.695 -1.2550  0.7008  1.0357
  168SOPE   C1118893   4.392   6.374   6.712  0.0252  0.5804 -0.4211
  168SOPE  H11A18894   4.303   6.317   6.676 -3.2346  3.1398  2.7987
  168SOPE  H11B18895   4.393   6.364   6.822 -0.0534 -0.2251 -0.4844
  168SOPE     P18896   4.535   6.264   6.512  0.6195  0.4961  0.1231
  168SOPE   O1318897   4.680   6.254   6.485  0.2789 -0.5993 -0.0375
  168SOPE   O1418898   4.447   6.323   6.409  0.4176 -0.2466 -0.6017
  168SOPE   O1218899   4.510   6.340   6.649  0.3346  0.0879  0.2166
  168SOPE   O1118900   4.490   6.116   6.540 -0.4072  0.0122  0.0466
  168SOPE    C118901   4.568   5.997   6.551 -0.3231 -0.5634  0.6551
  168SOPE    HA18902   4.674   6.006   6.520 -0.5554  1.2125  0.3128
  168SOPE    HB18903   4.517   5.925   6.484  0.6530  0.9537 -1.8317
  168SOPE    C218904   4.565   5.926   6.690  0.2377  0.1362  0.1688
  168SOPE    HS18905   4.467   5.874   6.689  0.1735  0.1265  2.5773
  168SOPE   O2118906   4.558   6.018   6.801  0.0568 -0.6683 -0.4439
  168SOPE   C2118907   4.663   6.095   6.827 -0.7364 -0.1141  0.1496
  168SOPE   O2218908   4.764   6.100   6.756  0.7306  0.0761 -0.2709
  168SOPE   C2218909   4.647   6.167   6.962  0.3090  0.3150  0.3215
  168SOPE   H2R18910   4.589   6.261   6.956  1.1246  0.8419  0.4861
  168SOPE   H2S18911   4.751   6.203   6.981  0.5719 -0.6931  0.8530
  168SOPE    C318912   4.676   5.815   6.706  0.3657  0.2434 -0.2712
  168SOPE    HX18913   4.774   5.868   6.700  0.1440  1.3822  3.4671
  168SOPE    HY18914   4.665   5.747   6.619 -0.1585  0.1830 -0.1614
  168SOPE   O3118915   4.673   5.761   6.835 -0.1111 -0.1557  0.2280
  168SOPE   C3118916   4.600   5.645   6.854 -0.5653 -0.2473  0.2434
  168SOPE   O3218917   4.548   5.584   6.766 -0.0270 -0.0796 -0.2397
  168SOPE   C3218918   4.591   5.609   7.005  0.1740  0.2498  0.3180
  168SOPE   H2X18919   4.690   5.629   7.051  1.2322 -0.3071 -1.6152
  168SOPE   H2Y18920   4.569   5.501   6.998  1.5021 -0.0410  0.3994
  168SOPE   C2318921   4.602   6.076   7.071  1.1584  0.2008  1.1180
  168SOPE   H3R18922   4.662   5.984   7.060 -0.9899 -1.3731  2.0173
  168SOPE   H3S18923   4.495   6.047   7.067  1.6681 -1.6198 -0.1447
  168SOPE   C2418924   4.643   6.127   7.210  0.6192 -0.9893 -0.3731
  168SOPE   H4R18925   4.743   6.175   7.209  0.3085 -0.3201  0.1300
  168SOPE   H4S18926   4.576   6.212   7.235  0.3982 -1.0016 -0.9016
  168SOPE   C2518927   4.644   6.022   7.322 -0.2843 -0.0163  0.2056
  168SOPE   H5R18928   4.537   6.003   7.343 -0.3036  0.0645  0.1789
  168SOPE   H5S18929   4.688   5.927   7.285  1.5834  1.1276 -0.6909
  168SOPE   C2618930   4.708   6.074   7.450  0.6537 -0.5819  0.0196
  168SOPE   H6R18931   4.816   6.089   7.432  1.2056 -0.7499  2.7660
  168SOPE   H6S18932   4.657   6.171   7.472  1.6123  0.1558 -0.9198
  168SOPE   C2718933   4.693   5.989   7.575 -0.1778 -0.9778 -0.0909
  168SOPE   H7R18934   4.587   5.981   7.606 -0.6374  0.5198 -1.1856
  168SOPE   H7S18935   4.721   5.889   7.534 -0.8259 -0.7147 -1.2159
  168SOPE   C2818936   4.790   6.038   7.689 -0.2716  0.5555  0.0640
  168SOPE   H8R18937   4.810   5.944   7.745  1.6853  1.7306  1.4535
  168SOPE   H8S18938   4.886   6.071   7.644  0.4760 -1.1348  0.3319
  168SOPE   C2918939   4.729   6.143   7.771  0.7071 -0.4540 -0.2736
  168SOPE   H9118940   4.690   6.231   7.717  0.6517 -0.6522 -0.5596
  168SOPE  C21018941   4.712   6.146   7.899 -0.1501 -0.1585 -0.6014
  168SOPE  H10118942   4.657   6.226   7.950  0.2694  0.1254 -0.5906
  168SOPE  C21118943   4.745   6.037   8.004 -0.6289 -1.3511  0.3230
  168SOPE  H11R18944   4.795   5.950   7.957 -0.2675 -0.7008 -0.5205
  168SOPE  H11S18945   4.645   6.005   8.041 -1.2341 -0.1686 -0.2208
  168SOPE  C21218946   4.833   6.084   8.126  0.0527  0.8555 -0.0601
  168SOPE  H12R18947   4.938   6.090   8.092  1.0999  1.7176  2.9795
  168SOPE  H12S18948   4.823   6.000   8.198 -1.4504  1.8074  0.8964
  168SOPE  C21318949   4.776   6.191   8.215  0.6843 -0.5690  0.1249
  168SOPE  H13R18950   4.666   6.175   8.225  0.5314  1.3874  2.6676
  168SOPE  H13S18951   4.789   6.280   8.149 -0.7914 -1.0408 -0.8589
  168SOPE  C21418952   4.834   6.219   8.350  0.0189  0.4446  0.5530
  168SOPE  H14R18953   4.778   6.310   8.381  1.4748  1.7979 -0.6191
  168SOPE  H14S18954   4.936   6.263   8.355 -0.6605  2.1350  0.1356
  168SOPE  C21518955   4.814   6.108   8.451  0.4456 -0.2125 -0.2192
  168SOPE  H15R18956   4.891   6.031   8.433  0.9644  0.6414 -1.8004
  168SOPE  H15S18957   4.712   6.067   8.437  0.1428  0.1606  0.7614
  168SOPE  C21618958   4.846   6.158   8.589 -0.4571  0.3478 -0.3604
  168SOPE  H16R18959   4.957   6.164   8.593 -0.2280 -0.3030 -3.4777
  168SOPE  H16S18960   4.806   6.080   8.658 -3.1446  0.1838 -2.0023
  168SOPE  C21718961   4.805   6.302   8.627 -0.3600  0.5358  0.5054
  168SOPE  H17R18962   4.698   6.310   8.598 -0.2740  0.1188  0.0451
  168SOPE  H17S18963   4.858   6.377   8.563  1.1125 -0.9827 -0.1328
  168SOPE  C21818964   4.816   6.329   8.777  0.0431  0.1551 -0.0908
  168SOPE  H18R18965   4.924   6.349   8.798  0.1846  1.8058 -2.1429
  168SOPE  H18S18966   4.776   6.248   8.842 -1.0314  0.8109  0.0956
  168SOPE  H18T18967   4.756   6.422   8.790 -1.0631 -0.5743  0.1163
  168SOPE   C3318968   4.473   5.677   7.082 -0.2900  0.3872 -0.0001
  168SOPE   H3X18969   4.377   5.662   7.028  0.5547 -0.2331 -1.4174
  168SOPE   H3Y18970   4.485   5.785   7.102 -1.7900  0.4411  0.6885
  168SOPE   C3418971   4.453   5.597   7.215  0.9295  0.3146  0.4830
  168SOPE   H4X18972   4.424   5.490   7.202  1.7283  0.0408  0.9151
  168SOPE   H4Y18973   4.365   5.651   7.256 -0.0056 -0.4339 -0.4600
  168SOPE   C3518974   4.563   5.610   7.320 -0.5888 -0.4840  0.4088
  168SOPE   H5X18975   4.603   5.711   7.341 -1.4053 -0.4258  1.8434
  168SOPE   H5Y18976   4.652   5.548   7.297  0.5815  1.5565 -0.8315
  168SOPE   C3618977   4.529   5.552   7.466 -0.1320 -0.6064  0.1122
  168SOPE   H6X18978   4.616   5.509   7.520 -0.6502  0.7319  2.1079
  168SOPE   H6Y18979   4.452   5.476   7.443  0.4384 -0.6339 -1.9126
  168SOPE   C3718980   4.476   5.663   7.556  0.4427 -0.1634  0.3049
  168SOPE   H7X18981   4.384   5.705   7.510  1.5046  3.0073  0.8514
  168SOPE   H7Y18982   4.554   5.741   7.556  0.6670 -0.3689 -1.0068
  168SOPE   C3818983   4.443   5.616   7.699 -0.1648  0.4458 -0.0324
  168SOPE   H8X18984   4.365   5.539   7.681  0.1902  0.0647  0.0507
  168SOPE   H8Y18985   4.399   5.697   7.761  2.5547  2.0891 -0.1333
  168SOPE   C3918986   4.556   5.549   7.780 -0.0422 -0.1669 -0.3643
  168SOPE   H9X18987   4.585   5.455   7.728  1.6785 -0.3953  0.9347
  168SOPE   H9Y18988   4.514   5.521   7.879 -0.3600  1.1273 -0.1108
  168SOPE  C31018989   4.682   5.632   7.792 -0.1770  1.0103  0.3382
  168SOPE  H10X18990   4.660   5.741   7.782  2.8304  1.5503 -1.9522
  168SOPE  H10Y18991   4.743   5.609   7.702 -0.0064  1.6466  0.2814
  168SOPE  C31118992   4.767   5.614   7.920  0.0397  0.3171 -0.4842
  168SOPE  H11X18993   4.690   5.607   8.000  0.1043  0.0990 -0.4407
  168SOPE  H11Y18994   4.816   5.714   7.926  0.8044 -0.0946  0.2868
  168SOPE  C31218995   4.860   5.499   7.913 -0.8267 -0.3401 -0.1409
  168SOPE  H12X18996   4.918   5.497   7.818 -0.3270 -2.7342  0.1553
  168SOPE  H12Y18997   4.801   5.405   7.909 -0.9256 -0.2577 -0.7877
  168SOPE  C31318998   4.950   5.506   8.037  0.2772 -0.4857 -0.9265
  168SOPE  H13X18999   5.011   5.598   8.022 -0.8185  0.4835  0.2920
  168SOPE  H13Y19000   5.018   5.418   8.035  0.0865 -0.6325 -1.0075
  168SOPE  C31419001   4.878   5.484   8.169  0.4632 -0.2489 -0.8573
  168SOPE  H14X19002   4.811   5.395   8.164 -3.0647  2.2583 -4.0298
  168SOPE  H14Y19003   4.807   5.564   8.198  3.1423  1.3686  1.7754
  168SOPE  C31519004   4.962   5.493   8.301  0.1247 -0.7211 -0.2572
  168SOPE  H15X19005   5.055   5.549   8.278  0.0673  1.2290  3.4842
  168SOPE  H15Y19006   5.002   5.394   8.333 -0.5543 -0.6029  1.0006
  168SOPE  C31619007   4.890   5.560   8.413 -0.0960  0.6736 -0.0581
  168SOPE  H16X19008   4.953   5.528   8.498  2.9938  0.5055 -2.2375
  168SOPE  H16Y19009   4.786   5.520   8.421 -1.2568  3.4418 -0.3625
  168SOPE  C31719010   4.901   5.709   8.431 -0.3362 -0.0733  0.0021
  168SOPE  H17X19011   4.827   5.730   8.511  2.1564  0.6274  2.2477
  168SOPE  H17Y19012   4.863   5.766   8.343 -0.3750 -0.4915 -0.2576
  168SOPE  C31819013   5.038   5.761   8.463  0.1147 -0.0279  0.5891
  168SOPE  H18X19014   5.062   5.713   8.561 -2.0305 -1.6779  0.3813
  168SOPE  H18Y19015   5.044   5.871   8.476 -1.4193  0.0153  1.1816
  168SOPE  H18Z19016   5.108   5.726   8.384 -2.4173 -1.8367 -0.9995
  169SOPE     N19017   6.429   4.851   6.074  0.6880 -0.5033 -0.6923
  169SOPE   HN119018   6.374   4.855   5.986  0.0500  0.0873 -0.2780
  169SOPE   HN219019   6.491   4.934   6.085  0.6091 -0.4061 -0.9576
  169SOPE   HN319020   6.497   4.772   6.071  0.6747 -0.5004 -1.0987
  169SOPE   C1219021   6.321   4.848   6.175  0.1638  0.3592 -0.0209
  169SOPE  H12A19022   6.373   4.810   6.266  0.7227 -1.2894 -0.9765
  169SOPE  H12B19023   6.250   4.768   6.146  1.8191 -1.2530  0.1526
  169SOPE   C1119024   6.255   4.988   6.206  0.1332  0.3153 -0.1561
  169SOPE  H11A19025   6.171   4.978   6.277 -0.9818  2.3307 -1.0938
  169SOPE  H11B19026   6.212   5.032   6.114 -2.6438  0.1477  0.9506
  169SOPE     P19027   6.317   5.148   6.399 -0.1839 -0.1971 -0.3527
  169SOPE   O1319028   6.205   5.247   6.372  0.1051 -0.1070 -0.3587
  169SOPE   O1419029   6.439   5.214   6.455 -0.1592 -0.5062 -0.0184
  169SOPE   O1219030   6.357   5.076   6.265  0.5528  0.7067  0.1467
  169SOPE   O1119031   6.257   5.034   6.485 -0.6257  0.4583  0.0477
  169SOPE    C119032   6.141   5.058   6.566 -0.5742  0.4139  0.3508
  169SOPE    HA19033   6.081   4.964   6.577  1.5546 -1.4043 -2.2502
  169SOPE    HB19034   6.068   5.133   6.530  0.4381  1.6146  0.7477
  169SOPE    C219035   6.175   5.115   6.707  0.3702 -0.2104 -0.2413
  169SOPE    HS19036   6.239   5.203   6.687 -1.2719  0.8891 -0.8248
  169SOPE   O2119037   6.243   5.012   6.790  0.5251 -0.6644  0.4364
  169SOPE   C2119038   6.297   5.057   6.902 -0.0477  0.0037 -0.6732
  169SOPE   O2219039   6.329   5.169   6.928  0.3588 -0.0219 -0.8833
  169SOPE   C2219040   6.319   4.926   6.997 -0.5224 -0.0107 -0.1294
  169SOPE   H2R19041   6.380   4.859   6.933 -0.2374  0.9032 -0.8459
  169SOPE   H2S19042   6.221   4.879   7.020  0.2095 -1.3413  0.3280
  169SOPE    C319043   6.049   5.153   6.781  0.1451 -0.1639 -0.1469
  169SOPE    HX19044   6.012   5.055   6.815 -2.9961  0.9990  0.1251
  169SOPE    HY19045   5.980   5.193   6.704  1.5364  1.7279 -0.4942
  169SOPE   O3119046   6.071   5.240   6.891  0.2374  0.1058 -0.4672
  169SOPE   C3119047   6.090   5.361   6.856 -0.7270  0.3596  0.2435
  169SOPE   O3219048   6.104   5.407   6.741 -0.6747  0.3919 -0.1558
  169SOPE   C3219049   6.089   5.450   6.985 -0.1565 -0.8181 -0.5881
  169SOPE   H2X19050   6.158   5.535   6.972 -0.1606 -0.9007 -1.1489
  169SOPE   H2Y19051   6.119   5.392   7.075 -0.4280 -0.3417 -0.1870
  169SOPE   C2319052   6.390   4.970   7.124  0.1616 -0.2715  0.2014
  169SOPE   H3R19053   6.344   5.045   7.191 -1.8979 -1.2633 -0.0303
  169SOPE   H3S19054   6.487   5.013   7.091  0.1233 -0.7051 -0.4961
  169SOPE   C2419055   6.428   4.848   7.208  0.3910 -0.0332  0.5860
  169SOPE   H4R19056   6.467   4.767   7.142 -2.0745 -1.3237  0.5957
  169SOPE   H4S19057   6.516   4.888   7.261  0.8806 -0.1810 -0.0964
  169SOPE   C2519058   6.321   4.814   7.313  0.1470  0.2851 -0.4577
  169SOPE   H5R19059   6.276   4.911   7.343  0.9840  1.2003 -1.9963
  169SOPE   H5S19060   6.233   4.753   7.284 -1.4966  1.4265  1.8220
  169SOPE   C2619061   6.396   4.744   7.427  0.3736 -0.7007  0.7993
  169SOPE   H6R19062   6.451   4.652   7.396  1.6620  0.2160  0.2511
  169SOPE   H6S19063   6.471   4.818   7.463  0.4587 -0.9943  1.2441
  169SOPE   C2719064   6.294   4.709   7.538 -0.2846 -0.2525  0.9262
  169SOPE   H7R19065   6.212   4.784   7.534 -2.1580 -2.2463 -2.3326
  169SOPE   H7S19066   6.241   4.619   7.500  1.3678 -1.2962  1.0010
  169SOPE   C2819067   6.356   4.702   7.681  0.0185  0.4059 -0.2526
  169SOPE   H8R19068   6.400   4.797   7.716 -1.7643  1.2217 -0.1755
  169SOPE   H8S19069   6.284   4.678   7.762  1.0374 -0.3982  0.4472
  169SOPE   C2919070   6.464   4.597   7.690  0.0047 -0.2928  0.5766
  169SOPE   H9119071   6.476   4.537   7.598 -0.5871 -0.0625  0.3385
  169SOPE  C21019072   6.544   4.575   7.790 -0.5295  0.8178  0.1149
  169SOPE  H10119073   6.606   4.485   7.779 -0.1294  1.1006  0.0315
  169SOPE  C21119074   6.542   4.643   7.928 -0.2491  0.2907 -0.5219
  169SOPE  H11R19075   6.519   4.752   7.934  1.7935  0.6991  0.8613
  169SOPE  H11S19076   6.639   4.632   7.981 -1.4626 -1.2995  1.4874
  169SOPE  C21219077   6.447   4.562   8.012 -0.5263 -0.5455 -0.2905
  169SOPE  H12R19078   6.495   4.464   8.030  2.2323  0.3312 -2.1717
  169SOPE  H12S19079   6.354   4.536   7.956 -0.5099  0.2695 -0.7162
  169SOPE  C21319080   6.407   4.625   8.147 -0.2718  0.2551 -0.0978
  169SOPE  H13R19081   6.340   4.563   8.211  0.8100 -0.6089  0.2315
  169SOPE  H13S19082   6.354   4.715   8.109 -0.9779 -0.1730 -0.1602
  169SOPE  C21419083   6.524   4.668   8.239 -0.2852  0.1837  0.7384
  169SOPE  H14R19084   6.571   4.761   8.199 -1.5117  1.2595  1.7056
  169SOPE  H14S19085   6.609   4.597   8.241 -0.6039 -0.2095  0.3264
  169SOPE  C21519086   6.464   4.687   8.382 -0.6394  0.8036 -0.0688
  169SOPE  H15R19087   6.556   4.719   8.436  0.1663  0.1698 -1.0363
  169SOPE  H15S19088   6.432   4.589   8.423  2.4932  0.2361  1.3118
  169SOPE  C21619089   6.356   4.802   8.403  0.3476 -0.1935 -0.0977
  169SOPE  H16R19090   6.270   4.779   8.337 -0.6872  1.2907  0.6853
  169SOPE  H16S19091   6.395   4.900   8.370  0.4841  0.5466  2.0606
  169SOPE  C21719092   6.305   4.810   8.548  0.4897  0.4614 -0.7588
  169SOPE  H17R19093   6.228   4.890   8.558  0.0353 -0.1921  2.1939
  169SOPE  H17S19094   6.390   4.851   8.607  1.2101 -0.6673 -0.9780
  169SOPE  C21819095   6.258   4.674   8.608 -0.8542  0.3720  0.2771
  169SOPE  H18R19096   6.185   4.625   8.541  1.0135  0.6564 -2.1047
  169SOPE  H18S19097   6.203   4.694   8.702  3.1319  1.6234  2.6081
  169SOPE  H18T19098   6.344   4.605   8.626 -0.0428  1.5712  1.1760
  169SOPE   C3319099   5.955   5.517   7.011  0.2407  0.2982  0.1231
  169SOPE   H3X19100   5.866   5.455   6.986 -0.5657  0.9925  1.1876
  169SOPE   H3Y19101   5.938   5.604   6.945  1.3171  0.2232 -0.2680
  169SOPE   C3419102   5.950   5.579   7.146  0.4965  0.4770 -0.1190
  169SOPE   H4X19103   5.866   5.651   7.151 -0.1158 -0.2112 -0.2779
  169SOPE   H4Y19104   6.047   5.624   7.177  0.4577 -0.3313  1.2836
  169SOPE   C3519105   5.905   5.470   7.250  0.1291 -0.0646 -0.7517
  169SOPE   H5X19106   5.970   5.380   7.252  0.1081 -0.0736 -0.3855
  169SOPE   H5Y19107   5.804   5.431   7.228  0.5424 -1.3641 -0.4539
  169SOPE   C3619108   5.900   5.533   7.391 -0.5751  0.3445  0.3897
  169SOPE   H6X19109   5.858   5.465   7.469  0.8597 -1.1375 -0.0943
  169SOPE   H6Y19110   5.823   5.614   7.384 -0.1785  0.7934  1.0896
  169SOPE   C3719111   6.028   5.607   7.428 -0.2144 -0.7863 -0.1754
  169SOPE   H7X19112   6.034   5.714   7.399  0.0069 -0.9092 -0.5988
  169SOPE   H7Y19113   6.119   5.565   7.379  0.8578  1.2279 -0.0013
  169SOPE   C3819114   6.061   5.610   7.581  0.8380  0.1395 -0.0409
  169SOPE   H8X19115   6.134   5.691   7.604  0.3121  0.4990  0.3976
  169SOPE   H8Y19116   5.961   5.635   7.622  0.3807  3.0068 -2.5192
  169SOPE   C3919117   6.117   5.482   7.630  0.3011  0.1079 -0.1930
  169SOPE   H9X19118   6.205   5.450   7.570  0.1664  0.6061 -0.6668
  169SOPE   H9Y19119   6.046   5.397   7.627 -1.3636  1.4520 -2.2028
  169SOPE  C31019120   6.147   5.497   7.777  0.1294  0.5125  0.1147
  169SOPE  H10X19121   6.180   5.396   7.809  1.0696  0.5255 -0.7772
  169SOPE  H10Y19122   6.053   5.517   7.833 -0.0794 -0.0750 -0.0196
  169SOPE  C31119123   6.255   5.590   7.817  0.2839  0.1682  1.3025
  169SOPE  H11X19124   6.209   5.691   7.816  0.9051  0.4526  1.0168
  169SOPE  H11Y19125   6.338   5.590   7.743 -1.9349 -0.9961 -1.3152
  169SOPE  C31219126   6.306   5.583   7.965 -0.1124  0.4367  0.0714
  169SOPE  H12X19127   6.374   5.664   7.999 -0.1931  1.6479 -2.3949
  169SOPE  H12Y19128   6.368   5.493   7.984 -1.0492 -0.6162 -1.6835
  169SOPE  C31319129   6.187   5.572   8.071 -0.3903  0.0066 -0.3198
  169SOPE  H13X19130   6.123   5.486   8.042  1.7111 -1.8348  0.1550
  169SOPE  H13Y19131   6.120   5.660   8.078  2.7675  2.5602  0.0843
  169SOPE  C31419132   6.233   5.528   8.216  0.2157 -0.1337 -0.1643
  169SOPE  H14X19133   6.282   5.430   8.199 -0.6426 -0.8905  1.5321
  169SOPE  H14Y19134   6.148   5.508   8.284  0.2595  0.0988 -0.0418
  169SOPE  C31519135   6.331   5.613   8.303 -0.6089  0.7234  0.7063
  169SOPE  H15X19136   6.424   5.637   8.248 -1.3969  2.1911 -0.0364
  169SOPE  H15Y19137   6.357   5.561   8.398 -2.6547  2.5289  2.3664
  169SOPE  C31619138   6.272   5.743   8.355  0.1886  0.0391 -0.2178
  169SOPE  H16X19139   6.194   5.705   8.425  0.2539  1.6406  0.7673
  169SOPE  H16Y19140   6.222   5.801   8.275 -0.6443 -0.5131 -0.1165
  169SOPE  C31719141   6.365   5.837   8.430  0.4028  0.1719  0.8940
  169SOPE  H17X19142   6.433   5.785   8.501  2.9226  1.6135 -0.2981
  169SOPE  H17Y19143   6.297   5.907   8.483 -0.8268  1.7712 -2.5029
  169SOPE  C31819144   6.466   5.912   8.334  0.2775  0.2706 -0.5619
  169SOPE  H18X19145   6.516   5.829   8.280 -2.1069 -2.4485  1.1176
  169SOPE  H18Y19146   6.537   5.970   8.397 -1.1101 -0.1767  1.5451
  169SOPE  H18Z19147   6.401   5.982   8.278  0.7902  1.8955  0.7742
  170SOPE     N19148   0.804   3.614   6.312  0.4869 -0.1305  0.7319
  170SOPE   HN119149   0.775   3.659   6.222  2.5278  1.0544  0.6137
  170SOPE   HN219150   0.782   3.515   6.333  0.1025  0.4984  3.8149
  170SOPE   HN319151   0.755   3.664   6.389 -0.0808  0.5002 -0.0117
  170SOPE   C1219152   0.944   3.657   6.329 -0.5800  0.3452 -0.0241
  170SOPE  H12A19153   1.000   3.627   6.237 -0.7708  0.8161 -0.3005
  170SOPE  H12B19154   0.973   3.603   6.421  2.5550  0.4207 -0.8645
  170SOPE   C1119155   0.952   3.816   6.348  0.3619  0.1151  0.5415
  170SOPE  H11A19156   1.059   3.845   6.348  0.4311 -0.0683 -0.9237
  170SOPE  H11B19157   0.919   3.830   6.453 -1.1938  0.2899  0.0489
  170SOPE     P19158   0.882   4.058   6.275  0.1567 -0.0011  0.0085
  170SOPE   O1319159   0.755   4.126   6.225 -0.7445  0.6676 -0.3958
  170SOPE   O1419160   1.012   4.084   6.210  0.0356 -0.0661  0.5159
  170SOPE   O1219161   0.859   3.899   6.276 -0.0436 -0.1575 -0.3892
  170SOPE   O1119162   0.893   4.088   6.435 -0.3742  0.1009 -0.1026
  170SOPE    C119163   1.020   4.144   6.467  0.0870  0.6179 -0.0020
  170SOPE    HA19164   1.026   4.234   6.403 -0.8686 -0.8773 -2.3220
  170SOPE    HB19165   1.107   4.079   6.446 -0.5308 -0.6237  1.0891
  170SOPE    C219166   1.019   4.159   6.622 -0.4006  0.6171  0.0828
  170SOPE    HS19167   1.110   4.215   6.655 -1.7606  2.1023  1.4723
  170SOPE   O2119168   1.008   4.028   6.685 -0.3339  0.1910 -0.6495
  170SOPE   C2119169   1.118   3.978   6.721 -0.4825 -0.7909  0.1050
  170SOPE   O2219170   1.230   4.019   6.708  0.4406  0.0418  0.1619
  170SOPE   C2219171   1.088   3.839   6.783  0.2838 -0.5296  0.2094
  170SOPE   H2R19172   1.177   3.800   6.838  0.4691 -0.8882 -0.3366
  170SOPE   H2S19173   1.064   3.775   6.696  0.1245  0.1244 -0.2351
  170SOPE    C319174   0.898   4.242   6.671 -0.0029 -0.0034  0.4450
  170SOPE    HX19175   0.797   4.212   6.637 -1.5670  3.5797  1.5032
  170SOPE    HY19176   0.918   4.340   6.623  1.7069 -0.4261  0.2119
  170SOPE   O3119177   0.890   4.269   6.814 -0.3852 -0.3239  0.7128
  170SOPE   C3119178   0.782   4.205   6.875 -0.5165 -0.2183  0.3784
  170SOPE   O3219179   0.708   4.130   6.820  0.3015 -0.0778 -0.4723
  170SOPE   C3219180   0.785   4.258   7.017  0.0344 -0.7691 -0.3194
  170SOPE   H2X19181   0.755   4.364   7.006  0.0694 -0.4032  2.3382
  170SOPE   H2Y19182   0.886   4.250   7.063  0.0655  2.1915  0.3410
  170SOPE   C2319183   0.969   3.845   6.884  0.2334  0.5342 -0.2476
  170SOPE   H3R19184   0.950   3.738   6.907 -0.9972  0.7914 -0.0134
  170SOPE   H3S19185   0.871   3.877   6.844 -0.9036  0.7855  2.4804
  170SOPE   C2419186   1.005   3.910   7.024 -0.1393  0.1167 -0.4084
  170SOPE   H4R19187   1.112   3.900   7.050  0.0232 -1.5022 -1.5145
  170SOPE   H4S19188   0.985   4.019   7.014 -2.0641 -0.2502 -0.9210
  170SOPE   C2519189   0.921   3.865   7.143 -0.2353  0.5270  0.0099
  170SOPE   H5R19190   0.811   3.874   7.129 -0.5027  2.3393  2.4103
  170SOPE   H5S19191   0.937   3.757   7.162 -2.5034 -0.1981 -1.7771
  170SOPE   C2619192   0.959   3.941   7.274  0.2533  0.6962  0.5426
  170SOPE   H6R19193   1.067   3.927   7.297  0.3655  0.9049  0.1594
  170SOPE   H6S19194   0.942   4.047   7.248 -0.8515  0.5974  0.8342
  170SOPE   C2719195   0.874   3.914   7.404 -0.9020 -0.0982  0.4756
  170SOPE   H7R19196   0.769   3.910   7.370 -1.4100  1.9761  1.5932
  170SOPE   H7S19197   0.892   3.808   7.430  0.0744  0.4017  2.0279
  170SOPE   C2819198   0.888   4.000   7.524 -0.2229 -0.4688  0.6583
  170SOPE   H8R19199   0.863   4.105   7.500 -0.6629 -0.8652 -0.6726
  170SOPE   H8S19200   0.804   3.970   7.590 -0.0197 -0.9575  0.7014
  170SOPE   C2919201   1.026   4.004   7.597  0.0711 -0.0406  0.5372
  170SOPE   H9119202   1.114   4.027   7.535 -0.6997  0.7521 -0.2871
  170SOPE  C21019203   1.040   3.992   7.728  0.0414  0.3667  0.6019
  170SOPE  H10119204   1.140   4.007   7.771  0.2078  0.0556  0.3296
  170SOPE  C21119205   0.932   3.971   7.832  0.3066 -0.9840  0.1018
  170SOPE  H11R19206   0.834   3.938   7.790  0.2591 -0.9963  0.2201
  170SOPE  H11S19207   0.913   4.074   7.869  2.5563 -0.2880 -0.5569
  170SOPE  C21219208   0.968   3.893   7.961 -0.4954  0.4352  0.0421
  170SOPE  H12R19209   1.000   3.791   7.930  0.8459  0.5586  0.9040
  170SOPE  H12S19210   0.878   3.887   8.026  0.1046  0.4937  0.9076
  170SOPE  C21319211   1.080   3.953   8.042  0.0137  0.1558  0.4675
  170SOPE  H13R19212   1.045   4.058   8.056  2.9583  1.0091  2.4156
  170SOPE  H13S19213   1.183   3.950   8.001 -0.1749  0.2944 -0.0242
  170SOPE  C21419214   1.086   3.893   8.195  0.7935 -0.5924  0.7710
  170SOPE  H14R19215   0.985   3.900   8.240  0.9151 -1.6188  1.2266
  170SOPE  H14S19216   1.154   3.961   8.251 -2.5254  3.4962  0.3655
  170SOPE  C21519217   1.130   3.745   8.201 -0.3258  0.2587 -0.2249
  170SOPE  H15R19218   1.222   3.733   8.140 -0.7448  1.8000 -1.2106
  170SOPE  H15S19219   1.039   3.690   8.168  0.9025 -1.2474 -1.2242
  170SOPE  C21619220   1.167   3.708   8.347 -0.4806  0.5667  0.2090
  170SOPE  H16R19221   1.077   3.696   8.410 -0.3313 -0.1821  0.2867
  170SOPE  H16S19222   1.225   3.795   8.385 -1.2308  0.5905  1.3517
  170SOPE  C21719223   1.248   3.574   8.353  0.3920  0.7733  0.2477
  170SOPE  H17R19224   1.246   3.543   8.460 -2.3892 -0.8426 -0.1790
  170SOPE  H17S19225   1.348   3.596   8.309  0.5777 -1.7725 -0.7579
  170SOPE  C21819226   1.191   3.452   8.285  0.6503  0.4127  0.7404
  170SOPE  H18R19227   1.262   3.368   8.302  1.6045  0.7812 -1.1829
  170SOPE  H18S19228   1.174   3.453   8.175 -2.5107  1.3715  1.1316
  170SOPE  H18T19229   1.093   3.419   8.325  1.0799 -1.5872  0.2444
  170SOPE   C3319230   0.684   4.195   7.106  0.1792  0.5757  0.9512
  170SOPE   H3X19231   0.706   4.086   7.107  1.2420  0.7547 -0.2151
  170SOPE   H3Y19232   0.586   4.211   7.056 -0.0796  1.7176  1.7856
  170SOPE   C3419233   0.660   4.246   7.245  0.1136  0.8632  0.4883
  170SOPE   H4X19234   0.664   4.356   7.241  1.0065  0.8648  0.9879
  170SOPE   H4Y19235   0.747   4.228   7.312  2.0239  2.3795 -1.4395
  170SOPE   C3519236   0.535   4.188   7.311  0.2564  0.1447 -0.3589
  170SOPE   H5X19237   0.550   4.078   7.317 -1.0114 -0.0475 -0.5658
  170SOPE   H5Y19238   0.445   4.212   7.251  1.0752  0.2687 -1.5914
  170SOPE   C3619239   0.503   4.251   7.455 -0.3525  0.6448 -0.5123
  170SOPE   H6X19240   0.399   4.226   7.487  0.4750 -2.7260 -0.0027
  170SOPE   H6Y19241   0.519   4.360   7.458 -0.0276  0.5841  0.0764
  170SOPE   C3719242   0.588   4.186   7.568  0.1578  0.4886  0.3341
  170SOPE   H7X19243   0.689   4.224   7.543 -0.3726  0.3867 -2.1735
  170SOPE   H7Y19244   0.588   4.075   7.569 -0.4180  0.4856  0.3343
  170SOPE   C3819245   0.558   4.253   7.708  0.4100 -0.3401 -0.4048
  170SOPE   H8X19246   0.448   4.251   7.721  0.6029  0.5826  1.6644
  170SOPE   H8Y19247   0.587   4.361   7.705  3.9605 -1.1064  1.0345
  170SOPE   C3919248   0.634   4.191   7.827 -0.2719  0.3968  0.1783
  170SOPE   H9X19249   0.745   4.200   7.821 -0.3674  0.7120 -1.5690
  170SOPE   H9Y19250   0.597   4.086   7.825  1.1250 -0.1950  2.0632
  170SOPE  C31019251   0.580   4.241   7.965 -0.3412  0.4754 -0.0451
  170SOPE  H10X19252   0.469   4.242   7.971 -0.3159 -0.3301  0.6725
  170SOPE  H10Y19253   0.627   4.342   7.975  2.2937 -0.5757 -0.9944
  170SOPE  C31119254   0.640   4.159   8.090  0.0827  0.2480  0.1138
  170SOPE  H11X19255   0.750   4.155   8.073  0.1078  1.7841 -0.2628
  170SOPE  H11Y19256   0.593   4.059   8.083 -1.5518  1.0762 -1.5810
  170SOPE  C31219257   0.601   4.232   8.218 -0.6139 -0.4197 -0.0179
  170SOPE  H12X19258   0.491   4.221   8.230 -0.4761  0.3601  2.4059
  170SOPE  H12Y19259   0.634   4.338   8.213 -2.8973  0.3268 -0.3881
  170SOPE  C31319260   0.663   4.179   8.346  0.1453 -0.3684  0.3837
  170SOPE  H13X19261   0.654   4.069   8.347  0.0259 -0.3921  3.0536
  170SOPE  H13Y19262   0.606   4.210   8.436 -1.8992  0.9277 -1.2710
  170SOPE  C31419263   0.814   4.218   8.357 -0.4904 -0.3862  0.3368
  170SOPE  H14X19264   0.820   4.328   8.368 -2.3753 -0.3201  1.0497
  170SOPE  H14Y19265   0.863   4.182   8.264 -2.1550  0.3140 -0.8556
  170SOPE  C31519266   0.877   4.148   8.477 -0.2739 -1.0556 -0.0712
  170SOPE  H15X19267   0.854   4.040   8.462 -2.2740 -0.5243 -1.1214
  170SOPE  H15Y19268   0.827   4.186   8.569  0.2010  0.4825 -0.4216
  170SOPE  C31619269   1.024   4.171   8.481  0.0289  0.6787 -0.7225
  170SOPE  H16X19270   1.055   4.273   8.513 -0.5708  0.1408  1.7945
  170SOPE  H16Y19271   1.064   4.153   8.379 -2.3455  3.2464 -2.2637
  170SOPE  C31719272   1.086   4.077   8.587  0.1322 -0.2241 -0.0627
  170SOPE  H17X19273   1.033   3.980   8.578 -2.9450  1.0850  2.2251
  170SOPE  H17Y19274   1.058   4.124   8.683  0.8957  0.5318 -0.1943
  170SOPE  C31819275   1.238   4.046   8.566  0.6943 -0.2024 -0.4935
  170SOPE  H18X19276   1.288   3.995   8.652 -1.6818  0.0098  1.1030
  170SOPE  H18Y19277   1.287   4.144   8.547  2.6685 -0.5210  2.3094
  170SOPE  H18Z19278   1.243   3.978   8.478 -0.7540 -2.7806  1.2703
  171SOPE     N19279   1.835   1.110   6.022 -0.5713  0.4921 -0.2522
  171SOPE   HN119280   1.755   1.052   6.057 -0.2103 -0.7560 -1.3938
  171SOPE   HN219281   1.812   1.168   5.939 -0.3300 -0.8227 -1.2773
  171SOPE   HN319282   1.920   1.055   5.999 -0.1446 -0.3546  2.9147
  171SOPE   C1219283   1.893   1.199   6.134  0.5414  0.6503  0.0146
  171SOPE  H12A19284   1.809   1.264   6.166  0.0208  0.2654 -0.5291
  171SOPE  H12B19285   1.971   1.263   6.089  1.1937 -0.0255  0.1688
  171SOPE   C1119286   1.948   1.114   6.251  0.4592 -0.3542  0.1244
  171SOPE  H11A19287   2.013   1.187   6.303  1.1867  0.2955 -1.6393
  171SOPE  H11B19288   2.016   1.032   6.219  2.4642  0.4248  2.1567
  171SOPE     P19289   1.862   1.056   6.494 -0.2058  0.2329  0.2886
  171SOPE   O1319290   1.972   0.960   6.528  0.3944 -0.1782 -0.1543
  171SOPE   O1419291   1.723   1.014   6.536 -0.1558 -0.0334  0.1099
  171SOPE   O1219292   1.848   1.061   6.335 -0.2634 -0.4021 -0.1608
  171SOPE   O1119293   1.889   1.208   6.531 -0.6794 -0.7684 -0.4750
  171SOPE    C119294   1.780   1.297   6.515 -0.0109 -1.0976  0.5669
  171SOPE    HA19295   1.688   1.258   6.467 -0.2548 -1.1469  1.0678
  171SOPE    HB19296   1.809   1.387   6.456 -1.5950  0.6330  2.2833
  171SOPE    C219297   1.724   1.352   6.649  0.3504 -0.0305 -0.0303
  171SOPE    HS19298   1.626   1.400   6.627 -0.0695 -0.9419 -0.1992
  171SOPE   O2119299   1.821   1.440   6.701  0.2617 -0.3255 -0.3672
  171SOPE   C2119300   1.773   1.541   6.769  0.3836  0.5488 -0.1806
  171SOPE   O2219301   1.657   1.553   6.798  0.0601  0.2540 -0.2648
  171SOPE   C2219302   1.886   1.647   6.795 -0.7178  0.0776  0.1357
  171SOPE   H2R19303   1.900   1.703   6.700 -2.2099  1.2945  0.5948
  171SOPE   H2S19304   1.980   1.590   6.809 -0.5123  0.1864 -0.7563
  171SOPE    C319305   1.681   1.236   6.747 -0.2275  0.3681 -0.2061
  171SOPE    HX19306   1.780   1.188   6.762 -0.5370 -0.0579  0.5277
  171SOPE    HY19307   1.618   1.160   6.695 -0.4546  0.9800 -0.8422
  171SOPE   O3119308   1.622   1.283   6.872 -0.1557  0.2132 -0.1882
  171SOPE   C3119309   1.493   1.319   6.856 -0.3220  0.3518 -0.0225
  171SOPE   O3219310   1.429   1.306   6.757  0.0153 -0.0288 -0.0962
  171SOPE   C3219311   1.432   1.375   6.984 -0.7264  0.2137  0.3095
  171SOPE   H2X19312   1.350   1.444   6.955 -0.1734 -0.4114 -3.0562
  171SOPE   H2Y19313   1.509   1.423   7.048 -1.8130  2.3517  0.0995
  171SOPE   C2319314   1.869   1.754   6.899 -0.1367  0.2696  0.0377
  171SOPE   H3R19315   1.771   1.802   6.880 -0.7621 -0.6631  0.7920
  171SOPE   H3S19316   1.952   1.827   6.893 -1.2180  1.6349  1.0127
  171SOPE   C2419317   1.862   1.696   7.038 -0.8632  0.4149 -0.3102
  171SOPE   H4R19318   1.773   1.631   7.054 -0.1347 -0.5945 -0.2859
  171SOPE   H4S19319   1.949   1.638   7.075 -1.5503 -0.1617  0.4294
  171SOPE   C2519320   1.850   1.808   7.148  0.4957 -0.8458  0.6643
  171SOPE   H5R19321   1.920   1.890   7.120 -2.0031  0.4029 -2.6011
  171SOPE   H5S19322   1.746   1.847   7.150  0.6936 -0.2851  0.2553
  171SOPE   C2619323   1.872   1.763   7.290  0.2847  0.1553  0.0352
  171SOPE   H6R19324   1.822   1.664   7.303  1.3466 -0.1432  2.1807
  171SOPE   H6S19325   1.981   1.745   7.296  0.3851  0.1813 -1.3859
  171SOPE   C2719326   1.839   1.880   7.390 -0.1130  0.0739  0.3428
  171SOPE   H7R19327   1.889   1.968   7.345  3.1593 -0.0655  3.2539
  171SOPE   H7S19328   1.729   1.885   7.406 -0.1629 -0.3763  0.1574
  171SOPE   C2819329   1.899   1.846   7.529 -0.0595 -0.0605  0.6618
  171SOPE   H8R19330   1.850   1.754   7.569  0.3898  0.2123  1.8750
  171SOPE   H8S19331   2.006   1.819   7.520 -0.1925  0.0209 -2.1259
  171SOPE   C2919332   1.865   1.958   7.613 -0.2825  0.1011 -0.5150
  171SOPE   H9119333   1.852   2.048   7.552 -0.8272 -0.5958 -1.4559
  171SOPE  C21019334   1.840   1.966   7.745  0.1584 -0.3089 -0.3071
  171SOPE  H10119335   1.824   2.070   7.779 -0.2537 -0.2803 -0.5912
  171SOPE  C21119336   1.838   1.852   7.842  0.0985  0.5790  0.0818
  171SOPE  H11R19337   1.824   1.753   7.793 -1.8141  1.6897 -1.7221
  171SOPE  H11S19338   1.751   1.853   7.910  1.2987 -1.0146  1.7756
  171SOPE  C21219339   1.958   1.845   7.941  0.1462  0.1360  0.0013
  171SOPE  H12R19340   2.049   1.826   7.880  0.4828  1.8884 -0.0935
  171SOPE  H12S19341   1.932   1.750   7.992 -1.9790 -0.0325 -1.3042
  171SOPE  C21319342   1.987   1.960   8.030 -0.1340 -0.6414 -0.2361
  171SOPE  H13R19343   1.893   1.988   8.082  0.4143  0.4207  0.2039
  171SOPE  H13S19344   2.034   2.039   7.968 -1.0875 -0.9801 -1.4302
  171SOPE  C21419345   2.091   1.918   8.142  0.0129  0.0183  0.5374
  171SOPE  H14R19346   2.189   1.903   8.093  0.1881  0.5580  0.7104
  171SOPE  H14S19347   2.062   1.820   8.184 -1.1386 -0.5699 -1.4773
  171SOPE  C21519348   2.105   2.015   8.259 -0.5040 -0.0453  0.6024
  171SOPE  H15R19349   2.018   2.080   8.282  1.7435  2.6769  2.1261
  171SOPE  H15S19350   2.183   2.091   8.236 -0.0113  0.2755  2.9835
  171SOPE  C21619351   2.163   1.938   8.378  0.3657  0.0956  0.3367
  171SOPE  H16R19352   2.265   1.895   8.366 -0.2012 -0.8132 -1.9073
  171SOPE  H16S19353   2.101   1.849   8.402  1.9141 -0.3517  3.0242
  171SOPE  C21719354   2.161   2.020   8.508  0.3635  0.4935 -0.4407
  171SOPE  H17R19355   2.228   2.108   8.499 -1.6906  2.5347  2.2175
  171SOPE  H17S19356   2.199   1.954   8.589  1.3168  1.8624  0.2708
  171SOPE  C21819357   2.028   2.070   8.567  0.4830  0.7251  0.5113
  171SOPE  H18R19358   2.052   2.105   8.669 -2.4108  0.8552  1.2302
  171SOPE  H18S19359   1.968   1.980   8.590  0.9744  0.6541  1.5492
  171SOPE  H18T19360   1.988   2.142   8.492 -0.0307 -0.2356 -0.1702
  171SOPE   C3319361   1.375   1.246   7.048 -0.8364 -0.0565  0.1102
  171SOPE   H3X19362   1.453   1.166   7.050 -0.5342  0.2069 -0.5767
  171SOPE   H3Y19363   1.289   1.208   6.989 -1.6127  1.3766  0.2965
  171SOPE   C3419364   1.320   1.258   7.188 -0.5985  0.2048  0.2982
  171SOPE   H4X19365   1.272   1.162   7.219 -2.1821  1.3404  1.5872
  171SOPE   H4Y19366   1.239   1.334   7.191  0.2077  1.0593  1.4297
  171SOPE   C3519367   1.417   1.286   7.302  0.6013  0.4539 -0.8605
  171SOPE   H5X19368   1.459   1.387   7.284  1.0068  0.3672 -0.4290
  171SOPE   H5Y19369   1.496   1.207   7.297 -0.6147 -0.9560  0.7888
  171SOPE   C3619370   1.343   1.274   7.436 -0.4070  0.4751 -0.0517
  171SOPE   H6X19371   1.245   1.326   7.445 -2.5464 -2.8765 -1.9358
  171SOPE   H6Y19372   1.409   1.325   7.510  1.1803 -1.2619 -0.1958
  171SOPE   C3719373   1.307   1.131   7.479  0.6001  0.3286  0.8294
  171SOPE   H7X19374   1.381   1.052   7.458 -0.2369 -0.0972 -0.6254
  171SOPE   H7Y19375   1.225   1.105   7.409  1.3498 -0.9081  0.3905
  171SOPE   C3819376   1.225   1.107   7.610  0.0536  0.0095  0.0453
  171SOPE   H8X19377   1.198   1.000   7.617 -0.0893 -0.2148 -2.8072
  171SOPE   H8Y19378   1.125   1.156   7.601 -0.2052 -0.4603  0.3329
  171SOPE   C3919379   1.290   1.165   7.731 -0.0046  0.1042 -0.2501
  171SOPE   H9X19380   1.305   1.274   7.722 -0.7324  0.3261  1.0712
  171SOPE   H9Y19381   1.394   1.128   7.742  0.4915  1.6396  0.4879
  171SOPE  C31019382   1.214   1.145   7.860  0.0961 -0.1256 -0.0568
  171SOPE  H10X19383   1.203   1.038   7.888  1.2293 -0.7364 -1.7798
  171SOPE  H10Y19384   1.109   1.180   7.853 -0.4272 -1.4528  0.8471
  171SOPE  C31119385   1.279   1.207   7.989  0.3324  0.0669  0.5761
  171SOPE  H11X19386   1.289   1.317   7.973  1.6854 -0.1968 -0.5661
  171SOPE  H11Y19387   1.383   1.177   8.016 -0.0166 -1.2592  0.5111
  171SOPE  C31219388   1.196   1.174   8.115 -0.0516  0.0737  0.4195
  171SOPE  H12X19389   1.151   1.074   8.101 -2.4069  1.2714 -1.4465
  171SOPE  H12Y19390   1.101   1.232   8.121 -1.6340 -2.3212 -0.4052
  171SOPE  C31319391   1.269   1.194   8.242 -0.0993  0.2597  0.1068
  171SOPE  H13X19392   1.198   1.208   8.326 -0.2372 -3.5605  0.7936
  171SOPE  H13Y19393   1.320   1.291   8.224 -0.3077 -0.1643 -3.6379
  171SOPE  C31419394   1.365   1.084   8.278  0.0308  0.2724 -0.4390
  171SOPE  H14X19395   1.447   1.079   8.203 -1.0457 -2.5582 -1.5845
  171SOPE  H14Y19396   1.320   0.982   8.279  1.3623 -0.3770  1.6008
  171SOPE  C31519397   1.432   1.117   8.414  0.9808  0.3136  0.3136
  171SOPE  H15X19398   1.360   1.109   8.498 -0.0001  1.1161 -0.4104
  171SOPE  H15Y19399   1.474   1.219   8.401  0.2221  0.6986  0.8039
  171SOPE  C31619400   1.543   1.012   8.442 -0.4267  0.4501 -0.1671
  171SOPE  H16X19401   1.617   1.001   8.360  1.2363  2.6731  0.9399
  171SOPE  H16Y19402   1.493   0.918   8.474  0.3172 -0.3385 -1.2635
  171SOPE  C31719403   1.638   1.063   8.544 -0.1001  0.7985 -0.2146
  171SOPE  H17X19404   1.582   1.084   8.638  1.8787 -1.9153  1.7167
  171SOPE  H17Y19405   1.681   1.161   8.514 -1.2055  2.2613  2.6516
  171SOPE  C31819406   1.750   0.966   8.595  0.2657  0.1041  0.3546
  171SOPE  H18X19407   1.809   1.015   8.675  0.7849 -0.5841  0.4025
  171SOPE  H18Y19408   1.820   0.943   8.512  2.8557  1.9448  1.8660
  171SOPE  H18Z19409   1.697   0.878   8.638 -2.0949  0.2584 -1.9419
  172SOPE     N19410   2.175   3.104   6.343 -0.2415  0.2373 -0.3136
  172SOPE   HN119411   2.225   3.060   6.263  0.8964  0.0041  0.5075
  172SOPE   HN219412   2.132   3.039   6.411  0.4452  1.6578  1.5618
  172SOPE   HN319413   2.090   3.157   6.314 -0.0372  2.0974  2.2198
  172SOPE   C1219414   2.270   3.198   6.421  0.3915 -0.3100  0.5505
  172SOPE  H12A19415   2.329   3.253   6.345 -0.2022 -0.2794  0.1071
  172SOPE  H12B19416   2.339   3.133   6.478  0.2828 -1.9486 -1.0733
  172SOPE   C1119417   2.180   3.289   6.513 -0.6590 -0.3754 -0.2883
  172SOPE  H11A19418   2.263   3.351   6.553 -0.3409 -0.8220 -0.2428
  172SOPE  H11B19419   2.134   3.226   6.592  0.8766 -0.0044  0.9422
  172SOPE     P19420   1.935   3.354   6.491  0.3486  0.4754 -0.5883
  172SOPE   O1319421   1.896   3.213   6.494  0.5047  0.1109  0.5794
  172SOPE   O1419422   1.862   3.440   6.399 -0.0492 -0.2323 -0.4345
  172SOPE   O1219423   2.087   3.369   6.445 -0.0789 -0.1073  0.4350
  172SOPE   O1119424   1.929   3.413   6.635  0.2487  0.0582  0.0307
  172SOPE    C119425   1.887   3.548   6.667 -0.7432  0.0904  0.0017
  172SOPE    HA19426   1.908   3.616   6.582  3.1179 -0.2809  0.5008
  172SOPE    HB19427   1.929   3.580   6.764 -2.8832 -1.3104  1.4674
  172SOPE    C219428   1.736   3.557   6.698  0.1543 -0.4324  0.2056
  172SOPE    HS19429   1.684   3.527   6.605 -0.7509  1.3909  0.0915
  172SOPE   O2119430   1.701   3.691   6.749 -0.0515 -0.3421  0.0486
  172SOPE   C2119431   1.579   3.713   6.753  0.5957 -0.4201 -0.6498
  172SOPE   O2219432   1.492   3.645   6.692  0.0928  0.0160 -0.1605
  172SOPE   C2219433   1.556   3.832   6.843 -0.4488  0.2160  0.1081
  172SOPE   H2R19434   1.471   3.891   6.801 -0.5579 -1.3097 -2.0040
  172SOPE   H2S19435   1.643   3.899   6.853  0.9036 -1.4338 -0.0563
  172SOPE    C319436   1.692   3.448   6.801 -0.0729  0.7175 -0.2928
  172SOPE    HX19437   1.725   3.350   6.761 -2.1003  0.0848 -0.5354
  172SOPE    HY19438   1.581   3.443   6.810 -0.1759  3.4316  0.7741
  172SOPE   O3119439   1.743   3.465   6.931 -0.5054  0.2697 -0.0993
  172SOPE   C3119440   1.708   3.374   7.013 -0.3005  1.1929  0.1576
  172SOPE   O3219441   1.660   3.265   6.987  0.3793  0.5641 -0.6275
  172SOPE   C3219442   1.745   3.425   7.148  0.4936  0.8972 -0.1325
  172SOPE   H2X19443   1.771   3.533   7.143  3.7320  0.2120 -0.8998
  172SOPE   H2Y19444   1.828   3.366   7.194 -2.0570 -0.9375  2.4444
  172SOPE   C2319445   1.529   3.770   6.982 -0.1429 -0.4186  0.8510
  172SOPE   H3R19446   1.611   3.706   7.022 -1.8439 -4.1263 -0.9965
  172SOPE   H3S19447   1.442   3.701   6.983  1.0563 -2.0450 -0.1347
  172SOPE   C2419448   1.509   3.872   7.093  0.0221 -0.5372  0.5274
  172SOPE   H4R19449   1.607   3.924   7.102 -0.6178  0.8411 -0.1592
  172SOPE   H4S19450   1.424   3.933   7.056  0.2174 -2.0619 -2.8434
  172SOPE   C2519451   1.479   3.809   7.228 -0.3067  0.5060  0.5152
  172SOPE   H5R19452   1.378   3.763   7.227 -0.0608 -0.2059  2.5712
  172SOPE   H5S19453   1.548   3.728   7.259  0.8892  1.1155 -0.4625
  172SOPE   C2619454   1.485   3.900   7.351  0.5622 -0.1307  0.5213
  172SOPE   H6R19455   1.584   3.947   7.336 -0.0558  0.5576 -1.7459
  172SOPE   H6S19456   1.409   3.980   7.338 -0.1378 -1.0797 -1.7572
  172SOPE   C2719457   1.460   3.828   7.480  0.3488  0.1152  0.0258
  172SOPE   H7R19458   1.365   3.775   7.457  0.0701  0.2263  0.8738
  172SOPE   H7S19459   1.531   3.743   7.490 -0.7990 -1.0855 -1.4552
  172SOPE   C2819460   1.433   3.909   7.602  0.1990 -0.4547 -0.0885
  172SOPE   H8R19461   1.529   3.955   7.632  0.0133 -0.1720  0.0891
  172SOPE   H8S19462   1.358   3.991   7.586 -0.7106 -1.4786 -1.2641
  172SOPE   C2919463   1.368   3.820   7.708 -0.3113  0.3669 -0.5221
  172SOPE   H9119464   1.280   3.765   7.672 -1.5460  1.2393  0.9844
  172SOPE  C21019465   1.411   3.817   7.842  0.0431  0.5468  0.6482
  172SOPE  H10119466   1.354   3.758   7.915 -0.3650  1.0381  0.7310
  172SOPE  C21119467   1.518   3.899   7.898  0.6446  0.9677 -0.1754
  172SOPE  H11R19468   1.492   3.920   8.005 -0.4101  2.8683 -0.7574
  172SOPE  H11S19469   1.502   3.995   7.846 -0.7240  0.3143 -1.0264
  172SOPE  C21219470   1.661   3.842   7.892 -0.1025 -0.1586  0.3162
  172SOPE  H12R19471   1.692   3.815   7.789  3.1575  0.7431  0.9296
  172SOPE  H12S19472   1.686   3.757   7.959  1.0632  0.8069  1.1586
  172SOPE  C21319473   1.762   3.956   7.931 -0.5417  0.2126 -0.3193
  172SOPE  H13R19474   1.764   4.032   7.851 -0.9484 -0.0127 -0.5465
  172SOPE  H13S19475   1.866   3.918   7.921 -0.8190 -1.1038  1.2985
  172SOPE  C21419476   1.755   4.035   8.063 -0.4387 -0.2472  0.2222
  172SOPE  H14R19477   1.659   4.090   8.073 -1.3465 -1.9566  1.3756
  172SOPE  H14S19478   1.844   4.102   8.065 -0.2890 -0.2057 -2.6945
  172SOPE  C21519479   1.758   3.944   8.187  0.0092  0.1529  0.1701
  172SOPE  H15R19480   1.865   3.922   8.208  0.3901  2.2549  0.6232
  172SOPE  H15S19481   1.702   3.849   8.172  0.9371 -0.7064  1.8316
  172SOPE  C21619482   1.696   3.999   8.318 -0.4729  0.1153 -0.5171
  172SOPE  H16R19483   1.748   4.094   8.342  1.3149 -0.8627 -0.2976
  172SOPE  H16S19484   1.705   3.932   8.406 -0.7672 -0.7921 -1.1609
  172SOPE  C21719485   1.544   4.008   8.317 -0.1526 -0.0840  0.5530
  172SOPE  H17R19486   1.521   4.089   8.244  1.4824  0.5574  0.7017
  172SOPE  H17S19487   1.516   4.044   8.419  1.2415  1.5986  0.3916
  172SOPE  C21819488   1.460   3.877   8.290 -0.2913 -0.5216  0.1142
  172SOPE  H18R19489   1.514   3.795   8.239  1.1606  0.6203 -0.2406
  172SOPE  H18S19490   1.361   3.895   8.241 -0.3804  0.8092  0.7303
  172SOPE  H18T19491   1.435   3.840   8.392  1.8236 -1.0524  0.4881
  172SOPE   C3319492   1.630   3.409   7.254  0.1145 -0.0817  0.7396
  172SOPE   H3X19493   1.610   3.300   7.261 -3.3174  0.3435 -0.7258
  172SOPE   H3Y19494   1.538   3.466   7.230  1.5909  1.3692 -1.9706
  172SOPE   C3419495   1.675   3.454   7.398 -0.3439 -0.7362  0.1104
  172SOPE   H4X19496   1.713   3.558   7.385  1.7287 -1.7215 -2.7629
  172SOPE   H4Y19497   1.759   3.394   7.439 -0.3870 -1.2875 -0.5986
  172SOPE   C3519498   1.566   3.446   7.502 -0.0483 -0.2520 -0.4569
  172SOPE   H5X19499   1.529   3.341   7.501  0.1127 -0.3105 -1.4668
  172SOPE   H5Y19500   1.479   3.510   7.482  0.3298  0.2787 -0.4197
  172SOPE   C3619501   1.615   3.485   7.642 -0.1349 -0.0499 -0.3202
  172SOPE   H6X19502   1.642   3.592   7.650 -0.2624  0.1170 -1.8594
  172SOPE   H6Y19503   1.711   3.429   7.643 -0.6415 -0.9496 -0.9907
  172SOPE   C3719504   1.523   3.429   7.756 -0.3483  0.7004 -0.1771
  172SOPE   H7X19505   1.490   3.330   7.719 -1.6789  1.7437 -1.9550
  172SOPE   H7Y19506   1.424   3.479   7.766 -2.1125 -2.1386 -2.1975
  172SOPE   C3819507   1.597   3.416   7.891  0.1792 -0.0895 -0.7762
  172SOPE   H8X19508   1.630   3.514   7.930 -3.3712  0.2712  1.7802
  172SOPE   H8Y19509   1.683   3.347   7.874 -0.1930 -1.2810  1.7094
  172SOPE   C3919510   1.510   3.357   8.004  0.2221 -0.5390  0.3264
  172SOPE   H9X19511   1.450   3.272   7.964 -3.4735  2.4979 -1.2602
  172SOPE   H9Y19512   1.441   3.428   8.054  3.2692  0.7277  3.0062
  172SOPE  C31019513   1.593   3.292   8.108  0.4479 -0.2882 -0.1073
  172SOPE  H10X19514   1.650   3.215   8.052  0.8996  0.7900 -1.1584
  172SOPE  H10Y19515   1.530   3.238   8.183 -0.7663  1.6920  0.3740
  172SOPE  C31119516   1.703   3.381   8.177  0.5847 -0.5045  0.1320
  172SOPE  H11X19517   1.761   3.420   8.090  1.7902 -0.0917  1.0883
  172SOPE  H11Y19518   1.772   3.333   8.249  2.2588 -1.8390 -2.2074
  172SOPE  C31219519   1.642   3.501   8.248  0.6197 -0.5141  0.5022
  172SOPE  H12X19520   1.556   3.463   8.307 -1.4190 -1.0541 -2.6023
  172SOPE  H12Y19521   1.590   3.559   8.169  1.2880 -1.1223 -0.4048
  172SOPE  C31319522   1.742   3.586   8.326  0.5934 -0.1317 -0.0941
  172SOPE  H13X19523   1.683   3.679   8.342 -1.1347 -1.1420 -0.3277
  172SOPE  H13Y19524   1.828   3.617   8.263 -1.5020  1.3420 -2.4283
  172SOPE  C31419525   1.783   3.530   8.460  0.4477 -0.6797  0.1761
  172SOPE  H14X19526   1.759   3.424   8.479 -2.2760 -0.2956 -0.7115
  172SOPE  H14Y19527   1.732   3.585   8.542 -0.7299 -1.8189  0.2459
  172SOPE  C31519528   1.935   3.555   8.485 -1.0282 -0.0037 -0.9236
  172SOPE  H15X19529   1.957   3.544   8.593  2.9256  0.7400 -1.4792
  172SOPE  H15Y19530   1.942   3.664   8.462 -1.4463  0.2328  0.0242
  172SOPE  C31619531   2.026   3.478   8.390 -0.4989 -0.3297  0.2941
  172SOPE  H16X19532   2.026   3.514   8.285  1.9408 -1.1411 -0.0506
  172SOPE  H16Y19533   1.989   3.373   8.382  1.4231 -0.9484 -1.5633
  172SOPE  C31719534   2.172   3.465   8.433 -0.3292  0.5621 -0.0634
  172SOPE  H17X19535   2.180   3.454   8.543 -0.1054  0.7470 -0.0619
  172SOPE  H17Y19536   2.219   3.559   8.398 -0.3519  0.8314  0.6348
  172SOPE  C31819537   2.232   3.343   8.359  0.5479  0.0226  0.0422
  172SOPE  H18X19538   2.339   3.332   8.385  0.8000  1.7432 -0.1275
  172SOPE  H18Y19539   2.233   3.361   8.249  0.7597 -0.4515 -0.0339
  172SOPE  H18Z19540   2.178   3.248   8.378  0.0547  0.1868 -0.4900
  173SAPI   C1219541   2.872   3.457  10.856  0.6569 -0.0374  0.4243
  173SAPI    H219542   2.909   3.521  10.939  0.9382  0.2963  0.0443
  173SAPI    O219543   2.970   3.352  10.841  0.0580 -0.2502  0.0942
  173SAPI   HO219544   3.044   3.401  10.806  0.0059  1.0518  1.6625
  173SAPI   C1319545   2.741   3.408  10.912  0.8715 -0.1349 -0.2268
  173SAPI    H319546   2.667   3.490  10.931 -0.8175 -1.3921 -1.1081
  173SAPI    O319547   2.762   3.344  11.038  0.3093 -0.4078 -0.8488
  173SAPI   HO319548   2.851   3.308  11.029  0.0243 -1.3649  0.0409
  173SAPI   C1419549   2.675   3.311  10.818 -0.4703 -0.3245 -0.7487
  173SAPI    H419550   2.755   3.236  10.797 -0.7640 -0.6126 -0.8398
  173SAPI    O419551   2.565   3.240  10.873  0.4810 -0.1935  0.6373
  173SAPI   HO419552   2.509   3.209  10.801  2.7314 -0.2950 -1.1930
  173SAPI   C1519553   2.636   3.389  10.689 -0.1033  0.5729  0.4476
  173SAPI    H519554   2.558   3.466  10.710 -1.2105  0.0146 -1.4040
  173SAPI    O519555   2.578   3.301  10.592  0.0911  0.2247 -0.1437
  173SAPI   HO519556   2.581   3.352  10.511  0.3151  1.9764  0.9184
  173SAPI   C1619557   2.764   3.451  10.628  0.0028 -0.4501  0.5324
  173SAPI    H619558   2.834   3.367  10.606  0.4446  0.1150 -0.2831
  173SAPI    O619559   2.733   3.527  10.511  0.3853  0.0933  0.1527
  173SAPI   HO619560   2.677   3.600  10.537  0.1188  0.3592 -1.1155
  173SAPI   C1119561   2.845   3.534  10.730  0.0915 -0.6031  0.3370
  173SAPI    H119562   2.784   3.621  10.763  0.3001 -0.1713 -0.3880
  173SAPI     P19563   3.031   3.729  10.674  0.0193 -0.2025 -0.3566
  173SAPI   O1319564   3.171   3.714  10.708 -0.5013 -0.0901  0.2273
  173SAPI   O1419565   2.956   3.820  10.759  0.3118 -0.3264  0.0799
  173SAPI   O1219566   2.971   3.576  10.672  0.2675  0.7518  0.0942
  173SAPI   O1119567   3.028   3.775  10.524 -0.1655 -0.6796 -0.8012
  173SAPI    C119568   3.093   3.889  10.463 -0.0394  0.6634 -0.1144
  173SAPI    HA19569   3.185   3.909  10.522 -0.4253 -0.1732  0.7995
  173SAPI    HB19570   3.113   3.862  10.357  0.9179  0.6230  0.0663
  173SAPI    C219571   3.005   4.014  10.478  0.2055 -0.1322  0.2599
  173SAPI    HS19572   2.967   3.997  10.581 -2.1821 -0.8441 -0.6765
  173SAPI   O2119573   2.903   4.009  10.381  0.2859  1.1716 -0.4060
  173SAPI   C2119574   2.777   4.022  10.412  0.0334 -0.2329  0.3842
  173SAPI   O2219575   2.722   4.041  10.518 -0.1187  0.1014 -0.3713
  173SAPI   C2219576   2.689   4.018  10.278  0.1461  0.3628 -0.2003
  173SAPI   H2R19577   2.592   4.069  10.295 -1.8036 -2.4922 -1.8488
  173SAPI   H2S19578   2.738   4.094  10.214  0.8669  0.5985  0.6081
  173SAPI    C319579   3.067   4.145  10.454  0.5371 -0.8473 -0.0228
  173SAPI    HX19580   3.140   4.163  10.537 -0.3245 -1.1739  0.8228
  173SAPI    HY19581   3.003   4.235  10.464  1.7696  0.1088 -0.3954
  173SAPI   O3119582   3.131   4.148  10.327 -0.4267  0.0834  0.3665
  173SAPI   C3119583   3.212   4.254  10.318 -0.3757  0.4489  0.3974
  173SAPI   O3219584   3.227   4.341  10.402 -0.2301 -0.0667 -0.1165
  173SAPI   C3219585   3.290   4.252  10.185  0.6928 -0.0362 -0.4295
  173SAPI   H2X19586   3.222   4.242  10.098  0.9590 -2.6790 -0.4381
  173SAPI   H2Y19587   3.350   4.159  10.197 -0.9185 -0.8034  3.0613
  173SAPI   C2319588   2.671   3.888  10.207 -0.1284  0.4866  0.3220
  173SAPI   H3R19589   2.627   3.800  10.258  0.9890  0.0204  0.5152
  173SAPI   H3S19590   2.772   3.849  10.182 -0.4063  0.5405 -0.9410
  173SAPI   C2419591   2.610   3.905  10.067  0.4059 -0.4772 -0.3957
  173SAPI   H4R19592   2.608   3.807  10.014  0.2269 -0.6499 -0.0761
  173SAPI   H4S19593   2.682   3.966  10.009  2.1815 -2.4634 -0.4227
  173SAPI   C2519594   2.472   3.967  10.057  0.5054  0.3394  0.1171
  173SAPI   H5R19595   2.403   3.958  10.142 -0.7047 -1.7512 -0.9870
  173SAPI   C2619596   2.426   4.021   9.941 -0.3582 -0.5840 -0.2300
  173SAPI   H6R19597   2.322   4.056   9.947 -0.5297 -0.5025 -2.6459
  173SAPI   C2719598   2.488   4.048   9.811 -0.5507 -0.4243 -0.1583
  173SAPI   H7R19599   2.598   4.032   9.814 -0.6606 -1.1147  0.4725
  173SAPI   H7S19600   2.477   4.158   9.795 -0.7461 -0.3639  0.3839
  173SAPI   C2819601   2.435   3.968   9.693  0.9752 -0.2553  0.0874
  173SAPI   H8R19602   2.365   3.886   9.715 -0.0420 -0.0706 -2.1927
  173SAPI   C2919603   2.460   3.993   9.563 -0.2882 -0.0561  0.1354
  173SAPI   H9R19604   2.408   3.929   9.489 -0.4399 -0.7028  0.7943
  173SAPI  C21019605   2.535   4.100   9.491 -0.4214  0.1464  0.0248
  173SAPI  H10R19606   2.532   4.202   9.536  2.1625  0.0596  0.5505
  173SAPI  H10S19607   2.503   4.112   9.385 -1.0902  1.6900  0.3718
  173SAPI  C21119608   2.687   4.084   9.507  0.8982  0.3485  0.4961
  173SAPI  H11R19609   2.717   4.017   9.588  0.1329  0.9834  1.3238
  173SAPI  C21219610   2.775   4.157   9.439  0.3271 -0.1931  0.3563
  173SAPI  H12R19611   2.879   4.160   9.472 -0.0541  0.8035  1.5164
  173SAPI  C21319612   2.742   4.257   9.324  0.2794 -0.4918 -0.3414
  173SAPI  H13R19613   2.803   4.349   9.340  0.8518 -0.5990 -1.7929
  173SAPI  H13S19614   2.636   4.291   9.316  0.5381 -0.1094 -2.9021
  173SAPI  C21419615   2.775   4.199   9.190 -0.2716 -0.1514 -0.4311
  173SAPI  H14R19616   2.807   4.094   9.187  1.9159  0.4041  0.9167
  173SAPI  C21519617   2.773   4.256   9.070 -0.0990  0.5991 -0.2213
  173SAPI  H15R19618   2.806   4.204   8.979  2.2277 -0.5707  1.1878
  173SAPI  C21619619   2.738   4.401   9.054 -0.0586  0.1327  0.0325
  173SAPI  H16R19620   2.834   4.445   9.020 -0.1448  1.0052  0.8547
  173SAPI  H16S19621   2.724   4.452   9.152 -0.6863 -2.9045  1.6456
  173SAPI  C21719622   2.612   4.434   8.979  0.1412  0.9433  0.6900
  173SAPI  H17R19623   2.589   4.542   8.997  2.7662  1.1203  3.6098
  173SAPI  H17S19624   2.528   4.371   9.016  0.5013  0.3722  0.5352
  173SAPI  C21819625   2.610   4.398   8.831  0.9640  0.3366 -0.0796
  173SAPI  H18R19626   2.636   4.292   8.811 -1.3976  0.1308 -2.8445
  173SAPI  H18S19627   2.693   4.447   8.775  0.7323 -0.3330 -1.0501
  173SAPI  C21919628   2.477   4.431   8.757  0.5551  0.0493 -0.5336
  173SAPI  H19R19629   2.449   4.527   8.806  1.5673  0.0951 -0.0075
  173SAPI  H19S19630   2.389   4.371   8.786  0.5836  0.8240  1.3101
  173SAPI  C22019631   2.485   4.435   8.609 -0.0246 -0.0669  0.5799
  173SAPI  H20R19632   2.555   4.508   8.563 -2.3053  2.0860  0.3432
  173SAPI  H20S19633   2.382   4.461   8.580 -0.4148 -1.9202  0.1644
  173SAPI  H20T19634   2.499   4.332   8.570 -1.0852 -0.6249  1.6140
  173SAPI   C3319635   3.376   4.381  10.157 -0.4145  0.2546 -0.1442
  173SAPI   H3X19636   3.472   4.369  10.102 -0.7634 -0.4671 -0.6085
  173SAPI   H3Y19637   3.403   4.432  10.252 -1.1856  1.4179 -0.5309
  173SAPI   C3419638   3.295   4.484  10.075  0.6049  1.2482 -0.0702
  173SAPI   H4X19639   3.191   4.493  10.112  1.3825  1.6808  2.1630
  173SAPI   H4Y19640   3.289   4.435   9.975  0.4370 -0.5097  0.7618
  173SAPI   C3519641   3.365   4.610  10.075 -0.3592  0.2254 -0.3059
  173SAPI   H5X19642   3.473   4.597  10.057 -0.3035  0.4284 -0.1233
  173SAPI   H5Y19643   3.350   4.661  10.172 -0.7958 -2.5394  1.1571
  173SAPI   C3619644   3.313   4.703   9.960 -0.2767 -0.0425 -0.3502
  173SAPI   H6X19645   3.351   4.805   9.980  0.5253 -0.2064 -0.9694
  173SAPI   H6Y19646   3.202   4.716   9.963 -0.0634  3.1289 -1.8512
  173SAPI   C3719647   3.360   4.680   9.813 -0.0251  0.3993  0.2413
  173SAPI   H7X19648   3.364   4.571   9.793 -2.0804  0.8324 -3.4056
  173SAPI   H7Y19649   3.461   4.724   9.797 -0.1961  0.8362  0.3315
  173SAPI   C3819650   3.272   4.746   9.713  0.3683 -0.4703  0.0549
  173SAPI   H8X19651   3.276   4.858   9.713 -1.0332 -0.3932 -1.0117
  173SAPI   H8Y19652   3.169   4.727   9.749  1.4925 -3.4204  2.0277
  173SAPI   C3919653   3.276   4.694   9.563  0.8881 -0.2077  0.1690
  173SAPI   H9X19654   3.277   4.584   9.579  0.6843 -0.1007  0.9435
  173SAPI   H9Y19655   3.373   4.728   9.520  0.1726 -0.4277 -1.7405
  173SAPI  C31019656   3.156   4.746   9.488  0.0966  0.5615 -0.6418
  173SAPI  H10X19657   3.162   4.856   9.493 -2.4638  0.7232  0.2277
  173SAPI  H10Y19658   3.061   4.709   9.533  0.4495 -0.7789 -0.9512
  173SAPI  C31119659   3.156   4.700   9.346 -0.1497 -0.1726  1.0527
  173SAPI  H11X19660   3.059   4.740   9.311  1.3081  0.5975 -2.4587
  173SAPI  H11Y19661   3.160   4.589   9.344 -1.1188 -0.2015 -0.9665
  173SAPI  C31219662   3.254   4.758   9.242  0.1740 -0.0530  0.1004
  173SAPI  H12X19663   3.325   4.686   9.197  1.8429 -0.2033  2.7985
  173SAPI  H12Y19664   3.313   4.838   9.292 -1.4732  0.9583  0.5236
  173SAPI  C31319665   3.173   4.831   9.133  0.6397  0.1085  0.3135
  173SAPI  H13X19666   3.106   4.911   9.169  0.2724  0.5383 -1.2489
  173SAPI  H13Y19667   3.120   4.754   9.073  1.3526  1.6522 -2.4704
  173SAPI  C31419668   3.267   4.890   9.024  0.3032 -0.2032 -0.4828
  173SAPI  H14X19669   3.353   4.823   9.003  0.5830  0.2651 -0.8831
  173SAPI  H14Y19670   3.308   4.988   9.058 -1.0574  0.3743 -0.4419
  173SAPI  C31519671   3.196   4.904   8.891  1.1693 -0.3327  0.3157
  173SAPI  H15X19672   3.146   5.003   8.890  1.1989 -0.3095  0.9851
  173SAPI  H15Y19673   3.131   4.814   8.880  0.7155 -0.0074  0.3291
  173SAPI  C31619674   3.298   4.899   8.772 -0.4672  0.0305  0.0934
  173SAPI  H16X19675   3.355   4.804   8.782 -1.8261 -0.9327 -0.9135
  173SAPI  H16Y19676   3.376   4.975   8.788  0.5243 -0.8058 -0.5900
  173SAPI  C31719677   3.236   4.910   8.632  0.6746 -0.8145  0.0037
  173SAPI  H17X19678   3.151   4.838   8.627  0.2873 -0.4943  1.4799
  173SAPI  H17Y19679   3.309   4.872   8.557  0.9756 -0.0209 -0.1063
  173SAPI  C31819680   3.177   5.049   8.586 -0.2479 -0.2427  0.0439
  173SAPI  H18X19681   3.119   5.038   8.491 -0.4108  1.5411 -0.0870
  173SAPI  H18Y19682   3.253   5.128   8.576 -1.8178  1.3963  0.6060
  173SAPI  H18Z19683   3.101   5.079   8.660  0.0335  1.5402 -0.3608
  174SAPI   C1219684   0.314   5.650  11.043 -0.1167  0.7616 -0.3648
  174SAPI    H219685   0.350   5.585  11.125 -4.1081 -1.3812 -0.0599
  174SAPI    O219686   0.197   5.708  11.091  0.2088 -0.2465  0.5656
  174SAPI   HO219687   0.147   5.647  11.145 -1.3506 -1.1753 -1.7798
  174SAPI   C1319688   0.410   5.759  11.000  0.8676  0.5410  1.1856
  174SAPI    H319689   0.499   5.707  10.959 -0.2812  0.0081 -0.7487
  174SAPI    O319690   0.457   5.832  11.114 -0.1728  0.2180  0.5352
  174SAPI   HO319691   0.375   5.854  11.160 -0.9948  2.4589 -1.7608
  174SAPI   C1419692   0.359   5.836  10.879  0.1682 -0.5888 -0.0546
  174SAPI    H419693   0.264   5.888  10.903  0.3546 -0.2837  0.0270
  174SAPI    O419694   0.452   5.938  10.830 -0.1175  0.6930 -0.4433
  174SAPI   HO419695   0.447   5.932  10.734 -0.3444  0.3347 -0.4087
  174SAPI   C1519696   0.322   5.740  10.768 -0.2119 -0.6288  0.7281
  174SAPI    H519697   0.417   5.686  10.747  1.8579  3.3150 -1.2438
  174SAPI    O519698   0.297   5.806  10.647 -0.3624  0.1323  0.1287
  174SAPI   HO519699   0.217   5.858  10.651 -0.1506  0.5329 -0.5705
  174SAPI   C1619700   0.215   5.645  10.816 -0.3935 -0.0416  0.5637
  174SAPI    H619701   0.129   5.709  10.843  1.8094  2.5083  2.0800
  174SAPI    O619702   0.166   5.554  10.712  0.4582  0.0216  0.7001
  174SAPI   HO619703   0.090   5.508  10.750  1.2420 -0.0313  2.2726
  174SAPI   C1119704   0.272   5.561  10.929  0.0121  0.0525  0.0967
  174SAPI    H119705   0.369   5.523  10.891 -0.0906  0.2612 -0.3840
  174SAPI     P19706   0.238   5.308  10.996  0.0512 -0.2230  0.4028
  174SAPI   O1319707   0.153   5.247  11.099 -0.2707  0.0710 -0.5109
  174SAPI   O1419708   0.385   5.316  11.017 -0.1209 -0.4140  0.5886
  174SAPI   O1219709   0.178   5.462  10.970 -0.0621 -0.3417  0.1466
  174SAPI   O1119710   0.209   5.235  10.858 -0.1812 -0.1053  0.1417
  174SAPI    C119711   0.084   5.241  10.795  0.5932  0.7544 -0.0793
  174SAPI    HA19712  -0.000   5.290  10.849 -0.2219  0.6073 -1.1983
  174SAPI    HB19713   0.101   5.280  10.693  0.4642 -0.0236 -0.4029
  174SAPI    C219714   0.032   5.092  10.768 -0.4098 -0.8795  0.3094
  174SAPI    HS19715   0.033   5.036  10.864 -1.0035 -0.2351  0.7061
  174SAPI   O2119716   0.104   5.030  10.663  0.3716 -0.7973  0.1536
  174SAPI   C2119717   0.198   4.938  10.688  0.0114  0.2816  0.3956
  174SAPI   O2219718   0.223   4.896  10.802  0.1523 -0.1669  0.0416
  174SAPI   C2219719   0.271   4.908  10.560  0.0502  0.4570 -0.6535
  174SAPI   H2R19720   0.347   4.988  10.557  0.7337 -0.1979 -1.4699
  174SAPI   H2S19721   0.326   4.812  10.574  1.7976  1.5290  0.0210
  174SAPI    C319722  -0.120   5.101  10.736  0.2769  0.8010 -0.6131
  174SAPI    HX19723  -0.167   5.156  10.820 -0.8019  2.5211 -2.2602
  174SAPI    HY19724  -0.163   4.998  10.735  1.8057  0.1039  0.6313
  174SAPI   O3119725  -0.154   5.172  10.619  0.2662 -0.5951  0.5109
  174SAPI   C3119726  -0.151   5.104  10.499 -0.1900 -0.4781  0.3108
  174SAPI   O3219727  -0.138   4.982  10.486  0.2849 -0.3381 -0.1912
  174SAPI   C3219728  -0.156   5.203  10.381  0.3663  0.4819 -0.0129
  174SAPI   H2X19729  -0.118   5.300  10.419  0.0102  0.6306 -0.0288
  174SAPI   H2Y19730  -0.266   5.204  10.362 -0.2435  0.5437  2.9812
  174SAPI   C2319731   0.184   4.905  10.425  0.4364  0.5413  0.1094
  174SAPI   H3R19732   0.155   5.008  10.394 -0.9710  0.1437  0.0214
  174SAPI   H3S19733   0.090   4.851  10.449  0.0942  1.9994  2.3243
  174SAPI   C2419734   0.239   4.814  10.308  1.0385 -0.8572  0.0408
  174SAPI   H4R19735   0.155   4.793  10.239 -1.0993 -0.0330  2.2584
  174SAPI   H4S19736   0.268   4.725  10.369  0.8549 -0.5109  0.6405
  174SAPI   C2519737   0.347   4.893  10.239 -0.1484 -0.7706  0.1233
  174SAPI   H5R19738   0.413   4.944  10.311 -2.5028  3.7745 -0.6047
  174SAPI   C2619739   0.384   4.887  10.107  0.4115  0.1752 -0.7260
  174SAPI   H6R19740   0.469   4.943  10.066  1.7108 -0.3262  1.1756
  174SAPI   C2719741   0.309   4.805  10.003 -0.4498 -0.5962 -0.5660
  174SAPI   H7R19742   0.199   4.812  10.018 -0.2623  0.3281  0.5347
  174SAPI   H7S19743   0.348   4.702  10.021  0.0667 -0.1108  1.2948
  174SAPI   C2819744   0.350   4.851   9.865  0.9121 -1.1085 -0.2632
  174SAPI   H8R19745   0.444   4.909   9.860  0.5750 -0.5876 -0.7020
  174SAPI   C2919746   0.294   4.835   9.743  0.5028  0.1856  0.1804
  174SAPI   H9R19747   0.341   4.869   9.650  0.8508 -1.6854 -0.3657
  174SAPI  C21019748   0.177   4.745   9.713  1.2891 -0.2201 -0.1131
  174SAPI  H10R19749   0.132   4.751   9.611  0.5514 -3.3484 -0.0670
  174SAPI  H10S19750   0.103   4.770   9.791  0.8171  0.2567 -0.7018
  174SAPI  C21119751   0.223   4.604   9.735 -0.6169  0.0142 -0.5417
  174SAPI  H11R19752   0.228   4.563   9.837 -0.9346 -0.7016 -0.8033
  174SAPI  C21219753   0.283   4.529   9.648  0.1944 -0.2519  0.1704
  174SAPI  H12R19754   0.310   4.430   9.687  0.7287 -0.0466  0.3293
  174SAPI  C21319755   0.314   4.574   9.507  0.3388 -0.5606 -0.0139
  174SAPI  H13R19756   0.370   4.670   9.500 -0.1490 -0.3414 -1.2559
  174SAPI  H13S19757   0.218   4.592   9.456 -0.1581  0.2362  1.1721
  174SAPI  C21419758   0.407   4.480   9.440  0.7776  0.0122  0.0250
  174SAPI  H14R19759   0.466   4.414   9.505  0.3013 -0.0388  0.4105
  174SAPI  C21519760   0.445   4.470   9.313  0.2939 -0.0491  0.8994
  174SAPI  H15R19761   0.513   4.393   9.274 -0.2322 -0.0932  0.0343
  174SAPI  C21619762   0.381   4.551   9.200  0.1518 -0.7231  0.0963
  174SAPI  H16R19763   0.453   4.619   9.150 -1.6156  0.5209 -0.8944
  174SAPI  H16S19764   0.313   4.623   9.252  1.4418  0.6854 -0.0968
  174SAPI  C21719765   0.302   4.485   9.093  0.4952 -0.0832 -0.0040
  174SAPI  H17R19766   0.255   4.556   9.021 -3.2872 -1.3430  0.9699
  174SAPI  H17S19767   0.217   4.426   9.133 -0.7954  1.1988 -0.7445
  174SAPI  C21819768   0.379   4.389   8.999 -0.4952 -0.9591 -0.1582
  174SAPI  H18R19769   0.299   4.356   8.929 -1.9151  0.9606  0.4580
  174SAPI  H18S19770   0.418   4.302   9.056 -1.2558 -1.3179 -0.1743
  174SAPI  C21919771   0.491   4.462   8.917 -0.3770 -0.1273 -0.3637
  174SAPI  H19R19772   0.556   4.536   8.970  0.3203 -0.7611 -0.3073
  174SAPI  H19S19773   0.452   4.518   8.830 -0.3351  0.0424 -0.2735
  174SAPI  C22019774   0.582   4.348   8.869  0.0117  0.3189  0.2711
  174SAPI  H20R19775   0.617   4.298   8.963 -2.3421 -0.9295  0.5716
  174SAPI  H20S19776   0.668   4.375   8.804  0.1880 -0.6325  0.0872
  174SAPI  H20T19777   0.524   4.273   8.811  3.3017  0.1533 -3.1977
  174SAPI   C3319778  -0.071   5.161  10.266  0.1698  0.2882  0.7361
  174SAPI   H3X19779   0.038   5.160  10.287  0.4052  2.2015 -0.1366
  174SAPI   H3Y19780  -0.065   5.249  10.198 -0.3823 -0.2010  0.0438
  174SAPI   C3419781  -0.127   5.038  10.191  0.0692  0.1086 -0.5817
  174SAPI   H4X19782  -0.238   5.052  10.194  0.0859  0.1441  0.8273
  174SAPI   H4Y19783  -0.106   4.947  10.251 -0.7745 -0.1251 -0.6187
  174SAPI   C3519784  -0.076   5.005  10.045 -0.1712 -0.2548  0.0363
  174SAPI   H5X19785   0.029   4.970  10.043  0.6534  2.1042 -0.4440
  174SAPI   H5Y19786  -0.087   5.094   9.980  0.5524  0.8074  1.3188
  174SAPI   C3619787  -0.148   4.888   9.987 -0.0844 -0.2496  0.1912
  174SAPI   H6X19788  -0.167   4.818  10.071  3.4636  0.1501  1.4572
  174SAPI   H6Y19789  -0.087   4.828   9.917 -1.4485 -0.9073 -0.4871
  174SAPI   C3719790  -0.286   4.934   9.911 -0.9023  0.1508  0.7207
  174SAPI   H7X19791  -0.350   4.982   9.988 -1.3738  1.6870 -0.5769
  174SAPI   H7Y19792  -0.332   4.837   9.880 -0.9260  0.8156 -1.4867
  174SAPI   C3819793  -0.268   5.031   9.791  0.0688  0.1218  0.2270
  174SAPI   H8X19794  -0.189   4.989   9.725 -0.8688  1.5020 -1.9089
  174SAPI   H8Y19795  -0.223   5.130   9.817  1.9451 -0.7277  0.3931
  174SAPI   C3919796  -0.395   5.055   9.711 -0.1727 -0.7045 -0.0384
  174SAPI   H9X19797  -0.485   5.099   9.759 -1.8417  0.6499 -4.0192
  174SAPI   H9Y19798  -0.429   4.963   9.659 -2.4138  0.1693 -0.2614
  174SAPI  C31019799  -0.371   5.160   9.602  0.7807 -1.0301  0.5652
  174SAPI  H10X19800  -0.315   5.114   9.518 -0.1384  0.5354 -0.9827
  174SAPI  H10Y19801  -0.304   5.243   9.633  0.9767 -0.6577 -0.7976
  174SAPI  C31119802  -0.499   5.204   9.540  0.3327 -0.2812  0.1656
  174SAPI  H11X19803  -0.563   5.246   9.621  1.4411 -0.8218  1.3534
  174SAPI  H11Y19804  -0.560   5.125   9.491 -0.7835  0.3967  0.4209
  174SAPI  C31219805  -0.491   5.328   9.439 -0.1795 -0.0518  0.1602
  174SAPI  H12X19806  -0.418   5.404   9.474 -2.7870  2.1833  1.1254
  174SAPI  H12Y19807  -0.587   5.384   9.445 -1.1433 -1.4691 -1.1951
  174SAPI  C31319808  -0.464   5.291   9.291  0.4158  0.6871 -0.0938
  174SAPI  H13X19809  -0.364   5.243   9.281  1.0757  1.8596  0.5795
  174SAPI  H13Y19810  -0.463   5.384   9.230  0.3164  0.5942 -0.2347
  174SAPI  C31419811  -0.576   5.200   9.246  0.1656  0.1951  0.9425
  174SAPI  H14X19812  -0.674   5.246   9.271 -0.5758 -1.0248  0.4014
  174SAPI  H14Y19813  -0.550   5.101   9.287  3.5502  0.4681 -0.2169
  174SAPI  C31519814  -0.576   5.180   9.087 -0.3635  0.2441  0.1357
  174SAPI  H15X19815  -0.577   5.277   9.033  0.8554 -0.9221 -2.1206
  174SAPI  H15Y19816  -0.665   5.119   9.060 -1.7321  2.2996 -0.2635
  174SAPI  C31619817  -0.445   5.116   9.044 -0.4708  0.0173  0.0082
  174SAPI  H16X19818  -0.444   5.020   9.100 -2.4793  0.7511  1.4133
  174SAPI  H16Y19819  -0.360   5.177   9.079  1.0246 -2.3535  0.7383
  174SAPI  C31719820  -0.435   5.091   8.893  0.6596  0.0436  0.1217
  174SAPI  H17X19821  -0.443   5.190   8.843  0.1689  0.1535  0.4095
  174SAPI  H17Y19822  -0.518   5.023   8.864  0.3098  0.0227  1.1289
  174SAPI  C31819823  -0.300   5.028   8.851 -0.0812 -0.6878  0.5296
  174SAPI  H18X19824  -0.214   5.093   8.877 -2.0431  1.4305  2.0763
  174SAPI  H18Y19825  -0.308   4.998   8.744  1.9971 -0.0050  0.1492
  174SAPI  H18Z19826  -0.281   4.940   8.916  0.1059  0.2751  1.7991
  175SAPI   C1219827   2.851   2.497   6.006  0.0346  0.2230  0.2959
  175SAPI    H219828   2.952   2.450   5.999  0.1370  0.3198  1.0534
  175SAPI    O219829   2.864   2.624   6.069  0.2606  0.2562  0.0460
  175SAPI   HO219830   2.871   2.613   6.164 -0.9205  1.2686  0.2838
  175SAPI   C1319831   2.785   2.506   5.863  0.4308 -0.0893  0.6454
  175SAPI    H319832   2.767   2.403   5.824 -0.0283 -0.3834  1.5989
  175SAPI    O319833   2.864   2.576   5.768 -0.1875  0.6511 -0.1422
  175SAPI   HO319834   2.898   2.663   5.790 -1.2139  1.3701 -1.2239
  175SAPI   C1419835   2.649   2.572   5.874 -0.8255  0.8740 -0.0476
  175SAPI    H419836   2.665   2.666   5.930  0.5823 -0.0833  1.2131
  175SAPI    O419837   2.588   2.587   5.743 -0.4497  0.0504  0.5884
  175SAPI   HO419838   2.642   2.643   5.687 -0.8102  1.6759  1.7845
  175SAPI   C1519839   2.561   2.483   5.967  0.0364  0.4780  0.7784
  175SAPI    H519840   2.555   2.384   5.917  0.8056  0.1074  1.4071
  175SAPI    O519841   2.426   2.529   5.972 -0.1320  0.2977 -0.6251
  175SAPI   HO519842   2.425   2.623   5.957  0.5237  0.7352  1.6889
  175SAPI   C1619843   2.627   2.457   6.105 -0.4468 -0.8623 -0.1651
  175SAPI    H619844   2.627   2.549   6.168  3.2304 -1.2908  0.7005
  175SAPI    O619845   2.560   2.369   6.188 -0.1193  0.1852  0.4098
  175SAPI   HO619846   2.636   2.340   6.238  1.7233 -0.1456 -2.3266
  175SAPI   C1119847   2.771   2.403   6.088 -0.3035  0.1240  0.2465
  175SAPI    H119848   2.768   2.305   6.034 -3.4265  0.1013  0.2950
  175SAPI     P19849   2.943   2.275   6.250 -0.1301  0.4664 -0.3364
  175SAPI   O1319850   3.058   2.339   6.314  0.2068  0.2641 -0.0641
  175SAPI   O1419851   2.962   2.172   6.144 -0.3668 -0.1216 -0.6468
  175SAPI   O1219852   2.826   2.385   6.218  0.1185 -0.2008 -0.1731
  175SAPI   O1119853   2.866   2.196   6.364  0.0208  1.0281 -0.9405
  175SAPI    C119854   2.829   2.254   6.484  0.2382 -0.1305  0.0800
  175SAPI    HA19855   2.891   2.342   6.510 -0.2840  0.0697  0.7067
  175SAPI    HB19856   2.724   2.287   6.467 -0.1299 -0.3433  1.7319
  175SAPI    C219857   2.845   2.148   6.600  0.7897  0.2609 -0.1262
  175SAPI    HS19858   2.806   2.057   6.549  1.3925 -0.2977  0.3962
  175SAPI   O2119859   2.765   2.195   6.711 -0.4975 -0.2294  0.7662
  175SAPI   C2119860   2.740   2.093   6.793 -0.5724 -0.4418  0.1982
  175SAPI   O2219861   2.762   1.975   6.767  0.1141  0.0051 -0.6925
  175SAPI   C2219862   2.668   2.150   6.916  0.0325 -0.2314 -0.3251
  175SAPI   H2R19863   2.708   2.248   6.948 -1.2272  0.3805 -0.5425
  175SAPI   H2S19864   2.563   2.164   6.883 -0.2735 -4.1440 -1.4487
  175SAPI    C319865   2.995   2.131   6.636  0.4436 -0.0615 -0.3289
  175SAPI    HX19866   3.059   2.101   6.551  1.9441 -2.5557  1.5105
  175SAPI    HY19867   3.002   2.050   6.712  0.8185  2.7180  2.8492
  175SAPI   O3119868   3.059   2.247   6.692  0.4027  0.3241 -0.0310
  175SAPI   C3119869   3.065   2.257   6.823  0.0217 -0.3308 -0.0635
  175SAPI   O3219870   3.026   2.185   6.907  0.4312  0.9185 -0.0137
  175SAPI   C3219871   3.125   2.396   6.858 -0.3945  0.2654  0.5652
  175SAPI   H2X19872   3.103   2.474   6.782 -0.6827  1.4055  1.7629
  175SAPI   H2Y19873   3.235   2.380   6.855 -0.5432 -0.7067  0.0203
  175SAPI   C2319874   2.650   2.056   7.046 -0.3053  0.8733 -0.0154
  175SAPI   H3R19875   2.599   1.961   7.018  0.6057 -0.0846  1.4503
  175SAPI   H3S19876   2.584   2.106   7.120  1.5047  0.3691  2.0460
  175SAPI   C2419877   2.767   2.011   7.127  0.1711  0.1658 -0.2467
  175SAPI   H4R19878   2.824   1.944   7.058  0.1620 -1.4710  1.2775
  175SAPI   H4S19879   2.735   1.946   7.211  0.2816  2.9424  2.0803
  175SAPI   C2519880   2.856   2.123   7.172 -0.1151  0.0886  0.2475
  175SAPI   H5R19881   2.867   2.202   7.096 -0.7247 -1.3641 -1.4269
  175SAPI   C2619882   2.918   2.138   7.287  0.5159  0.1305  0.3117
  175SAPI   H6R19883   2.986   2.224   7.295  0.2716  0.5739 -1.8055
  175SAPI   C2719884   2.895   2.045   7.407  0.7991  0.5360 -0.3096
  175SAPI   H7R19885   2.992   2.009   7.446  0.7143 -2.1117 -2.2807
  175SAPI   H7S19886   2.846   1.948   7.384  0.0031  0.5333  1.2823
  175SAPI   C2819887   2.820   2.121   7.515  0.2980 -0.1044 -0.4105
  175SAPI   H8R19888   2.783   2.222   7.492  1.6832  0.2474 -1.1666
  175SAPI   C2919889   2.784   2.075   7.637 -0.1718  0.8704  0.5213
  175SAPI   H9R19890   2.723   2.140   7.702  0.6370  1.7757  0.4132
  175SAPI  C21019891   2.807   1.936   7.703  0.3195 -0.3025 -0.4223
  175SAPI  H10R19892   2.864   1.948   7.797 -0.2789 -0.6296 -0.0162
  175SAPI  H10S19893   2.872   1.881   7.631  0.1889  1.0785 -1.6498
  175SAPI  C21119894   2.678   1.848   7.721  0.6172  0.0892 -0.1283
  175SAPI  H11R19895   2.604   1.850   7.640 -1.1992 -0.0853  1.4747
  175SAPI  C21219896   2.644   1.769   7.823  0.4939 -0.0709 -0.8404
  175SAPI  H12R19897   2.556   1.703   7.817 -0.2485  0.8687 -0.4015
  175SAPI  C21319898   2.732   1.733   7.945  0.1065 -0.9976 -0.3021
  175SAPI  H13R19899   2.833   1.713   7.903  0.1847 -1.1715 -0.0344
  175SAPI  H13S19900   2.694   1.641   7.993 -0.3301 -0.6312  0.0592
  175SAPI  C21419901   2.736   1.846   8.046 -0.1336  0.4173  0.7958
  175SAPI  H14R19902   2.741   1.949   8.009 -3.6188 -0.0837 -1.5963
  175SAPI  C21519903   2.708   1.828   8.178  0.1725  0.2296  0.0748
  175SAPI  H15R19904   2.689   1.916   8.241  0.8583 -0.4087  1.2061
  175SAPI  C21619905   2.686   1.695   8.249  0.4084 -0.1542  0.0195
  175SAPI  H16R19906   2.769   1.621   8.242 -0.6519 -1.4272  0.5961
  175SAPI  H16S19907   2.597   1.647   8.203  0.0672  1.4443 -1.0991
  175SAPI  C21719908   2.669   1.707   8.397  0.2128  0.1801 -0.9847
  175SAPI  H17R19909   2.599   1.791   8.415  2.4799  1.7988  0.8232
  175SAPI  H17S19910   2.770   1.735   8.432  1.3357 -3.0347 -1.2810
  175SAPI  C21819911   2.639   1.576   8.470 -0.3254  0.0572  0.2719
  175SAPI  H18R19912   2.669   1.585   8.577 -1.6241 -1.2129  0.7762
  175SAPI  H18S19913   2.694   1.495   8.417  1.7741  0.6731  1.3908
  175SAPI  C21919914   2.490   1.553   8.459  0.0719  0.1077 -0.2656
  175SAPI  H19R19915   2.453   1.542   8.355  1.9599 -1.4284 -0.8406
  175SAPI  H19S19916   2.445   1.650   8.489 -1.5890 -0.6479 -0.2281
  175SAPI  C22019917   2.423   1.438   8.549  0.0607 -0.2398  0.4315
  175SAPI  H20R19918   2.312   1.436   8.536 -0.1275  1.2121  1.4975
  175SAPI  H20S19919   2.429   1.447   8.660 -1.6904  0.4627  0.5066
  175SAPI  H20T19920   2.469   1.340   8.523 -2.3221 -1.0478 -1.0864
  175SAPI   C3319921   3.088   2.460   6.991 -0.2242  0.2046 -0.5515
  175SAPI   H3X19922   2.979   2.457   7.013 -0.0964 -0.4855  0.0560
  175SAPI   H3Y19923   3.119   2.566   6.985 -2.3343  1.0279  1.4318
  175SAPI   C3419924   3.170   2.401   7.110  0.3593  1.3876  0.0781
  175SAPI   H4X19925   3.273   2.395   7.071  0.5961  0.4651  0.8145
  175SAPI   H4Y19926   3.123   2.301   7.124 -0.1280  1.5527 -0.3357
  175SAPI   C3519927   3.154   2.480   7.238 -0.3809 -0.3340 -0.9218
  175SAPI   H5X19928   3.061   2.454   7.293  0.2511 -0.5805  0.0433
  175SAPI   H5Y19929   3.166   2.590   7.225 -2.0525  0.0760  0.5292
  175SAPI   C3619930   3.269   2.462   7.341 -0.5266 -0.0581 -0.2593
  175SAPI   H6X19931   3.359   2.509   7.297 -1.7428  1.2197 -1.4793
  175SAPI   H6Y19932   3.284   2.352   7.349  0.6514  0.0638 -0.6912
  175SAPI   C3719933   3.235   2.504   7.488 -0.2191 -0.0214 -0.4702
  175SAPI   H7X19934   3.213   2.613   7.483  2.8934  0.6954 -0.8841
  175SAPI   H7Y19935   3.323   2.506   7.555 -1.6161  1.8220  1.4278
  175SAPI   C3819936   3.134   2.409   7.560  0.0112  0.0985  0.5332
  175SAPI   H8X19937   3.140   2.310   7.509 -0.3903  0.3753 -0.0619
  175SAPI   H8Y19938   3.030   2.445   7.544  0.6049  1.6303  0.0126
  175SAPI   C3919939   3.159   2.394   7.702  0.1440  0.1349  0.0017
  175SAPI   H9X19940   3.172   2.497   7.742  0.4791  0.0208  0.1896
  175SAPI   H9Y19941   3.260   2.348   7.699  1.0352  2.0247 -0.1679
  175SAPI  C31019942   3.055   2.318   7.786  0.1098  0.9227 -0.6786
  175SAPI  H10X19943   3.026   2.217   7.750 -0.4260  0.5525  0.7159
  175SAPI  H10Y19944   2.964   2.382   7.795 -0.8974 -0.5685  0.1407
  175SAPI  C31119945   3.093   2.285   7.936 -0.1160 -0.0381 -0.0117
  175SAPI  H11X19946   3.105   2.373   8.001 -1.1968 -0.8317  1.3105
  175SAPI  H11Y19947   3.186   2.225   7.929 -0.9581 -1.1933 -3.8139
  175SAPI  C31219948   2.991   2.190   8.005 -0.0302 -0.0502 -0.4417
  175SAPI  H12X19949   2.967   2.104   7.940  1.1971 -0.9384  0.2307
  175SAPI  H12Y19950   2.894   2.243   8.010  0.8645  1.5851  0.3376
  175SAPI  C31319951   3.053   2.151   8.141  0.5096 -0.0610  0.4196
  175SAPI  H13X19952   3.095   2.241   8.190 -2.2944  1.5692  0.0373
  175SAPI  H13Y19953   3.138   2.080   8.135  2.5099  2.3096 -1.6253
  175SAPI  C31419954   2.949   2.108   8.241 -0.4890 -0.0228  0.2679
  175SAPI  H14X19955   2.904   2.016   8.198  2.0407 -1.4810  0.5275
  175SAPI  H14Y19956   2.862   2.177   8.247  0.6179  1.8572 -2.6841
  175SAPI  C31519957   3.011   2.082   8.380 -0.3580 -0.2555  0.6837
  175SAPI  H15X19958   3.033   2.178   8.431  1.5244  0.1097 -0.6854
  175SAPI  H15Y19959   3.097   2.012   8.370 -0.6409 -0.5658  0.3853
  175SAPI  C31619960   2.910   2.001   8.474 -0.1872 -0.0018 -0.1111
  175SAPI  H16X19961   2.906   1.894   8.446 -3.7048  0.5545 -2.3436
  175SAPI  H16Y19962   2.811   2.052   8.473  0.7939  2.0698  1.1048
  175SAPI  C31719963   2.951   1.997   8.625  1.0512  0.4018 -0.1949
  175SAPI  H17X19964   2.934   2.102   8.657  1.2086  0.1710  0.6824
  175SAPI  H17Y19965   3.057   1.963   8.635  0.2211 -2.0757  1.0780
  175SAPI  C31819966   2.863   1.909   8.710 -0.4176  0.3901  0.3179
  175SAPI  H18X19967   2.896   1.803   8.707 -0.4895  0.3573  0.6379
  175SAPI  H18Y19968   2.760   1.904   8.669  0.1242  0.4270 -1.0973
  175SAPI  H18Z19969   2.868   1.950   8.813 -2.8620  1.9781 -0.1142
  176SAPI   C1219970   3.168   0.141   6.792 -0.2882  0.1739  0.3183
  176SAPI    H219971   3.188   0.057   6.723 -0.4570 -0.4193  0.9770
  176SAPI    O219972   3.127   0.259   6.725  0.3232  0.0650 -0.0943
  176SAPI   HO219973   3.207   0.291   6.683  0.8044  0.1966  0.8957
  176SAPI   C1319974   3.066   0.096   6.896  0.3061 -0.1538  0.5144
  176SAPI    H319975   3.106   0.003   6.941  3.0460 -0.4141 -2.1327
  176SAPI    O319976   2.936   0.064   6.840  0.0093 -0.5784 -0.4153
  176SAPI   HO319977   2.896   0.006   6.905 -1.0446 -1.3362 -1.6899
  176SAPI   C1419978   3.050   0.199   7.007 -0.3668  0.2521  0.2204
  176SAPI    H419979   3.019   0.292   6.955 -1.7069 -0.3938 -0.1792
  176SAPI    O419980   2.941   0.162   7.096 -0.4030 -0.4439 -0.1006
  176SAPI   HO419981   2.901   0.244   7.128  0.7426 -0.0596  0.4185
  176SAPI   C1519982   3.182   0.211   7.080 -0.1744 -0.2777 -0.5234
  176SAPI    H519983   3.225   0.118   7.121  0.8649 -0.8175 -2.6976
  176SAPI    O519984   3.177   0.300   7.196  0.2465  0.2557  0.8501
  176SAPI   HO519985   3.268   0.326   7.215  1.3248 -1.9307 -0.8218
  176SAPI   C1619986   3.284   0.260   6.983  0.2440 -0.7889 -0.5886
  176SAPI    H619987   3.255   0.360   6.946  2.4247 -0.0089 -0.3582
  176SAPI    O619988   3.415   0.276   7.039  0.0544  0.5426 -0.9322
  176SAPI   HO619989   3.462   0.202   7.000  0.1215 -1.3429  2.3505
  176SAPI   C1119990   3.295   0.160   6.864  0.4896 -0.5243 -0.4679
  176SAPI    H119991   3.319   0.066   6.918  0.9771 -0.3320 -0.3414
  176SAPI     P19992   3.519   0.085   6.727 -0.3454 -0.0309  0.0131
  176SAPI   O1319993   3.557   0.113   6.588  0.7010 -0.5328 -0.0134
  176SAPI   O1419994   3.471  -0.049   6.755 -0.2074  0.4785  0.1649
  176SAPI   O1219995   3.410   0.194   6.776  0.2749 -0.9522 -0.3992
  176SAPI   O1119996   3.650   0.116   6.812 -0.2268  0.1548 -0.3244
  176SAPI    C119997   3.713   0.237   6.826  0.4290  0.3448  0.0349
  176SAPI    HA19998   3.755   0.271   6.729 -1.4919  1.1890 -0.5459
  176SAPI    HB19999   3.645   0.309   6.875 -0.2927 -1.4898  1.8888
  176SAPI    C220000   3.825   0.229   6.933 -0.3474 -0.1875 -0.2389
  176SAPI    HS20001   3.913   0.170   6.899 -0.9992 -1.9180  0.9507
  176SAPI   O2120002   3.772   0.178   7.055  1.0282  0.1680 -0.1510
  176SAPI   C2120003   3.781   0.050   7.088 -0.9077  0.2081 -0.7561
  176SAPI   O2220004   3.864  -0.025   7.036  0.5128 -0.0607 -0.0045
  176SAPI   C2220005   3.675   0.015   7.188  0.3308 -0.1458 -0.3305
  176SAPI   H2R20006   3.581   0.048   7.139  1.0127 -0.7493 -2.1377
  176SAPI   H2S20007   3.679  -0.096   7.182  1.6021 -0.0384 -4.0306
  176SAPI    C320008   3.877   0.371   6.975  0.2371 -0.2749  0.6191
  176SAPI    HX20009   3.791   0.441   6.963 -0.2552 -1.0333 -0.3990
  176SAPI    HY20010   3.947   0.385   6.889  3.1594 -0.0035  2.8804
  176SAPI   O3120011   3.933   0.379   7.107 -0.4351  0.8076  0.1791
  176SAPI   C3120012   4.044   0.305   7.120  0.2535 -0.1378  0.9140
  176SAPI   O3220013   4.114   0.258   7.034 -0.1489  0.5428  0.2356
  176SAPI   C3220014   4.076   0.287   7.271 -0.2334  0.2704  0.5124
  176SAPI   H2X20015   3.988   0.234   7.312  1.0652 -1.5062  1.1409
  176SAPI   H2Y20016   4.085   0.385   7.322  2.1226 -0.3139  1.3557
  176SAPI   C2320017   3.718   0.049   7.324  0.0983 -0.5518 -0.0952
  176SAPI   H3R20018   3.822   0.013   7.345 -0.7914 -2.3489  1.5835
  176SAPI   H3S20019   3.652  -0.011   7.390 -0.9707  1.7279  0.9794
  176SAPI   C2420020   3.719   0.197   7.373 -0.5957  0.6240  0.6997
  176SAPI   H4R20021   3.760   0.271   7.300  1.2621 -0.9648  0.0467
  176SAPI   H4S20022   3.781   0.213   7.463  1.3026  1.3435 -0.6629
  176SAPI   C2520023   3.578   0.244   7.401  0.1979  0.7167 -0.1402
  176SAPI   H5R20024   3.512   0.259   7.315 -0.1456  1.5386  0.2637
  176SAPI   C2620025   3.524   0.263   7.522  0.4082  0.4884  0.7887
  176SAPI   H6R20026   3.421   0.302   7.524  0.7268  1.3593  0.6318
  176SAPI   C2720027   3.590   0.256   7.654  0.0656  0.1843  0.0768
  176SAPI   H7R20028   3.518   0.307   7.722  0.5756 -0.1666  0.8819
  176SAPI   H7S20029   3.679   0.323   7.656 -0.2410  0.6221 -0.4953
  176SAPI   C2820030   3.625   0.114   7.692 -0.1891 -0.2813 -0.3291
  176SAPI   H8R20031   3.618   0.038   7.613  0.8158 -2.9521  1.9876
  176SAPI   C2920032   3.654   0.066   7.813 -0.3333  0.0770  0.6683
  176SAPI   H9R20033   3.684  -0.039   7.820 -1.7242 -0.4003 -0.1623
  176SAPI  C21020034   3.661   0.147   7.939 -0.3591 -0.1824 -0.3686
  176SAPI  H10R20035   3.590   0.232   7.936  3.2255  3.0154 -0.9729
  176SAPI  H10S20036   3.763   0.190   7.942 -0.3152 -0.2503 -0.8452
  176SAPI  C21120037   3.626   0.066   8.063 -0.0956 -0.4652  0.0893
  176SAPI  H11R20038   3.602  -0.040   8.047 -1.3893 -0.6281  2.6021
  176SAPI  C21220039   3.624   0.110   8.191 -0.6356  0.2342  0.2205
  176SAPI  H12R20040   3.612   0.031   8.268  2.6622 -0.6500 -0.0512
  176SAPI  C21320041   3.654   0.249   8.230 -0.2464 -0.2816  0.1957
  176SAPI  H13R20042   3.562   0.293   8.273 -0.4746 -0.4076 -0.1629
  176SAPI  H13S20043   3.677   0.310   8.140  0.8528  0.5316  0.9987
  176SAPI  C21420044   3.767   0.255   8.330 -0.3863  0.4466  1.0197
  176SAPI  H14R20045   3.844   0.181   8.302 -2.9739 -1.8373 -0.5065
  176SAPI  C21520046   3.786   0.317   8.447  0.0641  0.2235 -0.8201
  176SAPI  H15R20047   3.881   0.289   8.495 -0.4575 -0.6747 -0.2791
  176SAPI  C21620048   3.690   0.404   8.518  0.0189 -0.6710  0.5440
  176SAPI  H16R20049   3.598   0.390   8.456  0.4878 -0.3851 -0.2288
  176SAPI  H16S20050   3.720   0.507   8.490 -1.3456 -0.7966 -1.6802
  176SAPI  C21720051   3.670   0.375   8.667 -0.2678 -0.0873  0.3198
  176SAPI  H17R20052   3.660   0.264   8.678 -2.7887  0.2175  1.9946
  176SAPI  H17S20053   3.564   0.402   8.685 -0.5839 -0.9871 -0.1341
  176SAPI  C21820054   3.753   0.461   8.766  0.1045  0.0936 -0.1474
  176SAPI  H18R20055   3.706   0.560   8.748 -1.1936  0.0172  2.3477
  176SAPI  H18S20056   3.859   0.473   8.735  0.9189 -0.2253  2.3013
  176SAPI  C21920057   3.736   0.425   8.912 -0.7836  0.1149  0.7299
  176SAPI  H19R20058   3.786   0.326   8.922 -0.3475  0.3042  0.4766
  176SAPI  H19S20059   3.629   0.404   8.931 -1.1578  0.4865 -0.8364
  176SAPI  C22020060   3.816   0.519   9.003  0.3427 -0.1334  0.9131
  176SAPI  H20R20061   3.927   0.512   8.994  0.3783 -2.6056  2.5006
  176SAPI  H20S20062   3.809   0.485   9.108  0.3711 -1.0898  0.6094
  176SAPI  H20T20063   3.774   0.622   9.001 -1.3226 -0.7676  1.8749
  176SAPI   C3320064   4.195   0.192   7.309  1.1191 -0.0177 -0.0522
  176SAPI   H3X20065   4.293   0.245   7.308  1.1947 -0.1459 -1.5372
  176SAPI   H3Y20066   4.202   0.099   7.248  0.2516 -1.9567  2.6466
  176SAPI   C3420067   4.174   0.148   7.453 -0.1402 -0.5508  0.6141
  176SAPI   H4X20068   4.219   0.046   7.448 -2.1175 -1.5937  2.5543
  176SAPI   H4Y20069   4.070   0.132   7.487 -0.1992  0.7751  1.0993
  176SAPI   C3520070   4.253   0.241   7.545  0.8487 -0.1660 -0.0336
  176SAPI   H5X20071   4.202   0.245   7.644 -0.7003 -2.1167 -0.6856
  176SAPI   H5Y20072   4.250   0.345   7.504  0.7557  0.5237  1.6294
  176SAPI   C3620073   4.397   0.200   7.576  0.1806  0.0758 -0.8169
  176SAPI   H6X20074   4.448   0.186   7.478 -0.2867  0.8123 -1.1773
  176SAPI   H6Y20075   4.411   0.100   7.623  2.1560  0.7406  0.1456
  176SAPI   C3720076   4.473   0.298   7.667 -0.8205  0.7971  0.1681
  176SAPI   H7X20077   4.457   0.404   7.636  0.0507  0.8945  0.0162
  176SAPI   H7Y20078   4.579   0.281   7.637 -1.2967 -2.9213  0.2288
  176SAPI   C3820079   4.459   0.276   7.820  0.3858 -0.2421  0.2385
  176SAPI   H8X20080   4.440   0.167   7.829 -0.6557 -0.0327  0.6947
  176SAPI   H8Y20081   4.368   0.324   7.861  0.8875 -0.4580  1.6649
  176SAPI   C3920082   4.577   0.331   7.906  0.0619 -1.1000 -0.6361
  176SAPI   H9X20083   4.569   0.439   7.882  1.6917 -0.7390  0.2861
  176SAPI   H9Y20084   4.676   0.301   7.866 -0.4702 -4.3932  0.2293
  176SAPI  C31020085   4.566   0.308   8.059 -0.2032  0.3879  0.2366
  176SAPI  H10X20086   4.467   0.352   8.086 -1.5052 -2.4818  0.4786
  176SAPI  H10Y20087   4.649   0.362   8.110 -0.7788 -0.6769  2.4087
  176SAPI  C31120088   4.576   0.164   8.103 -0.5645 -0.0603  0.8016
  176SAPI  H11X20089   4.677   0.128   8.077 -0.2691  2.6491 -2.4634
  176SAPI  H11Y20090   4.501   0.101   8.050  0.6283  1.0389 -2.4656
  176SAPI  C31220091   4.570   0.148   8.254  1.0361  0.2387  0.1481
  176SAPI  H12X20092   4.573   0.044   8.293  1.3195  0.5010  0.8366
  176SAPI  H12Y20093   4.474   0.196   8.285  1.7856  0.5032  2.2057
  176SAPI  C31320094   4.686   0.202   8.321 -0.0626 -0.6595  0.1212
  176SAPI  H13X20095   4.687   0.310   8.298  0.6812 -1.0162 -1.6898
  176SAPI  H13Y20096   4.778   0.165   8.270  0.0116  1.1674 -1.1746
  176SAPI  C31420097   4.671   0.185   8.473 -0.4049  0.0644  0.8377
  176SAPI  H14X20098   4.654   0.084   8.517 -1.3489  0.7596  2.1427
  176SAPI  H14Y20099   4.583   0.250   8.496 -0.6831 -0.4263  1.2105
  176SAPI  C31520100   4.796   0.224   8.552 -0.0526 -0.2000  0.2828
  176SAPI  H15X20101   4.815   0.333   8.546 -0.6588 -0.1691 -2.2057
  176SAPI  H15Y20102   4.887   0.168   8.521 -0.2258 -0.4961  0.3009
  176SAPI  C31620103   4.787   0.190   8.702 -0.4368  1.0046 -0.4979
  176SAPI  H16X20104   4.889   0.191   8.746 -0.9205  0.5603  0.6633
  176SAPI  H16Y20105   4.761   0.083   8.710 -0.2013  0.7976 -2.0776
  176SAPI  C31720106   4.698   0.277   8.788  0.5892  1.3013  0.3717
  176SAPI  H17X20107   4.600   0.226   8.784  1.4349 -0.4341  0.6563
  176SAPI  H17Y20108   4.697   0.383   8.755  2.1005  0.8078 -1.4519
  176SAPI  C31820109   4.743   0.288   8.933  0.3216 -0.2605  0.6647
  176SAPI  H18X20110   4.814   0.370   8.955 -0.0664  0.2752 -0.0612
  176SAPI  H18Y20111   4.782   0.195   8.981 -0.1166 -0.9852 -0.3489
  176SAPI  H18Z20112   4.655   0.312   8.996  0.3730 -0.9335  1.0089
  177SLPC     N20113   6.624   4.291  10.709  0.6921 -0.0162 -0.3596
  177SLPC   C1320114   6.711   4.417  10.724 -0.1716 -0.1857  0.5087
  177SLPC  H13A20115   6.770   4.408  10.814  1.6708  1.3907 -0.4513
  177SLPC  H13B20116   6.785   4.426  10.646 -0.2148 -2.4072  0.1482
  177SLPC  H13C20117   6.650   4.504  10.704 -0.3038 -0.7098 -1.5570
  177SLPC   C1420118   6.543   4.314  10.584  0.0199 -0.1080  0.3474
  177SLPC  H14A20119   6.604   4.308  10.495  0.1475 -0.2378  0.4429
  177SLPC  H14B20120   6.471   4.234  10.580  1.8953 -1.8387 -1.4840
  177SLPC  H14C20121   6.485   4.405  10.594 -2.2024 -1.3577 -0.5505
  177SLPC   C1520122   6.529   4.300  10.827  0.0354  0.5657  0.3354
  177SLPC  H15A20123   6.587   4.300  10.917 -0.0029 -0.4038  0.3728
  177SLPC  H15B20124   6.464   4.386  10.829  0.2078  0.6830  1.1623
  177SLPC  H15C20125   6.456   4.221  10.825  0.7881 -0.1418  0.3163
  177SLPC   C1220126   6.709   4.165  10.706  0.6523 -0.8185 -0.2474
  177SLPC  H12A20127   6.764   4.168  10.614 -2.0266  2.2785 -1.9717
  177SLPC  H12B20128   6.647   4.079  10.685 -0.8320  0.5751 -1.8604
  177SLPC   C1120129   6.813   4.143  10.825  0.3710 -0.6978 -0.5864
  177SLPC  H11A20130   6.869   4.048  10.808  0.4731 -0.8669  0.5624
  177SLPC  H11B20131   6.748   4.133  10.914  2.0713 -2.1539  0.5861
  177SLPC     P20132   7.043   4.270  10.813 -0.4719 -0.0285 -0.1702
  177SLPC   O1320133   7.081   4.413  10.831  0.1395  0.3468 -0.1969
  177SLPC   O1420134   7.125   4.170  10.883  0.4539  0.2819  0.2212
  177SLPC   O1220135   6.893   4.257  10.854  0.2583  0.2525  0.6628
  177SLPC   O1120136   7.039   4.241  10.659 -0.3984  0.1631  0.1002
  177SLPC    C120137   7.144   4.284  10.574  0.3324  0.4834  0.0058
  177SLPC    HA20138   7.196   4.374  10.614 -3.7679  2.4369  1.5724
  177SLPC    HB20139   7.214   4.201  10.550 -2.3343 -1.7664 -0.5477
  177SLPC    C220140   7.084   4.344  10.446  0.5572 -0.4591 -0.1042
  177SLPC    HS20141   7.007   4.269  10.418  1.6447 -1.1727 -1.2836
  177SLPC   O2120142   7.188   4.353  10.350  0.4048  0.5127 -0.3061
  177SLPC   C2120143   7.207   4.241  10.274  0.7156 -0.3159 -0.1262
  177SLPC   O2220144   7.128   4.148  10.272  0.6227  0.3436  0.8753
  177SLPC   C2220145   7.334   4.245  10.207  0.0808 -0.0078 -0.7321
  177SLPC   H2R20146   7.391   4.340  10.217 -2.3783  1.3740  1.5305
  177SLPC   H2S20147   7.404   4.168  10.245 -0.0952  1.0088  1.8449
  177SLPC    C320148   7.019   4.477  10.456  0.1157 -0.5198 -0.1494
  177SLPC    HX20149   7.099   4.551  10.479 -1.1712  1.7795 -2.5426
  177SLPC    HY20150   6.957   4.506  10.543 -0.9985  0.7340 -1.3167
  177SLPC   O3120151   6.967   4.521  10.334  0.1333  0.7905  0.5814
  177SLPC   C3120152   6.842   4.485  10.324  0.4627 -0.0607 -0.1680
  177SLPC   O3220153   6.781   4.417  10.410  0.1192 -0.1832 -0.0547
  177SLPC   C3220154   6.770   4.547  10.196  0.5847  0.1573  0.2211
  177SLPC   H2X20155   6.809   4.490  10.108 -1.2430 -0.3213 -0.3090
  177SLPC   H2Y20156   6.799   4.653  10.183 -0.9099  0.7564  1.4826
  177SLPC   C2320157   7.317   4.221  10.055 -0.2003  0.4073  0.0331
  177SLPC   H3R20158   7.255   4.305  10.019 -0.3900  0.6181  0.8179
  177SLPC   H3S20159   7.281   4.118  10.031  0.8885 -0.3309  1.3738
  177SLPC   C2420160   7.444   4.223   9.979 -0.5991  0.3044 -1.0690
  177SLPC   H4R20161   7.510   4.136   9.999 -1.7158 -0.3519 -0.0853
  177SLPC   H4S20162   7.492   4.320  10.002  1.4960 -0.5100 -1.8044
  177SLPC   C2520163   7.419   4.232   9.833  1.1407  0.4573  0.0994
  177SLPC   H5R20164   7.375   4.329   9.803 -1.2945 -0.6628 -0.2117
  177SLPC   H5S20165   7.351   4.162   9.779  5.1532 -0.9964 -3.7472
  177SLPC   C2620166   7.550   4.227   9.756 -0.8493 -0.0626  0.4058
  177SLPC   H6R20167   7.593   4.127   9.772 -1.8092 -0.5975 -0.2380
  177SLPC   H6S20168   7.617   4.295   9.812 -1.3780 -0.1402  1.1509
  177SLPC   C2720169   7.521   4.264   9.609 -0.5175  0.2072  0.1172
  177SLPC   H7R20170   7.490   4.371   9.603  0.4984  0.4395 -3.0845
  177SLPC   H7S20171   7.448   4.201   9.556  0.8637 -1.0908 -0.3180
  177SLPC   C2820172   7.647   4.247   9.524  0.7300  0.1052 -1.2879
  177SLPC   H8R20173   7.682   4.143   9.537 -0.2330 -0.1545 -0.6644
  177SLPC   H8S20174   7.722   4.309   9.578 -0.2308  1.5286 -1.5055
  177SLPC   C2920175   7.619   4.288   9.386  0.0822 -0.2921  0.9909
  177SLPC   H9R20176   7.564   4.383   9.383 -0.7446 -0.7771 -0.1563
  177SLPC  C21020177   7.641   4.217   9.272  0.4525 -0.1654 -0.2496
  177SLPC  H10R20178   7.604   4.265   9.180  1.1326  1.4633  0.2799
  177SLPC  C21120179   7.703   4.082   9.262 -0.1310 -0.0605  0.1880
  177SLPC  H11R20180   7.666   4.030   9.352 -1.1466  1.6642  0.8004
  177SLPC  H11S20181   7.653   4.030   9.177  0.1893  1.5752 -1.0472
  177SLPC  C21220182   7.852   4.078   9.243  0.1621  0.2423  0.1826
  177SLPC  H12R20183   7.909   4.073   9.337  0.7697  0.2532 -0.1764
  177SLPC  C21320184   7.913   4.080   9.125  0.4524  0.4631  0.2923
  177SLPC  H13R20185   8.022   4.070   9.114  0.4302 -0.1141  0.5450
  177SLPC  C21420186   7.851   4.092   8.994  0.1821  0.7383 -1.1174
  177SLPC  H14R20187   7.745   4.061   9.001  0.6250 -0.5059  1.2264
  177SLPC  H14S20188   7.907   4.027   8.923  0.7713 -1.5066  1.2235
  177SLPC  C21520189   7.850   4.234   8.946  0.5934 -0.4271  0.0617
  177SLPC  H15R20190   7.790   4.299   9.013  0.4664  0.6133 -1.0160
  177SLPC  H15S20191   7.805   4.236   8.844  1.0858  2.1744 -0.1855
  177SLPC  C21620192   7.990   4.297   8.917  0.1078 -0.4596  0.2626
  177SLPC  H16R20193   8.044   4.244   8.835  0.4852  0.3739 -0.0353
  177SLPC  H16S20194   8.056   4.287   9.005 -0.5825 -4.2275  0.5619
  177SLPC  C21720195   7.983   4.435   8.853  0.6736 -0.1994  0.1114
  177SLPC  H17R20196   7.920   4.509   8.908 -2.2621 -1.9497 -0.6928
  177SLPC  H17S20197   7.933   4.433   8.754  1.1277 -2.2863 -0.1215
  177SLPC  C21820198   8.108   4.493   8.820 -0.0142 -0.0667 -0.0912
  177SLPC  H18R20199   8.096   4.581   8.753 -0.4104 -0.5522 -0.6632
  177SLPC  H18S20200   8.182   4.429   8.767  2.0198  2.7688 -0.9054
  177SLPC  H18T20201   8.159   4.545   8.905 -1.5619  0.5880  0.4685
  177SLPC   C3320202   6.615   4.520  10.195 -0.3609  0.3300  0.3311
  177SLPC   H3X20203   6.580   4.588  10.276 -1.0385  2.4028 -1.5925
  177SLPC   H3Y20204   6.586   4.416  10.218 -1.8647  0.2968 -1.4533
  177SLPC   C3420205   6.545   4.556  10.065  0.7790  0.1428 -0.6990
  177SLPC   H4X20206   6.532   4.666  10.068  1.6986  0.2771  2.9515
  177SLPC   H4Y20207   6.442   4.513  10.062  0.1265  1.4021  1.2086
  177SLPC   C3520208   6.607   4.511   9.934 -0.3115 -0.0288 -0.1851
  177SLPC   H5X20209   6.629   4.403   9.944 -1.0432 -0.0739  1.0787
  177SLPC   H5Y20210   6.702   4.562   9.910 -1.3614  1.2508 -1.9135
  177SLPC   C3620211   6.511   4.514   9.808  0.1901  0.3520  0.2489
  177SLPC   H6X20212   6.486   4.620   9.787 -0.8542  0.5647  2.2523
  177SLPC   H6Y20213   6.422   4.462   9.849 -0.5448  2.3528  1.3722
  177SLPC   C3720214   6.565   4.441   9.683  0.0721 -0.1980 -0.3222
  177SLPC   H7X20215   6.500   4.425   9.595  2.8429 -3.1917 -2.1037
  177SLPC   H7Y20216   6.586   4.335   9.711 -0.1720 -0.7056 -1.9546
  177SLPC   C3820217   6.695   4.492   9.626  0.9596  0.1875 -0.0283
  177SLPC   H8X20218   6.774   4.494   9.704  0.8726 -3.5268  0.3422
  177SLPC   H8Y20219   6.687   4.600   9.603  2.5921  0.2033 -0.5907
  177SLPC   C3920220   6.736   4.437   9.492 -0.3194  0.0471  0.8244
  177SLPC   H9X20221   6.761   4.329   9.501 -0.1152  0.2419  3.8797
  177SLPC   H9Y20222   6.832   4.483   9.462 -0.1216 -0.7327  0.2254
  177SLPC  C31020223   6.646   4.448   9.369 -0.0228  0.4504 -0.1181
  177SLPC  H10X20224   6.606   4.551   9.379 -2.1559 -0.5851  3.8554
  177SLPC  H10Y20225   6.558   4.382   9.376  0.3241  0.0558  0.5487
  177SLPC  C31120226   6.732   4.446   9.241  0.1489  0.4731 -0.1594
  177SLPC  H11X20227   6.810   4.368   9.234  0.3451  0.8322 -2.8175
  177SLPC  H11Y20228   6.792   4.540   9.245  2.7778 -1.1403  1.4647
  177SLPC  C31220229   6.637   4.450   9.125 -0.7828 -0.3640  0.2142
  177SLPC  H12X20230   6.553   4.520   9.143  0.7883  1.6376  0.0845
  177SLPC  H12Y20231   6.599   4.346   9.113 -1.3766  0.0369 -1.9773
  177SLPC  C31320232   6.695   4.488   8.987  0.5434  0.3546 -0.3203
  177SLPC  H13X20233   6.779   4.426   8.950  0.4921 -0.9108  1.5220
  177SLPC  H13Y20234   6.743   4.588   8.986 -0.6165  0.9411  0.3260
  177SLPC  C31420235   6.601   4.509   8.865  0.1672  0.3395  0.4326
  177SLPC  H14X20236   6.657   4.553   8.780 -2.2839  2.3440 -0.2729
  177SLPC  H14Y20237   6.515   4.577   8.878 -1.2790 -1.6846  2.0053
  177SLPC  C31520238   6.551   4.373   8.820  0.0044  0.3689 -0.1258
  177SLPC  H15X20239   6.457   4.350   8.875  0.3501 -0.7838  0.0231
  177SLPC  H15Y20240   6.632   4.302   8.847 -0.2501  0.8336  2.1097
  177SLPC  C31620241   6.530   4.355   8.661 -0.2367 -0.3970 -0.1612
  177SLPC  H16X20242   6.633   4.366   8.621  0.6429 -1.0801  1.8005
  177SLPC  H16Y20243   6.479   4.447   8.626  0.3652  0.6289  1.5068
  177SLPC  C31720244   6.483   4.220   8.610  0.1401 -0.2291  0.0286
  177SLPC  H17X20245   6.389   4.206   8.667 -0.8356  1.8704 -0.9490
  177SLPC  H17Y20246   6.565   4.152   8.641 -0.9694 -0.7785  1.9099
  177SLPC  C31820247   6.469   4.231   8.452  0.2013 -0.0767 -0.7329
  177SLPC  H18X20248   6.427   4.136   8.411  1.3846 -1.4640  1.1423
  177SLPC  H18Y20249   6.560   4.268   8.400  1.3970 -0.0089  1.3013
  177SLPC  H18Z20250   6.395   4.309   8.423 -1.3185 -1.5335 -0.9549
  178SLPC     N20251   2.060   0.501  11.312  0.2788 -0.7548 -0.4202
  178SLPC   C1320252   2.117   0.634  11.355 -0.0616  0.7017  0.1155
  178SLPC  H13A20253   2.215   0.624  11.400 -0.6162  1.0134  1.4316
  178SLPC  H13B20254   2.135   0.700  11.271  0.4148 -0.3012 -0.5909
  178SLPC  H13C20255   2.050   0.676  11.429  1.0564 -2.1382  2.9432
  178SLPC   C1420256   1.924   0.523  11.245  0.3100 -0.7969 -0.0346
  178SLPC  H14A20257   1.878   0.428  11.225 -0.1745 -0.8935  1.4207
  178SLPC  H14B20258   1.856   0.570  11.315  0.9295 -0.6108  0.4519
  178SLPC  H14C20259   1.922   0.590  11.160  1.9778  1.5546  1.6483
  178SLPC   C1520260   2.033   0.415  11.429  0.9032  0.3814  0.4300
  178SLPC  H15A20261   2.010   0.314  11.398  1.8240  0.4985 -0.6890
  178SLPC  H15B20262   2.122   0.413  11.490  0.4523  1.1550  1.1204
  178SLPC  H15C20263   1.962   0.451  11.501  1.0383  0.8875  0.3121
  178SLPC   C1220264   2.154   0.429  11.221 -0.5752 -0.3139  0.0859
  178SLPC  H12A20265   2.126   0.327  11.204 -0.0403 -0.5687  0.6832
  178SLPC  H12B20266   2.250   0.420  11.269 -0.9261 -2.1107  0.5014
  178SLPC   C1120267   2.184   0.493  11.082 -0.1898 -0.0409  0.5257
  178SLPC  H11A20268   2.268   0.442  11.029 -1.7372 -2.7683  0.4908
  178SLPC  H11B20269   2.214   0.600  11.088  2.7832 -0.5718 -2.1094
  178SLPC     P20270   2.028   0.581  10.899  0.2146 -0.1595 -0.6324
  178SLPC   O1320271   1.941   0.530  10.790  0.3382 -0.1658 -0.7703
  178SLPC   O1420272   1.960   0.687  10.983  0.1617  0.7752 -0.0313
  178SLPC   O1220273   2.080   0.464  10.988  0.2675 -0.4793 -0.3049
  178SLPC   O1120274   2.159   0.635  10.833  0.1174  0.7184  0.1797
  178SLPC    C120275   2.252   0.541  10.767  0.9854 -0.3308  1.2416
  178SLPC    HA20276   2.353   0.569  10.805  2.1017 -1.3247 -0.7977
  178SLPC    HB20277   2.235   0.433  10.782 -2.7574 -0.1119 -0.3241
  178SLPC    C220278   2.267   0.557  10.613  0.2106 -0.3003  0.7407
  178SLPC    HS20279   2.331   0.474  10.577 -0.8961 -1.0898  0.5172
  178SLPC   O2120280   2.319   0.693  10.581  0.2708 -0.0183 -0.9599
  178SLPC   C2120281   2.448   0.701  10.595 -0.2871 -0.3515  0.3433
  178SLPC   O2220282   2.534   0.620  10.627  0.5659  0.3918  0.3420
  178SLPC   C2220283   2.480   0.846  10.555  0.6478  0.5243 -0.1059
  178SLPC   H2R20284   2.392   0.909  10.583  0.2235 -0.3167  0.4979
  178SLPC   H2S20285   2.560   0.876  10.626  3.7812  0.3972 -3.3276
  178SLPC    C320286   2.134   0.542  10.529  0.1258  0.1581 -0.6082
  178SLPC    HX20287   2.067   0.624  10.563 -1.3492 -1.6565  1.1575
  178SLPC    HY20288   2.083   0.447  10.558 -2.6912  0.9193 -2.6785
  178SLPC   O3120289   2.150   0.552  10.384  0.8605 -0.1214  0.2867
  178SLPC   C3120290   2.180   0.442  10.320 -0.0032 -0.8463 -0.5644
  178SLPC   O3220291   2.199   0.336  10.371 -0.1928  0.9215  0.5501
  178SLPC   C3220292   2.161   0.467  10.168  0.1568  0.8333  0.1652
  178SLPC   H2X20293   2.144   0.576  10.148  0.2239  0.5303 -1.7863
  178SLPC   H2Y20294   2.074   0.406  10.137  1.1332 -0.5403  0.0704
  178SLPC   C2320295   2.529   0.858  10.411 -0.3225 -0.1789  0.0089
  178SLPC   H3R20296   2.615   0.788  10.407 -0.5543 -0.5379  1.1172
  178SLPC   H3S20297   2.564   0.962  10.391 -1.5777 -0.1309 -2.3820
  178SLPC   C2420298   2.429   0.811  10.307 -0.6221  0.4848  0.7481
  178SLPC   H4R20299   2.323   0.838  10.326 -0.5985  1.8409 -0.9308
  178SLPC   H4S20300   2.430   0.700  10.304  0.2669  0.4951  0.2719
  178SLPC   C2520301   2.449   0.868  10.160  0.0916  0.0128  0.1883
  178SLPC   H5R20302   2.555   0.872  10.125 -0.3067 -0.8093 -1.1902
  178SLPC   H5S20303   2.419   0.975  10.163  0.9407  0.2277  1.4739
  178SLPC   C2620304   2.375   0.800  10.042  0.2059 -0.2388  0.5311
  178SLPC   H6R20305   2.268   0.828  10.046  0.0491 -0.4435 -1.3757
  178SLPC   H6S20306   2.393   0.691  10.050  0.7498  0.0045  4.2540
  178SLPC   C2720307   2.424   0.854   9.900 -0.2941  0.6157 -0.2326
  178SLPC   H7R20308   2.397   0.771   9.830  0.0336  0.2324  0.0884
  178SLPC   H7S20309   2.534   0.857   9.912 -0.6003  2.8820  3.4969
  178SLPC   C2820310   2.364   0.983   9.860  0.3776  0.1498  0.8098
  178SLPC   H8R20311   2.431   1.025   9.782  0.4878  0.7307  1.2097
  178SLPC   H8S20312   2.362   1.053   9.947 -0.7277  0.1032  0.8364
  178SLPC   C2920313   2.231   0.978   9.797 -0.0909 -0.1426 -0.9097
  178SLPC   H9R20314   2.152   0.993   9.873  0.4307 -1.2622 -0.1126
  178SLPC  C21020315   2.189   0.966   9.670  0.0009 -0.8634  0.6195
  178SLPC  H10R20316   2.081   0.969   9.649  0.2489  1.5812 -0.6620
  178SLPC  C21120317   2.287   0.951   9.551 -0.2471  0.1359 -0.3223
  178SLPC  H11R20318   2.382   0.900   9.581 -1.1700 -1.3190  0.2448
  178SLPC  H11S20319   2.305   1.045   9.495  2.7357 -1.1192 -1.6997
  178SLPC  C21220320   2.226   0.850   9.458 -0.1337 -0.0287  0.2071
  178SLPC  H12R20321   2.249   0.745   9.480  1.0896 -0.1053 -1.2879
  178SLPC  C21320322   2.146   0.881   9.358  0.1957  0.6960 -0.0320
  178SLPC  H13R20323   2.095   0.797   9.308 -1.6315  0.4621  2.0691
  178SLPC  C21420324   2.092   1.022   9.309  0.2992 -0.2907 -0.5038
  178SLPC  H14R20325   2.076   1.091   9.394  1.7672 -0.2507 -0.2381
  178SLPC  H14S20326   1.993   1.013   9.259  0.7526 -0.6655 -1.3612
  178SLPC  C21520327   2.173   1.080   9.188  0.5672 -0.2267 -0.0878
  178SLPC  H15R20328   2.276   1.096   9.226  0.6322 -2.3139  0.7165
  178SLPC  H15S20329   2.126   1.180   9.174 -2.3174 -1.3148  0.9679
  178SLPC  C21620330   2.170   0.999   9.058  0.7844 -0.6258  0.0378
  178SLPC  H16R20331   2.215   0.897   9.064  1.7080 -0.2686 -0.6091
  178SLPC  H16S20332   2.233   1.048   8.980 -0.9734 -0.2145 -1.1789
  178SLPC  C21720333   2.027   0.981   9.001 -0.4335  0.1760 -0.6754
  178SLPC  H17R20334   1.982   1.082   9.011  1.0160  0.7369  0.5479
  178SLPC  H17S20335   1.974   0.910   9.068 -1.0907 -0.3497 -1.7242
  178SLPC  C21820336   2.004   0.923   8.860 -0.1785  0.3463  0.0881
  178SLPC  H18R20337   2.030   0.993   8.778 -2.3734  1.0126 -0.1064
  178SLPC  H18S20338   1.902   0.884   8.838  0.4770 -2.6158  1.7906
  178SLPC  H18T20339   2.075   0.839   8.848 -1.1347 -0.6645  1.2563
  178SLPC   C3320340   2.280   0.413  10.078 -0.2543 -0.3216 -0.0056
  178SLPC   H3X20341   2.321   0.318  10.119 -0.5122 -0.3118  0.2857
  178SLPC   H3Y20342   2.369   0.479  10.087 -1.9699  1.9691  1.0272
  178SLPC   C3420343   2.256   0.376   9.935 -0.4226  0.8727 -0.3657
  178SLPC   H4X20344   2.188   0.448   9.884  0.3525  1.6472 -0.3451
  178SLPC   H4Y20345   2.213   0.275   9.924 -0.5937  0.8729  0.2596
  178SLPC   C3520346   2.379   0.393   9.852 -0.5982 -0.3384  0.7058
  178SLPC   H5X20347   2.465   0.336   9.894  0.8905  0.4350 -1.1500
  178SLPC   H5Y20348   2.408   0.500   9.852 -0.6519 -0.2843 -0.9737
  178SLPC   C3620349   2.368   0.365   9.697 -0.1314  0.4546  0.5038
  178SLPC   H6X20350   2.470   0.342   9.661 -1.4551 -2.0371 -2.1071
  178SLPC   H6Y20351   2.324   0.453   9.644 -2.3565  0.5231  2.2897
  178SLPC   C3720352   2.285   0.235   9.666 -0.8456 -0.3214  0.1077
  178SLPC   H7X20353   2.177   0.237   9.689 -0.8282  0.5902  0.1502
  178SLPC   H7Y20354   2.318   0.151   9.731  1.0564  0.9375  0.8772
  178SLPC   C3820355   2.299   0.195   9.517 -0.3530  0.3293 -0.1231
  178SLPC   H8X20356   2.232   0.106   9.506 -2.3953  1.7580  0.0865
  178SLPC   H8Y20357   2.403   0.158   9.505  0.2498  1.6979  0.7149
  178SLPC   C3920358   2.256   0.293   9.414  0.0460  0.2538  0.4847
  178SLPC   H9X20359   2.330   0.374   9.398  0.4997 -0.4486 -1.3225
  178SLPC   H9Y20360   2.167   0.347   9.452  0.1068  0.5915  0.1545
  178SLPC  C31020361   2.209   0.236   9.282 -0.4875  0.1323  0.1160
  178SLPC  H10X20362   2.143   0.306   9.227 -2.8516 -0.4934  1.9937
  178SLPC  H10Y20363   2.141   0.150   9.303 -4.4889  2.7072 -1.2252
  178SLPC  C31120364   2.313   0.176   9.189 -0.3425  0.0091 -1.1363
  178SLPC  H11X20365   2.378   0.115   9.255 -1.7218 -0.5540 -0.2546
  178SLPC  H11Y20366   2.383   0.256   9.155  1.6345 -0.0707  2.3123
  178SLPC  C31220367   2.258   0.101   9.063  0.4535  0.2206 -0.3064
  178SLPC  H12X20368   2.184   0.171   9.020 -0.8588 -0.9658 -0.0667
  178SLPC  H12Y20369   2.204   0.019   9.116 -2.0728  3.5442  2.7425
  178SLPC  C31320370   2.357   0.050   8.953 -0.3495  0.2184 -0.0894
  178SLPC  H13X20371   2.447  -0.000   8.996 -0.5615  0.2499  0.3906
  178SLPC  H13Y20372   2.411   0.128   8.895  0.4445 -1.7197 -2.1260
  178SLPC  C31420373   2.281  -0.040   8.852 -0.2094  0.2560  0.0116
  178SLPC  H14X20374   2.183   0.008   8.829  0.2822  0.4251 -1.9540
  178SLPC  H14Y20375   2.258  -0.140   8.896 -3.0968  0.9878  0.3788
  178SLPC  C31520376   2.354  -0.063   8.716 -0.2035 -0.2849  0.8239
  178SLPC  H15X20377   2.360   0.028   8.653  0.3592  2.1464  4.1513
  178SLPC  H15Y20378   2.462  -0.084   8.735  0.0162 -1.2651 -1.1818
  178SLPC  C31620379   2.317  -0.181   8.629 -0.0513 -0.0214  0.0697
  178SLPC  H16X20380   2.300  -0.265   8.701 -2.2898 -3.3322 -3.8641
  178SLPC  H16Y20381   2.394  -0.209   8.554  0.8956 -0.9124  1.3183
  178SLPC  C31720382   2.183  -0.159   8.555  0.1226  0.0845  0.0384
  178SLPC  H17X20383   2.121  -0.109   8.633 -0.5638 -0.2742 -0.2741
  178SLPC  H17Y20384   2.136  -0.258   8.536 -1.3887  0.1317  2.8685
  178SLPC  C31820385   2.191  -0.066   8.434 -0.0254  0.3818 -0.4686
  178SLPC  H18X20386   2.100  -0.069   8.370 -1.2821  0.8379  1.2284
  178SLPC  H18Y20387   2.271  -0.103   8.366  0.5339 -0.2584  0.5276
  178SLPC  H18Z20388   2.210   0.042   8.452 -1.1487  1.3352 -4.1002
  179SLPC     N20389   4.735   4.160  10.572  1.1256  1.3331 -0.8721
  179SLPC   C1320390   4.697   4.152  10.721  0.1527  0.4464 -0.0062
  179SLPC  H13A20391   4.707   4.248  10.771  0.6037 -0.9785  2.8396
  179SLPC  H13B20392   4.594   4.121  10.730  0.6562 -1.6798 -0.8764
  179SLPC  H13C20393   4.763   4.088  10.777  0.0793 -0.8964 -1.4057
  179SLPC   C1420394   4.623   4.212  10.487  0.3879  0.3988 -0.4357
  179SLPC  H14A20395   4.533   4.153  10.481  0.4146  0.3858 -0.7247
  179SLPC  H14B20396   4.579   4.302  10.527 -2.1042 -0.0926 -1.8323
  179SLPC  H14C20397   4.653   4.232  10.385  0.5557  1.3824 -0.1998
  179SLPC   C1520398   4.755   4.015  10.532 -0.2827  0.1981 -0.3022
  179SLPC  H15A20399   4.828   3.962  10.591 -2.1983 -1.1149  0.9706
  179SLPC  H15B20400   4.662   3.960  10.533  0.4115 -0.9920  0.0815
  179SLPC  H15C20401   4.785   4.022  10.428 -1.7058  1.1787 -0.6846
  179SLPC   C1220402   4.860   4.244  10.566 -0.1615  0.0248 -0.2555
  179SLPC  H12A20403   4.896   4.246  10.464  0.2143 -2.3935 -0.2283
  179SLPC  H12B20404   4.937   4.187  10.615 -1.9149  0.4374  3.2493
  179SLPC   C1120405   4.845   4.390  10.605  0.4550  0.1752  0.1445
  179SLPC  H11A20406   4.825   4.391  10.714 -2.4244 -1.8763 -0.2405
  179SLPC  H11B20407   4.755   4.441  10.563  1.7903  1.3431 -1.3964
  179SLPC     P20408   5.010   4.501  10.436  0.2692  0.3149 -0.1495
  179SLPC   O1320409   5.149   4.553  10.434 -0.3617 -0.3870  0.1010
  179SLPC   O1420410   4.980   4.380  10.352 -0.2945 -0.3408  0.2291
  179SLPC   O1220411   4.966   4.466  10.584  0.0829  0.4315  0.4830
  179SLPC   O1120412   4.920   4.619  10.388  0.3593 -0.0312  0.2393
  179SLPC    C120413   4.837   4.713  10.453  0.1040 -0.0926  0.0911
  179SLPC    HA20414   4.733   4.677  10.461 -0.1502 -0.7419 -4.0354
  179SLPC    HB20415   4.869   4.723  10.559 -0.8581 -4.4589  0.9803
  179SLPC    C220416   4.835   4.843  10.378  0.0315  0.0117  0.6481
  179SLPC    HS20417   4.733   4.887  10.385 -0.2941 -0.5664 -0.2069
  179SLPC   O2120418   4.864   4.828  10.235  0.2300  0.1345 -0.0395
  179SLPC   C2120419   4.776   4.759  10.165  0.2861 -0.6375 -0.1002
  179SLPC   O2220420   4.674   4.709  10.203  0.0278 -0.8547  0.1688
  179SLPC   C2220421   4.814   4.770  10.021 -0.3617 -0.0056  0.5405
  179SLPC   H2R20422   4.825   4.878   9.999 -4.2206  0.3456 -0.3673
  179SLPC   H2S20423   4.904   4.712   9.991 -0.8624 -0.7962  0.5353
  179SLPC    C320424   4.940   4.936  10.431  0.1172 -0.1876 -0.7363
  179SLPC    HX20425   5.033   4.888  10.393 -0.1091 -2.0047  0.8637
  179SLPC    HY20426   4.947   4.932  10.542  1.2123  2.2165 -0.6445
  179SLPC   O3120427   4.918   5.072  10.387 -0.4351  0.4752 -0.1633
  179SLPC   C3120428   4.988   5.168  10.460  0.3461  0.2500  0.0172
  179SLPC   O3220429   5.062   5.143  10.550  0.0865  0.0704 -0.7852
  179SLPC   C3220430   4.956   5.304  10.408 -0.3250 -0.2745  0.1772
  179SLPC   H2X20431   5.018   5.377  10.464 -1.6999  0.1543  1.1792
  179SLPC   H2Y20432   4.851   5.325  10.436 -1.5481 -0.9951 -3.3290
  179SLPC   C2320433   4.706   4.725   9.924 -0.1223 -0.0956  0.7377
  179SLPC   H3R20434   4.609   4.767   9.960 -0.8165 -0.2445 -0.8857
  179SLPC   H3S20435   4.691   4.616   9.935 -2.5276  0.1756  0.7773
  179SLPC   C2420436   4.732   4.770   9.774 -0.2514  0.0475  0.0065
  179SLPC   H4R20437   4.839   4.740   9.768 -0.0621  0.2736  1.6329
  179SLPC   H4S20438   4.723   4.878   9.749  0.6523  0.2427  0.4609
  179SLPC   C2520439   4.651   4.673   9.684 -0.9094 -0.4724  0.7976
  179SLPC   H5R20440   4.543   4.692   9.701 -0.5437  1.8463  0.7563
  179SLPC   H5S20441   4.692   4.572   9.705  0.1716  0.0336  1.2052
  179SLPC   C2620442   4.684   4.701   9.531 -0.1064  0.1806  0.8226
  179SLPC   H6R20443   4.795   4.704   9.530 -0.0810  1.2377 -1.6166
  179SLPC   H6S20444   4.642   4.800   9.503  1.2104  0.4046 -0.4879
  179SLPC   C2720445   4.637   4.593   9.433  0.3652  0.1499 -0.0865
  179SLPC   H7R20446   4.546   4.551   9.479 -0.0595 -0.5341 -1.4744
  179SLPC   H7S20447   4.712   4.511   9.445 -1.7427 -2.0575 -1.1084
  179SLPC   C2820448   4.641   4.629   9.283  0.0188 -0.0302  0.4265
  179SLPC   H8R20449   4.616   4.537   9.224  4.3140 -0.1245 -1.6202
  179SLPC   H8S20450   4.744   4.655   9.252  0.4595 -2.0662 -0.0119
  179SLPC   C2920451   4.541   4.742   9.243  1.0678  0.4846  0.2564
  179SLPC   H9R20452   4.576   4.845   9.257  0.0949  1.0557 -1.2883
  179SLPC  C21020453   4.418   4.728   9.184 -0.3609 -0.2176  0.7243
  179SLPC  H10R20454   4.350   4.812   9.161  0.7709  0.3804 -0.5741
  179SLPC  C21120455   4.354   4.591   9.167 -0.2615 -0.9336  0.3590
  179SLPC  H11R20456   4.375   4.531   9.257  1.5507 -0.5129  0.2408
  179SLPC  H11S20457   4.407   4.543   9.082  0.1182 -0.1934  0.1644
  179SLPC  C21220458   4.202   4.589   9.140 -0.9469 -0.0166 -0.7826
  179SLPC  H12R20459   4.140   4.585   9.231 -1.2160  1.6565 -0.8519
  179SLPC  C21320460   4.149   4.624   9.023 -0.2893 -0.2299  0.2531
  179SLPC  H13R20461   4.041   4.648   9.022  0.1222  1.9344  1.3194
  179SLPC  C21420462   4.233   4.665   8.902  0.2176  0.1268 -0.2375
  179SLPC  H14R20463   4.336   4.703   8.920  0.0804 -0.1389  1.2426
  179SLPC  H14S20464   4.183   4.754   8.859 -1.0153 -1.5329 -2.4332
  179SLPC  C21520465   4.234   4.548   8.797  0.3854 -0.4242  0.4406
  179SLPC  H15R20466   4.282   4.469   8.859  0.5909  1.8947  3.4914
  179SLPC  H15S20467   4.297   4.586   8.714  0.6065 -0.0593  0.7720
  179SLPC  C21620468   4.096   4.503   8.744 -0.8571  0.2049 -0.3809
  179SLPC  H16R20469   4.027   4.590   8.741  0.3404  1.2228  0.3904
  179SLPC  H16S20470   4.047   4.431   8.812 -1.4927  1.2766  0.3134
  179SLPC  C21720471   4.105   4.425   8.612  0.1498 -0.5103  0.2447
  179SLPC  H17R20472   4.166   4.493   8.548  1.7753 -0.2287  2.0063
  179SLPC  H17S20473   4.004   4.423   8.564  0.3301 -2.4915 -0.1420
  179SLPC  C21820474   4.168   4.277   8.620 -0.0234 -0.0506  0.1233
  179SLPC  H18R20475   4.102   4.217   8.687 -0.1565 -0.1663 -0.1078
  179SLPC  H18S20476   4.271   4.272   8.661 -0.5539 -1.1234  1.4261
  179SLPC  H18T20477   4.169   4.226   8.521 -1.1699 -1.7931  0.9538
  179SLPC   C3320478   4.964   5.318  10.255  0.0833 -0.4545 -0.1579
  179SLPC   H3X20479   4.909   5.234  10.207 -0.1423 -1.2565  1.4649
  179SLPC   H3Y20480   5.064   5.300  10.210  0.1977  0.0899 -0.1327
  179SLPC   C3420481   4.906   5.455  10.202 -0.5966  1.2847 -0.4106
  179SLPC   H4X20482   4.813   5.465  10.262  1.7391  1.0897  3.6001
  179SLPC   H4Y20483   4.881   5.444  10.095 -1.9494 -0.3712  0.0305
  179SLPC   C3520484   5.000   5.568  10.221 -0.0320 -0.2264 -0.0274
  179SLPC   H5X20485   5.033   5.584  10.326 -0.0200  4.2485 -0.5168
  179SLPC   H5Y20486   4.949   5.655  10.174  0.1081 -1.5027 -2.7701
  179SLPC   C3620487   5.127   5.561  10.137  0.6176  0.3981  0.3795
  179SLPC   H6X20488   5.187   5.485  10.191 -1.7791 -1.3939  0.6581
  179SLPC   H6Y20489   5.187   5.654  10.145  0.8475  0.2634  0.2347
  179SLPC   C3720490   5.107   5.519   9.984  0.1172  0.0041 -0.4575
  179SLPC   H7X20491   5.030   5.593   9.952  1.0529  1.6055  0.8500
  179SLPC   H7Y20492   5.059   5.419   9.973 -2.6086  1.4113 -2.3090
  179SLPC   C3820493   5.232   5.531   9.898 -0.8516  0.1808  0.1754
  179SLPC   H8X20494   5.316   5.475   9.945  0.8906  1.0605 -1.7214
  179SLPC   H8Y20495   5.257   5.639   9.891  0.0179  0.0396  0.9929
  179SLPC   C3920496   5.221   5.471   9.764  0.5386 -0.6537  0.1906
  179SLPC   H9X20497   5.114   5.472   9.733  0.9716  0.1418 -1.3936
  179SLPC   H9Y20498   5.235   5.361   9.754  0.5208 -0.5278 -1.6662
  179SLPC  C31020499   5.302   5.539   9.658  0.5009 -0.3810 -0.5155
  179SLPC  H10X20500   5.404   5.560   9.699 -0.2392  3.4904 -0.2702
  179SLPC  H10Y20501   5.259   5.637   9.628 -0.1205 -1.3381 -3.0320
  179SLPC  C31120502   5.306   5.445   9.534  0.7233 -0.4955 -0.1903
  179SLPC  H11X20503   5.326   5.339   9.559  1.5989 -0.2997 -0.0338
  179SLPC  H11Y20504   5.389   5.483   9.471  1.0205 -0.8232  0.0051
  179SLPC  C31220505   5.183   5.463   9.449  0.2912 -0.1682 -0.5866
  179SLPC  H12X20506   5.164   5.572   9.444 -0.1692 -0.2747 -1.2698
  179SLPC  H12Y20507   5.092   5.417   9.493  0.0182 -0.5553 -1.5289
  179SLPC  C31320508   5.205   5.412   9.309  0.0188  0.3902 -0.0147
  179SLPC  H13X20509   5.199   5.303   9.328 -1.5060  0.8041  2.3444
  179SLPC  H13Y20510   5.302   5.444   9.267  0.2928  0.3558  0.5870
  179SLPC  C31420511   5.086   5.447   9.215  0.1541 -0.0414 -0.3369
  179SLPC  H14X20512   5.097   5.556   9.195  0.0105 -0.3383 -2.2464
  179SLPC  H14Y20513   4.986   5.435   9.262 -1.0997  1.4493 -2.4082
  179SLPC  C31520514   5.092   5.380   9.082 -0.6644  0.1572 -0.6284
  179SLPC  H15X20515   5.095   5.269   9.086  0.3918  0.1946 -0.1263
  179SLPC  H15Y20516   5.189   5.416   9.042 -0.2057 -0.4552 -0.0695
  179SLPC  C31620517   4.974   5.424   8.991 -0.0355 -0.1692 -0.0286
  179SLPC  H16X20518   4.882   5.401   9.049  0.9713 -0.5271  1.4907
  179SLPC  H16Y20519   4.974   5.364   8.897  1.2312  0.6672 -0.5829
  179SLPC  C31720520   4.978   5.574   8.949  0.0081  0.2451 -0.4026
  179SLPC  H17X20521   5.079   5.608   8.922 -0.7769  2.8169 -0.3454
  179SLPC  H17Y20522   4.959   5.634   9.040  1.0583  1.4271 -0.9423
  179SLPC  C31820523   4.880   5.600   8.833 -0.0608  0.3884  0.4469
  179SLPC  H18X20524   4.787   5.540   8.835  0.0982 -0.0324 -1.7635
  179SLPC  H18Y20525   4.940   5.589   8.740  0.2932  3.1912  0.2590
  179SLPC  H18Z20526   4.855   5.708   8.840 -4.0751 -0.0041 -3.5782
  180SLPC     N20527   6.078   2.198  10.973  0.0798  0.1130 -0.2097
  180SLPC   C1320528   5.996   2.116  11.066 -0.8638  0.1519  0.1945
  180SLPC  H13A20529   6.050   2.031  11.107  0.4126  0.0562 -1.6059
  180SLPC  H13B20530   5.971   2.164  11.160 -1.4682  1.1910 -0.4859
  180SLPC  H13C20531   5.906   2.082  11.017 -0.6627  1.6821 -1.2966
  180SLPC   C1420532   6.186   2.268  11.045 -0.3725 -0.0363 -0.2343
  180SLPC  H14A20533   6.254   2.204  11.098  0.6647 -0.3450 -1.8568
  180SLPC  H14B20534   6.249   2.325  10.978 -0.9042 -1.2184 -1.7954
  180SLPC  H14C20535   6.157   2.348  11.112  0.1590 -1.0756  1.2852
  180SLPC   C1520536   5.980   2.294  10.919  0.3791  0.3919 -0.5164
  180SLPC  H15A20537   5.893   2.254  10.869  0.1861  0.3757 -0.1702
  180SLPC  H15B20538   5.925   2.334  11.002  0.8037 -2.5423  1.3381
  180SLPC  H15C20539   6.023   2.366  10.851 -0.6126  0.0667 -1.5328
  180SLPC   C1220540   6.126   2.112  10.862 -0.4011 -0.3251 -0.3929
  180SLPC  H12A20541   6.155   2.175  10.779  0.1968  0.8404  0.6730
  180SLPC  H12B20542   6.048   2.046  10.827 -3.0891  2.2021  0.4610
  180SLPC   C1120543   6.241   2.021  10.893  0.0343  0.3521  0.1031
  180SLPC  H11A20544   6.224   1.936  10.824  1.1976 -1.0301  1.4343
  180SLPC  H11B20545   6.220   1.982  10.995 -1.4908  0.5831 -0.0903
  180SLPC     P20546   6.497   2.022  10.867 -0.0001  0.4174  0.0902
  180SLPC   O1320547   6.605   2.102  10.934 -0.2063 -0.0651 -0.0050
  180SLPC   O1420548   6.466   1.881  10.903 -0.4037 -0.3740  0.2631
  180SLPC   O1220549   6.361   2.093  10.873  0.2487 -0.1494 -0.0979
  180SLPC   O1120550   6.536   2.016  10.713 -0.0245 -0.2235  0.5272
  180SLPC    C120551   6.479   2.109  10.617  0.4363  0.3738  0.1179
  180SLPC    HA20552   6.387   2.159  10.655 -0.4984 -1.4079  0.2899
  180SLPC    HB20553   6.541   2.197  10.589 -0.2565  0.6037 -0.7571
  180SLPC    C220554   6.445   2.029  10.496 -0.2045 -0.0984 -0.0154
  180SLPC    HS20555   6.541   1.976  10.478 -0.7399 -0.7277 -1.0846
  180SLPC   O2120556   6.407   2.125  10.394  0.4553  0.4224  0.6031
  180SLPC   C2120557   6.493   2.145  10.304  0.0686 -0.0357 -0.5818
  180SLPC   O2220558   6.594   2.080  10.288 -0.1190  0.1652 -0.0861
  180SLPC   C2220559   6.444   2.270  10.223  0.0672 -0.0181 -0.2028
  180SLPC   H2R20560   6.360   2.255  10.152  0.6393 -1.5444 -0.5902
  180SLPC   H2S20561   6.397   2.343  10.293  2.3318 -1.0497  2.5800
  180SLPC    C320562   6.339   1.920  10.519 -0.0125 -0.3890 -0.4290
  180SLPC    HX20563   6.248   1.961  10.567 -1.0899 -2.1927 -0.8462
  180SLPC    HY20564   6.390   1.854  10.592  0.9020  0.2733 -0.4514
  180SLPC   O3120565   6.300   1.849  10.402  0.5278 -0.3023  0.2504
  180SLPC   C3120566   6.316   1.724  10.385 -1.2946 -0.1590  0.2348
  180SLPC   O3220567   6.380   1.640  10.452 -0.1815 -0.5085  0.2125
  180SLPC   C3220568   6.255   1.685  10.252 -0.9809 -0.9220  0.0525
  180SLPC   H2X20569   6.335   1.645  10.186  1.1829  1.8497  0.8021
  180SLPC   H2Y20570   6.235   1.777  10.194 -0.2899 -1.0846 -0.4564
  180SLPC   C2320571   6.562   2.340  10.144  0.2230  0.0161 -0.4503
  180SLPC   H3R20572   6.656   2.350  10.201  0.9775 -1.6005 -1.3175
  180SLPC   H3S20573   6.528   2.441  10.113  1.2859  0.0447 -1.6049
  180SLPC   C2420574   6.607   2.263  10.024  0.7328  0.0573  1.0812
  180SLPC   H4R20575   6.632   2.162  10.064 -0.2960 -0.1155  1.3069
  180SLPC   H4S20576   6.710   2.296   9.998  0.9547 -1.8459 -0.7047
  180SLPC   C2520577   6.509   2.267   9.909  0.0210 -0.8090  0.2104
  180SLPC   H5R20578   6.476   2.366   9.871 -0.8691 -0.8398  0.8665
  180SLPC   H5S20579   6.414   2.214   9.932 -0.5885 -0.8386 -2.0882
  180SLPC   C2620580   6.554   2.200   9.776  0.3361  0.2893  0.1976
  180SLPC   H6R20581   6.635   2.260   9.728  0.2545  0.2353 -0.0106
  180SLPC   H6S20582   6.465   2.203   9.708 -0.0707  0.0671  0.7149
  180SLPC   C2720583   6.587   2.060   9.801  0.4253 -0.1661  0.1617
  180SLPC   H7R20584   6.517   2.012   9.872 -0.6626 -0.6231 -1.1794
  180SLPC   H7S20585   6.690   2.072   9.841  0.9961  1.1133 -1.5523
  180SLPC   C2820586   6.580   1.973   9.673  0.2404 -0.2694 -0.0036
  180SLPC   H8R20587   6.615   1.874   9.711 -2.2118 -1.4172 -0.5738
  180SLPC   H8S20588   6.661   2.024   9.616 -0.6532  2.4456  0.9869
  180SLPC   C2920589   6.449   1.956   9.594  0.0485  1.3033 -0.1891
  180SLPC   H9R20590   6.365   1.905   9.644 -1.8647  2.1645 -2.3834
  180SLPC  C21020591   6.437   1.983   9.458  0.6590  0.0194 -0.1661
  180SLPC  H10R20592   6.337   1.982   9.413 -0.3186 -1.7750  1.8188
  180SLPC  C21120593   6.545   2.028   9.366  0.4895 -1.4469  0.1276
  180SLPC  H11R20594   6.607   1.939   9.343  2.5768 -0.0467  0.1062
  180SLPC  H11S20595   6.599   2.106   9.423 -4.3201  0.2547  2.9952
  180SLPC  C21220596   6.499   2.076   9.236 -0.1371  0.4032  0.2099
  180SLPC  H12R20597   6.393   2.058   9.210  0.3826  0.1641 -2.0044
  180SLPC  C21320598   6.582   2.136   9.148 -0.3334  0.5868  0.0372
  180SLPC  H13R20599   6.540   2.173   9.053 -3.3198 -0.0748  0.9678
  180SLPC  C21420600   6.730   2.165   9.170 -0.3326  0.4887 -0.7338
  180SLPC  H14R20601   6.780   2.084   9.228 -0.4060  0.8263 -0.1986
  180SLPC  H14S20602   6.743   2.264   9.217  0.2441  0.1027 -0.0611
  180SLPC  C21520603   6.806   2.159   9.041 -0.3388 -0.0238  0.0512
  180SLPC  H15R20604   6.770   2.238   8.971 -1.7935 -0.8957 -0.2201
  180SLPC  H15S20605   6.795   2.062   8.989 -1.2889 -0.4929  1.0992
  180SLPC  C21620606   6.961   2.174   9.073 -0.5407  0.0017 -0.3190
  180SLPC  H16R20607   6.996   2.099   9.147 -1.0202  0.8809  0.8273
  180SLPC  H16S20608   6.963   2.270   9.129 -1.4825 -0.4251  0.4766
  180SLPC  C21720609   7.056   2.181   8.951 -0.2179  0.2113  1.2547
  180SLPC  H17R20610   7.013   2.263   8.889 -1.6126 -0.6432  1.0617
  180SLPC  H17S20611   7.049   2.083   8.901 -0.9083  1.3293 -0.9647
  180SLPC  C21820612   7.200   2.217   8.994  0.2464  0.1887 -0.1786
  180SLPC  H18R20613   7.243   2.133   9.053 -0.6128 -0.3312 -0.2712
  180SLPC  H18S20614   7.192   2.308   9.058  0.9066  0.5868 -0.6502
  180SLPC  H18T20615   7.271   2.247   8.914  0.5791  0.9764  0.3974
  180SLPC   C3320616   6.139   1.586  10.272  0.1901 -0.4757  0.3069
  180SLPC   H3X20617   6.061   1.642  10.328 -0.8150 -1.4867 -0.0427
  180SLPC   H3Y20618   6.160   1.499  10.338 -1.6772 -1.5677 -0.4646
  180SLPC   C3420619   6.078   1.530  10.139 -0.1785  0.2736 -0.2156
  180SLPC   H4X20620   6.149   1.457  10.095  0.5977  0.4776  0.6859
  180SLPC   H4Y20621   6.067   1.615  10.069 -0.3116  0.5652  0.1569
  180SLPC   C3520622   5.936   1.468  10.160  0.6957 -0.4850 -0.4316
  180SLPC   H5X20623   5.873   1.556  10.186  1.8348  0.1878  0.1336
  180SLPC   H5Y20624   5.912   1.401  10.245 -1.9322  0.7686 -0.0819
  180SLPC   C3620625   5.889   1.396  10.034  0.1325 -0.1525 -0.8141
  180SLPC   H6X20626   5.787   1.354  10.046  1.1798 -2.9220 -0.8753
  180SLPC   H6Y20627   5.948   1.304  10.012 -1.2011 -0.7601 -2.0295
  180SLPC   C3720628   5.888   1.490   9.911  0.0396 -0.3593  0.1820
  180SLPC   H7X20629   5.995   1.511   9.890 -0.0853  2.0181  1.5363
  180SLPC   H7Y20630   5.847   1.591   9.935 -1.0188 -1.2558  2.3243
  180SLPC   C3820631   5.825   1.424   9.783 -0.5557 -0.0065 -1.0471
  180SLPC   H8X20632   5.714   1.423   9.788 -0.5703 -0.9994 -1.3499
  180SLPC   H8Y20633   5.859   1.318   9.781  0.7846  0.3220  1.2851
  180SLPC   C3920634   5.866   1.495   9.648  0.2212 -0.3717 -0.0811
  180SLPC   H9X20635   5.973   1.493   9.617  0.0821  2.6521 -1.0764
  180SLPC   H9Y20636   5.849   1.603   9.666 -0.5000 -0.4971  0.0055
  180SLPC  C31020637   5.771   1.437   9.541 -0.4045  0.2660 -0.1254
  180SLPC  H10X20638   5.689   1.387   9.597  1.2239 -2.7742 -0.1990
  180SLPC  H10Y20639   5.829   1.360   9.485  0.0172  0.8842 -0.5563
  180SLPC  C31120640   5.726   1.537   9.435  1.1717 -0.4878 -0.3777
  180SLPC  H11X20641   5.699   1.631   9.487  0.4457  0.0157 -1.6113
  180SLPC  H11Y20642   5.639   1.490   9.386  0.5022  0.6582 -0.3151
  180SLPC  C31220643   5.826   1.569   9.329 -0.9358 -0.2316  0.1159
  180SLPC  H12X20644   5.922   1.599   9.376 -0.1692 -0.0597 -1.4877
  180SLPC  H12Y20645   5.792   1.666   9.286  3.7092  1.7381  0.2571
  180SLPC  C31320646   5.839   1.464   9.213 -0.2482 -0.0729  0.1922
  180SLPC  H13X20647   5.832   1.359   9.249  0.0234  0.4586  1.8771
  180SLPC  H13Y20648   5.940   1.483   9.171  0.3994 -2.9690  0.2092
  180SLPC  C31420649   5.722   1.482   9.107 -1.1521 -0.2979 -0.0843
  180SLPC  H14X20650   5.722   1.584   9.063 -3.2639 -0.6302 -0.9901
  180SLPC  H14Y20651   5.629   1.493   9.166 -0.5683 -2.9127  1.4832
  180SLPC  C31520652   5.714   1.374   8.994 -0.4146  0.1480  0.4678
  180SLPC  H15X20653   5.713   1.273   9.038  0.1952 -0.1156 -0.1024
  180SLPC  H15Y20654   5.806   1.398   8.936  0.1049  2.0038  1.9884
  180SLPC  C31620655   5.581   1.392   8.908 -0.0369  0.1462  0.1063
  180SLPC  H16X20656   5.572   1.499   8.879  0.4665  0.0432 -0.4239
  180SLPC  H16Y20657   5.497   1.354   8.971  1.0577 -0.2608  1.3656
  180SLPC  C31720658   5.576   1.324   8.774 -0.6094  0.2769  0.4368
  180SLPC  H17X20659   5.607   1.218   8.789 -0.9587 -0.1296 -1.5404
  180SLPC  H17Y20660   5.641   1.376   8.701  0.0562  0.2343  0.9803
  180SLPC  C31820661   5.430   1.321   8.726  0.3613  0.0944 -0.4052
  180SLPC  H18X20662   5.370   1.274   8.807  0.4511  2.6520  1.2749
  180SLPC  H18Y20663   5.423   1.254   8.638 -1.8216  0.7868 -0.8235
  180SLPC  H18Z20664   5.384   1.416   8.690  0.3518 -0.3042 -1.4844
  181SLPC     N20665   2.727   5.435  10.903 -0.2503 -0.5640 -0.4627
  181SLPC   C1320666   2.869   5.412  10.880  0.0133 -0.1470 -0.4225
  181SLPC  H13A20667   2.930   5.479  10.937 -0.6333  0.8607 -0.8806
  181SLPC  H13B20668   2.898   5.310  10.900  2.1821  0.4916 -0.0308
  181SLPC  H13C20669   2.885   5.429  10.774  0.2123  1.2204 -0.1922
  181SLPC   C1420670   2.696   5.430  11.043  0.2359 -0.0736 -0.9056
  181SLPC  H14A20671   2.765   5.491  11.100 -0.2925 -1.2845  1.1292
  181SLPC  H14B20672   2.599   5.472  11.064  0.4800 -0.3064  0.8468
  181SLPC  H14C20673   2.696   5.328  11.078 -1.4695  0.4646  0.8858
  181SLPC   C1520674   2.657   5.327  10.825  1.1704 -0.1929 -0.0053
  181SLPC  H15A20675   2.552   5.328  10.853  1.5427  1.2662  1.5109
  181SLPC  H15B20676   2.663   5.356  10.721  1.0061 -0.4911 -0.1005
  181SLPC  H15C20677   2.700   5.229  10.834  2.4207  0.2990 -0.4166
  181SLPC   C1220678   2.681   5.571  10.861  0.5385  0.0989 -1.0010
  181SLPC  H12A20679   2.741   5.637  10.921 -0.5711 -0.5046  0.8658
  181SLPC  H12B20680   2.576   5.583  10.884 -0.2699  0.8339 -4.4458
  181SLPC   C1120681   2.707   5.624  10.718  0.0330  0.3871  1.6830
  181SLPC  H11A20682   2.651   5.718  10.700 -0.3306  0.0118  0.7750
  181SLPC  H11B20683   2.666   5.557  10.640 -0.7914 -1.7259  3.8229
  181SLPC     P20684   2.910   5.780  10.732 -0.0056 -0.0227  0.8155
  181SLPC   O1320685   2.856   5.839  10.854 -0.1649  0.3044  0.3368
  181SLPC   O1420686   3.056   5.763  10.734  0.3408 -0.2061  0.0990
  181SLPC   O1220687   2.851   5.635  10.701  0.1005  0.3725  0.1868
  181SLPC   O1120688   2.868   5.859  10.605 -0.5186  0.0511  0.0005
  181SLPC    C120689   2.867   5.794  10.478  0.0379 -0.5146 -0.9875
  181SLPC    HA20690   2.946   5.716  10.477  0.5800 -0.0812  1.3643
  181SLPC    HB20691   2.770   5.747  10.453 -0.2421 -0.6174  0.2289
  181SLPC    C220692   2.915   5.895  10.373  0.1360  0.0656 -0.3747
  181SLPC    HS20693   3.015   5.929  10.408 -0.0076  0.0250  0.0802
  181SLPC   O2120694   2.816   5.998  10.360 -0.4231  0.3156  0.1014
  181SLPC   C2120695   2.866   6.111  10.316  0.1080 -0.8739  0.1163
  181SLPC   O2220696   2.985   6.133  10.297  0.0006 -0.4126  0.8799
  181SLPC   C2220697   2.763   6.220  10.302 -0.0707 -0.5158  0.0809
  181SLPC   H2R20698   2.669   6.183  10.349  0.0861  0.1319  0.9321
  181SLPC   H2S20699   2.807   6.311  10.349  1.3248 -1.5830  0.9462
  181SLPC    C320700   2.940   5.818  10.236  0.0124  0.2398 -0.1086
  181SLPC    HX20701   2.840   5.783  10.201  0.5144 -0.3797 -0.9973
  181SLPC    HY20702   3.007   5.729  10.243  1.2864  1.2748  1.2948
  181SLPC   O3120703   2.998   5.887  10.129 -0.7857  0.3436  0.5065
  181SLPC   C3120704   3.122   5.932  10.140 -0.5037  0.7114  0.4522
  181SLPC   O3220705   3.209   5.877  10.210 -0.1239  0.4114 -0.0215
  181SLPC   C3220706   3.147   6.039  10.036 -0.8486 -0.0985 -0.3377
  181SLPC   H2X20707   3.247   6.084  10.053 -0.6920 -0.3923 -0.4861
  181SLPC   H2Y20708   3.068   6.116  10.055  0.1088  0.5138  1.3824
  181SLPC   C2320709   2.729   6.267  10.150  0.5933  1.0153 -0.0263
  181SLPC   H3R20710   2.823   6.303  10.103 -0.6446  1.5992 -2.1875
  181SLPC   H3S20711   2.653   6.348  10.150 -0.5378 -0.0148 -0.5223
  181SLPC   C2420712   2.665   6.158  10.066 -0.4233  0.7759 -0.2086
  181SLPC   H4R20713   2.624   6.203   9.974 -0.7795  2.2834  0.6519
  181SLPC   H4S20714   2.576   6.108  10.111 -0.1313 -1.4430 -1.9484
  181SLPC   C2520715   2.748   6.039  10.013  0.0813 -0.1619 -0.4972
  181SLPC   H5R20716   2.771   5.965  10.092  3.5893 -0.2481 -1.4240
  181SLPC   H5S20717   2.851   6.076   9.993  0.2892  0.9337  2.1767
  181SLPC   C2620718   2.684   5.987   9.888  0.2352  0.2713  0.8153
  181SLPC   H6R20719   2.665   6.062   9.808 -1.9933  0.1706  1.1898
  181SLPC   H6S20720   2.588   5.935   9.911  0.5199 -1.6297 -1.8308
  181SLPC   C2720721   2.779   5.886   9.814 -0.8886 -0.2749  0.9473
  181SLPC   H7R20722   2.840   5.836   9.892  1.4235  0.4174 -0.3069
  181SLPC   H7S20723   2.853   5.948   9.759  0.8200  0.1330  3.5168
  181SLPC   C2820724   2.726   5.789   9.712 -0.4047  0.2797 -0.7632
  181SLPC   H8R20725   2.653   5.721   9.763  0.6414 -0.7824 -0.6456
  181SLPC   H8S20726   2.809   5.720   9.688 -1.3497 -0.7624 -1.1636
  181SLPC   C2920727   2.659   5.860   9.601  0.2029  0.9644  0.4345
  181SLPC   H9R20728   2.549   5.863   9.606  0.1075  0.9956 -1.1417
  181SLPC  C21020729   2.711   5.882   9.482 -0.1922 -0.4476 -0.2902
  181SLPC  H10R20730   2.642   5.935   9.416 -0.4834  0.6796  0.8872
  181SLPC  C21120731   2.850   5.839   9.436  0.1466  0.0279 -0.5722
  181SLPC  H11R20732   2.922   5.820   9.518 -1.5552  1.7986  1.4183
  181SLPC  H11S20733   2.884   5.927   9.377 -0.6333  0.6937 -0.0462
  181SLPC  C21220734   2.835   5.709   9.358 -0.1916 -0.3985  1.0874
  181SLPC  H12R20735   2.824   5.615   9.413  3.2359 -2.8835 -1.9532
  181SLPC  C21320736   2.852   5.702   9.222 -0.3010  0.6763  0.1380
  181SLPC  H13R20737   2.830   5.602   9.184 -0.0817  0.0442  1.6123
  181SLPC  C21420738   2.887   5.804   9.116 -0.2561 -0.7054  0.1954
  181SLPC  H14R20739   2.966   5.763   9.049  2.7701  0.6837  2.6373
  181SLPC  H14S20740   2.931   5.896   9.161 -1.0424  0.6240 -1.6129
  181SLPC  C21520741   2.771   5.853   9.022  0.1169  0.1853  0.0137
  181SLPC  H15R20742   2.796   5.954   8.981 -0.6027  0.3097 -0.1276
  181SLPC  H15S20743   2.673   5.851   9.073 -0.7093 -0.1435 -1.5249
  181SLPC  C21620744   2.740   5.760   8.898  0.2381 -0.5018  0.0780
  181SLPC  H16R20745   2.741   5.661   8.948  1.4088 -0.6783 -0.2490
  181SLPC  H16S20746   2.832   5.760   8.835 -0.0059  1.6323 -0.3662
  181SLPC  C21720747   2.605   5.791   8.838  0.7552 -0.0301  0.1062
  181SLPC  H17R20748   2.597   5.898   8.807 -0.0645 -0.4616 -1.2527
  181SLPC  H17S20749   2.523   5.770   8.911  0.2587  0.9033 -0.1628
  181SLPC  C21820750   2.579   5.709   8.713 -0.0211  0.0242  0.3015
  181SLPC  H18R20751   2.484   5.742   8.667  0.9077  2.5972  0.0570
  181SLPC  H18S20752   2.595   5.602   8.739 -1.6948 -0.0738  1.0678
  181SLPC  H18T20753   2.658   5.730   8.638  1.5558  0.3968  1.9718
  181SLPC   C3320754   3.140   5.979   9.899  0.3485 -0.3467  0.1170
  181SLPC   H3X20755   3.072   5.893   9.876  1.0483 -0.4529 -1.7316
  181SLPC   H3Y20756   3.232   5.919   9.882 -0.3353 -0.7690 -2.6076
  181SLPC   C3420757   3.144   6.071   9.780  0.5174 -0.2096 -0.1900
  181SLPC   H4X20758   3.060   6.142   9.798  1.6100  0.8207  1.0818
  181SLPC   H4Y20759   3.134   6.007   9.690 -1.2906  0.4520 -0.5043
  181SLPC   C3520760   3.270   6.144   9.768  0.1336 -0.9903  0.0768
  181SLPC   H5X20761   3.346   6.063   9.769  2.2742  0.8867 -0.6559
  181SLPC   H5Y20762   3.281   6.208   9.858 -1.1340 -0.6785  0.0267
  181SLPC   C3620763   3.293   6.229   9.643 -0.0587 -0.2993 -0.0110
  181SLPC   H6X20764   3.222   6.313   9.646  0.0791 -0.1933  0.3245
  181SLPC   H6Y20765   3.264   6.171   9.553  3.5802  0.0005 -1.5558
  181SLPC   C3720766   3.442   6.267   9.605 -0.3931 -0.0420 -0.7722
  181SLPC   H7X20767   3.476   6.338   9.683  0.1014 -1.1119  0.0231
  181SLPC   H7Y20768   3.441   6.313   9.504 -0.4432 -0.9345 -1.1970
  181SLPC   C3820769   3.545   6.147   9.603 -0.3317 -0.9985 -0.7418
  181SLPC   H8X20770   3.546   6.107   9.707  0.9849 -0.5131 -0.5541
  181SLPC   H8Y20771   3.646   6.190   9.591 -0.5861  0.2850  1.2231
  181SLPC   C3920772   3.510   6.032   9.509  0.0538  0.3097 -0.2177
  181SLPC   H9X20773   3.402   6.022   9.482  1.1098 -0.6232 -5.1155
  181SLPC   H9Y20774   3.543   5.931   9.542  0.4097  0.4719 -0.0708
  181SLPC  C31020775   3.579   6.056   9.375 -0.1447 -0.6984 -0.0368
  181SLPC  H10X20776   3.687   6.032   9.385 -0.0525  0.2804  1.7323
  181SLPC  H10Y20777   3.568   6.161   9.341  1.6667 -0.1945  0.8001
  181SLPC  C31120778   3.512   5.970   9.261 -0.3970  0.4749 -0.3773
  181SLPC  H11X20779   3.404   5.996   9.255 -0.8914 -1.6299 -1.5364
  181SLPC  H11Y20780   3.527   5.861   9.278 -0.2253  0.3662 -1.2016
  181SLPC  C31220781   3.592   5.976   9.134 -0.0826 -0.4673 -0.7444
  181SLPC  H12X20782   3.552   5.906   9.057 -0.6634 -2.1765  1.0226
  181SLPC  H12Y20783   3.700   5.953   9.148  0.0051 -1.1071 -2.2872
  181SLPC  C31320784   3.601   6.116   9.066 -0.0326 -0.3190  0.0296
  181SLPC  H13X20785   3.648   6.102   8.967  0.1843 -0.4631  0.1515
  181SLPC  H13Y20786   3.637   6.196   9.134 -3.3348  0.6982  0.7538
  181SLPC  C31420787   3.457   6.182   9.033  0.0059  0.0848 -0.2240
  181SLPC  H14X20788   3.406   6.191   9.131 -1.1450  0.5097 -0.8472
  181SLPC  H14Y20789   3.391   6.108   8.983  0.8180  0.0037 -1.2204
  181SLPC  C31520790   3.475   6.310   8.956 -0.4786  0.4840  0.8291
  181SLPC  H15X20791   3.377   6.343   8.914 -0.9771 -1.2511  0.5543
  181SLPC  H15Y20792   3.535   6.295   8.864 -0.6254  0.7829  0.6810
  181SLPC  C31620793   3.532   6.429   9.036 -0.1911  0.2396 -0.0730
  181SLPC  H16X20794   3.530   6.503   8.953  0.3201 -0.4975 -0.7610
  181SLPC  H16Y20795   3.631   6.387   9.064 -1.1800 -1.5420  0.8445
  181SLPC  C31720796   3.465   6.461   9.168 -0.7095  0.7406  0.8295
  181SLPC  H17X20797   3.497   6.561   9.207  0.5295  0.6313  0.1677
  181SLPC  H17Y20798   3.508   6.397   9.248  0.5752  0.5719  0.0444
  181SLPC  C31820799   3.319   6.455   9.164  0.3160 -0.1477  0.0101
  181SLPC  H18X20800   3.275   6.494   9.070  2.2114  0.3375 -0.7051
  181SLPC  H18Y20801   3.270   6.514   9.245 -0.6287 -0.4614 -0.3185
  181SLPC  H18Z20802   3.277   6.352   9.167  2.0268 -0.9459 -1.6487
  182SLPC     N20803   6.648   0.186  10.951  0.5008 -0.2734 -0.0563
  182SLPC   C1320804   6.578   0.089  11.044 -0.8951  0.0046  0.3746
  182SLPC  H13A20805   6.562   0.138  11.138  0.5086 -0.3238  0.8076
  182SLPC  H13B20806   6.484   0.050  11.007  0.0191 -0.9321 -1.0902
  182SLPC  H13C20807   6.638   0.003  11.071 -0.3358  0.1126 -0.4578
  182SLPC   C1420808   6.541   0.290  10.922 -0.8337 -0.7880  0.0511
  182SLPC  H14A20809   6.533   0.348  11.012  1.4160 -0.6530  0.2247
  182SLPC  H14B20810   6.580   0.349  10.841  2.4413 -3.1169 -0.2726
  182SLPC  H14C20811   6.451   0.240  10.890 -0.9298 -0.2396 -0.5547
  182SLPC   C1520812   6.692   0.114  10.830  0.0369  0.8661 -0.3947
  182SLPC  H15A20813   6.736   0.187  10.763  1.1052  0.3672 -0.2599
  182SLPC  H15B20814   6.762   0.036  10.857 -2.1192 -1.5006 -1.2236
  182SLPC  H15C20815   6.605   0.069  10.784  0.6965 -1.6633  0.6519
  182SLPC   C1220816   6.767   0.238  11.029 -0.0919  0.0416  0.0548
  182SLPC  H12A20817   6.830   0.151  11.042  2.0564  1.3962 -0.6907
  182SLPC  H12B20818   6.728   0.272  11.123 -0.7246  0.9990 -0.5254
  182SLPC   C1120819   6.857   0.346  10.959  0.1814  0.3992 -0.3189
  182SLPC  H11A20820   6.929   0.299  10.889 -0.2573 -1.6160  0.4848
  182SLPC  H11B20821   6.925   0.376  11.041  1.6669 -1.1973 -0.8974
  182SLPC     P20822   6.829   0.521  10.773 -0.2071  0.3350 -0.4797
  182SLPC   O1320823   6.711   0.583  10.711 -0.5901  0.4198  0.4214
  182SLPC   O1420824   6.931   0.615  10.817 -0.0176  0.0740 -0.1580
  182SLPC   O1220825   6.782   0.446  10.906 -0.1328 -0.0779 -0.1617
  182SLPC   O1120826   6.888   0.403  10.678 -0.9305  0.5752  0.0546
  182SLPC    C120827   7.023   0.391  10.653 -0.0009 -0.2025 -0.9856
  182SLPC    HA20828   7.087   0.427  10.737 -0.9850 -0.5865 -0.0398
  182SLPC    HB20829   7.048   0.284  10.641  1.0252  0.0632 -1.2707
  182SLPC    C220830   7.073   0.455  10.524  0.4169 -0.1659  0.6464
  182SLPC    HS20831   7.049   0.564  10.527  1.9057  0.1910  3.4762
  182SLPC   O2120832   7.010   0.395  10.407 -0.1979 -0.0570 -0.1843
  182SLPC   C2120833   6.974   0.480  10.313 -0.2170 -0.4353  0.0207
  182SLPC   O2220834   6.991   0.602  10.310  0.4387 -0.3312  0.0058
  182SLPC   C2220835   6.901   0.403  10.207  0.0820  0.0737  0.7136
  182SLPC   H2R20836   6.952   0.311  10.171 -0.9450 -0.3624  0.3182
  182SLPC   H2S20837   6.808   0.361  10.252 -0.6725  0.9514 -0.0012
  182SLPC    C320838   7.230   0.445  10.502  0.2333  0.4103  0.0466
  182SLPC    HX20839   7.254   0.337  10.499  0.7538  0.4585  1.6166
  182SLPC    HY20840   7.268   0.496  10.594 -0.0070 -0.1107  0.4390
  182SLPC   O3120841   7.279   0.506  10.381 -0.3484 -0.4259 -0.5554
  182SLPC   C3120842   7.284   0.643  10.372  1.3691 -0.7022  0.8708
  182SLPC   O3220843   7.255   0.718  10.461 -0.1172  0.1530  0.2069
  182SLPC   C3220844   7.328   0.681  10.228 -0.0906 -0.1965 -0.1642
  182SLPC   H2X20845   7.280   0.610  10.157 -1.3050 -1.0030  1.3698
  182SLPC   H2Y20846   7.437   0.662  10.224 -0.0183 -0.5298  2.0202
  182SLPC   C2320847   6.846   0.494  10.087 -0.0146 -0.2982  0.6755
  182SLPC   H3R20848   6.914   0.569  10.041 -1.4023 -0.0202 -1.0658
  182SLPC   H3S20849   6.757   0.554  10.118 -0.5388  0.0445 -1.3408
  182SLPC   C2420850   6.788   0.412   9.966 -0.2145 -0.4977  0.1457
  182SLPC   H4R20851   6.688   0.451   9.938 -0.3248  0.1377  1.3280
  182SLPC   H4S20852   6.784   0.305   9.996 -1.5418  0.0858  2.2904
  182SLPC   C2520853   6.893   0.399   9.851  0.2812  0.7905  0.9643
  182SLPC   H5R20854   6.980   0.353   9.903  2.0635  0.3029 -2.2083
  182SLPC   H5S20855   6.932   0.497   9.816 -0.2166  1.1595  1.4257
  182SLPC   C2620856   6.847   0.319   9.724  0.4902  0.1908  0.0828
  182SLPC   H6R20857   6.764   0.376   9.678 -0.8594 -1.5891  0.2236
  182SLPC   H6S20858   6.819   0.214   9.749  0.3657 -0.3761 -2.2285
  182SLPC   C2720859   6.946   0.309   9.609 -0.2395  0.3726  0.1091
  182SLPC   H7R20860   7.036   0.270   9.661 -1.5748 -2.0756  0.7595
  182SLPC   H7S20861   6.972   0.408   9.566  0.3906 -0.5852 -1.8137
  182SLPC   C2820862   6.910   0.201   9.504  0.4032  0.5341 -0.0515
  182SLPC   H8R20863   6.879   0.108   9.557 -1.9797  0.0542 -2.1342
  182SLPC   H8S20864   7.001   0.182   9.444 -1.3824  0.0213 -2.7619
  182SLPC   C2920865   6.799   0.245   9.415 -0.4063  0.6074  0.4539
  182SLPC   H9R20866   6.712   0.283   9.471 -0.9860 -0.9062  0.6071
  182SLPC  C21020867   6.792   0.257   9.278 -0.3496  0.5382 -0.1179
  182SLPC  H10R20868   6.711   0.316   9.234  0.4762  1.6693 -0.1766
  182SLPC  C21120869   6.904   0.209   9.179  0.5506 -0.0706  0.3877
  182SLPC  H11R20870   6.952   0.113   9.207  1.0871 -0.1605 -0.7665
  182SLPC  H11S20871   6.984   0.285   9.171 -1.6464  2.3311 -0.2970
  182SLPC  C21220872   6.853   0.169   9.039 -0.0470 -0.2262 -0.4613
  182SLPC  H12R20873   6.865   0.248   8.963  0.4569  0.6836  0.5435
  182SLPC  C21320874   6.802   0.050   8.999  0.2641 -0.2345 -0.3776
  182SLPC  H13R20875   6.766   0.036   8.896 -0.0358  0.6170 -0.3923
  182SLPC  C21420876   6.780  -0.072   9.086  0.3527 -0.1067  0.2453
  182SLPC  H14R20877   6.680  -0.117   9.069  0.2125 -0.3788  1.7004
  182SLPC  H14S20878   6.788  -0.048   9.194  1.8517 -1.2364  0.4132
  182SLPC  C21520879   6.880  -0.183   9.042  0.1120  0.1008  0.1005
  182SLPC  H15R20880   6.983  -0.142   9.046 -0.3626  1.2980  0.6088
  182SLPC  H15S20881   6.883  -0.195   8.931  1.0758  1.2583 -0.0256
  182SLPC  C21620882   6.873  -0.320   9.111 -0.2201  1.0044  0.3087
  182SLPC  H16R20883   6.772  -0.366   9.119 -0.3767  1.5087  1.5650
  182SLPC  H16S20884   6.907  -0.310   9.216 -0.6661 -1.0841  0.6828
  182SLPC  C21720885   6.970  -0.420   9.033 -0.1504  0.1243  0.2829
  182SLPC  H17R20886   6.900  -0.451   8.952  0.6396  0.4461 -0.5396
  182SLPC  H17S20887   6.979  -0.511   9.096  0.6440 -0.3897 -0.5551
  182SLPC  C21820888   7.114  -0.370   8.989  0.7358  0.0552  0.3871
  182SLPC  H18R20889   7.161  -0.323   9.078  0.8392  2.6029 -0.9347
  182SLPC  H18S20890   7.101  -0.307   8.898  0.0742 -0.6930 -0.0478
  182SLPC  H18T20891   7.186  -0.447   8.955 -0.1179 -0.3398 -0.6122
  182SLPC   C3320892   7.299   0.824  10.177 -0.4257  0.1156  0.0329
  182SLPC   H3X20893   7.355   0.895  10.241 -0.9780 -1.5594  2.5216
  182SLPC   H3Y20894   7.191   0.847  10.188 -1.3044 -2.1604 -2.6095
  182SLPC   C3420895   7.323   0.852  10.030  0.1620  0.0086 -0.2714
  182SLPC   H4X20896   7.429   0.826  10.010  0.7626  1.3594  0.9437
  182SLPC   H4Y20897   7.308   0.961  10.013  2.7933  0.8189  1.7398
  182SLPC   C3520898   7.225   0.777   9.948 -0.1862 -0.6164  0.7331
  182SLPC   H5X20899   7.122   0.812   9.970  0.7290  0.9521  2.9920
  182SLPC   H5Y20900   7.232   0.670   9.976  0.3717 -0.5182  0.9899
  182SLPC   C3620901   7.252   0.794   9.796  0.3402  0.3524 -0.0178
  182SLPC   H6X20902   7.359   0.772   9.774  0.3164 -0.8862  0.9517
  182SLPC   H6Y20903   7.226   0.899   9.771 -1.3828  0.4821  2.0476
  182SLPC   C3720904   7.172   0.694   9.715  0.2028  0.3230  0.0182
  182SLPC   H7X20905   7.067   0.704   9.751  0.4938  0.6279  0.8145
  182SLPC   H7Y20906   7.213   0.597   9.751  2.0714  0.6406 -1.1438
  182SLPC   C3820907   7.193   0.711   9.569  0.0058 -0.4088  0.6385
  182SLPC   H8X20908   7.301   0.707   9.541  0.1228 -0.7288  1.1259
  182SLPC   H8Y20909   7.155   0.809   9.531  0.7011 -1.0954 -2.0794
  182SLPC   C3920910   7.125   0.608   9.471 -0.4359 -0.5113 -0.6746
  182SLPC   H9X20911   7.014   0.612   9.480 -0.3798  1.3971 -0.4265
  182SLPC   H9Y20912   7.169   0.506   9.483  0.3617 -0.1248 -0.3071
  182SLPC  C31020913   7.153   0.660   9.330 -0.4449 -0.0031 -0.2603
  182SLPC  H10X20914   7.262   0.657   9.307 -0.2103 -1.9787  0.8999
  182SLPC  H10Y20915   7.129   0.769   9.329 -4.3776 -0.6563  1.8430
  182SLPC  C31120916   7.079   0.577   9.226 -0.0960 -0.3445  0.2687
  182SLPC  H11X20917   6.972   0.591   9.253 -0.2873 -0.9054 -0.1732
  182SLPC  H11Y20918   7.112   0.473   9.245 -0.0498 -0.0680  1.8224
  182SLPC  C31220919   7.118   0.611   9.081 -0.2330 -0.3443  0.0661
  182SLPC  H12X20920   7.229   0.605   9.074 -0.1805  0.3078  0.2969
  182SLPC  H12Y20921   7.079   0.711   9.054  1.9288 -0.1938 -3.0528
  182SLPC  C31320922   7.052   0.521   8.981 -0.3699 -0.1325 -0.2902
  182SLPC  H13X20923   6.942   0.532   8.975 -0.3455 -0.3722 -1.3423
  182SLPC  H13Y20924   7.087   0.418   9.005 -1.9541 -0.3773  1.1793
  182SLPC  C31420925   7.119   0.552   8.842  0.1098  0.7181  0.2676
  182SLPC  H14X20926   7.109   0.455   8.789  4.2358 -0.6430  1.6421
  182SLPC  H14Y20927   7.227   0.563   8.861  0.1814  0.2452  0.1471
  182SLPC  C31520928   7.043   0.659   8.763  0.2471 -0.7412  0.4337
  182SLPC  H15X20929   7.062   0.760   8.804  0.9871 -0.4204 -0.6344
  182SLPC  H15Y20930   6.938   0.623   8.759  1.4752 -4.6860 -0.0904
  182SLPC  C31620931   7.103   0.678   8.620 -0.2009 -0.0217  0.7184
  182SLPC  H16X20932   7.106   0.575   8.578 -2.5786 -0.0945  0.5797
  182SLPC  H16Y20933   7.205   0.715   8.642 -1.2941  1.3435  4.1287
  182SLPC  C31720934   7.029   0.772   8.520  1.1359 -0.1908 -0.3235
  182SLPC  H17X20935   7.002   0.862   8.579  2.7723 -0.6073  1.1718
  182SLPC  H17Y20936   6.946   0.709   8.483  0.7871 -1.4683  2.3916
  182SLPC  C31820937   7.107   0.830   8.407  0.5415 -0.0225 -0.1221
  182SLPC  H18X20938   7.197   0.881   8.448  1.6297 -0.1065 -2.2976
  182SLPC  H18Y20939   7.043   0.905   8.355  1.6059  1.2265  0.3025
  182SLPC  H18Z20940   7.125   0.744   8.339 -1.2322  0.7195 -1.6001
  183SLPC     N20941   1.060   0.379  10.844  0.7364  0.9696  0.0797
  183SLPC   C1320942   1.190   0.392  10.899 -0.4372 -0.0227 -0.2792
  183SLPC  H13A20943   1.269   0.372  10.828 -0.6736 -2.0677 -0.0118
  183SLPC  H13B20944   1.199   0.497  10.925  1.0087 -0.2827  0.3544
  183SLPC  H13C20945   1.202   0.333  10.988  0.3018 -2.6584 -2.0073
  183SLPC   C1420946   1.017   0.483  10.748  0.3906 -0.3969 -0.4818
  183SLPC  H14A20947   0.916   0.470  10.713  0.9807 -0.4412 -2.2826
  183SLPC  H14B20948   1.022   0.576  10.803 -0.8275 -1.3550  1.3349
  183SLPC  H14C20949   1.090   0.498  10.670 -0.2438 -1.1461 -1.2355
  183SLPC   C1520950   0.960   0.383  10.955 -0.0007 -0.0092 -0.0476
  183SLPC  H15A20951   0.869   0.346  10.908 -1.3061  0.8867  1.6854
  183SLPC  H15B20952   0.980   0.323  11.043  1.7471 -0.1982 -0.5284
  183SLPC  H15C20953   0.947   0.485  10.986  1.8582  0.4140 -0.5584
  183SLPC   C1220954   1.054   0.240  10.773 -0.0482 -0.0513  0.3592
  183SLPC  H12A20955   0.951   0.215  10.752  0.4762 -1.6909 -0.3656
  183SLPC  H12B20956   1.064   0.167  10.852 -0.5175 -0.9479 -0.3920
  183SLPC   C1120957   1.140   0.205  10.653 -0.8437  0.1851  0.9055
  183SLPC  H11A20958   1.108   0.271  10.570  0.6314 -1.0256 -0.7149
  183SLPC  H11B20959   1.125   0.103  10.612 -1.7731  0.1002  1.4375
  183SLPC     P20960   1.356   0.114  10.767  0.4935 -0.2432 -0.1672
  183SLPC   O1320961   1.438   0.185  10.868  0.5478  0.3796  0.3057
  183SLPC   O1420962   1.263   0.011  10.820  0.0506  0.5032 -0.4752
  183SLPC   O1220963   1.283   0.222  10.672 -1.0612 -0.2017 -0.0828
  183SLPC   O1120964   1.464   0.038  10.677 -0.0440 -0.4398 -0.2662
  183SLPC    C120965   1.426  -0.009  10.547 -0.2322  0.1294  0.1422
  183SLPC    HA20966   1.480  -0.102  10.519 -2.2093 -0.8268 -0.6795
  183SLPC    HB20967   1.321  -0.044  10.547  0.1619 -1.1305  0.9502
  183SLPC    C220968   1.459   0.082  10.432  0.5316 -0.0272 -0.3855
  183SLPC    HS20969   1.383   0.163  10.429  0.3042 -0.1003  1.7978
  183SLPC   O2120970   1.474   0.007  10.313 -0.7812 -0.1382 -0.0151
  183SLPC   C2120971   1.369  -0.051  10.269  0.4810  0.5478  0.3597
  183SLPC   O2220972   1.255  -0.027  10.306 -0.3624  0.2072 -0.6388
  183SLPC   C2220973   1.405  -0.153  10.165  0.2266 -0.1325  0.3775
  183SLPC   H2R20974   1.419  -0.101  10.068 -2.1453 -0.4313 -0.1947
  183SLPC   H2S20975   1.489  -0.219  10.194 -0.0817 -0.8069 -0.2179
  183SLPC    C320976   1.588   0.166  10.464  0.8929  0.3758 -0.2157
  183SLPC    HX20977   1.666   0.098  10.504  1.9467  1.1400 -0.9406
  183SLPC    HY20978   1.568   0.239  10.544 -3.9810  0.0858 -0.8337
  183SLPC   O3120979   1.641   0.230  10.348  0.3519 -0.3978  0.6867
  183SLPC   C3120980   1.576   0.331  10.295  0.1999  0.3112  0.3685
  183SLPC   O3220981   1.488   0.392  10.355  0.3024 -0.1965 -0.7556
  183SLPC   C3220982   1.635   0.361  10.152  0.8841  0.0213  0.1710
  183SLPC   H2X20983   1.721   0.296  10.126  1.7275  1.3286 -0.4055
  183SLPC   H2Y20984   1.660   0.469  10.164 -0.8591  0.1520  4.9074
  183SLPC   C2320985   1.280  -0.240  10.141  0.2478  0.0085  0.1400
  183SLPC   H3R20986   1.198  -0.174  10.107  0.0987 -0.3173 -0.1377
  183SLPC   H3S20987   1.257  -0.290  10.237 -1.2676  0.6308  0.1207
  183SLPC   C2420988   1.304  -0.359  10.048  0.4919  0.1319  0.0075
  183SLPC   H4R20989   1.225  -0.437  10.049 -0.7855  1.3790 -0.3603
  183SLPC   H4S20990   1.401  -0.402  10.084  0.1101 -0.0969  0.7924
  183SLPC   C2520991   1.320  -0.314   9.900  0.2205 -0.2544  0.1511
  183SLPC   H5R20992   1.410  -0.248   9.897  0.3297 -0.3654  0.8247
  183SLPC   H5S20993   1.233  -0.255   9.866  2.2228  2.0747 -1.2837
  183SLPC   C2620994   1.313  -0.434   9.805 -0.2758 -0.2145 -0.1482
  183SLPC   H6R20995   1.221  -0.495   9.816  0.8767 -1.8289  0.8938
  183SLPC   H6S20996   1.403  -0.495   9.829  0.0044  0.1538 -0.2487
  183SLPC   C2720997   1.339  -0.375   9.662 -0.3222  0.0723 -0.6698
  183SLPC   H7R20998   1.367  -0.459   9.594  3.3620  1.3751 -0.9936
  183SLPC   H7S20999   1.432  -0.314   9.663 -0.3911  0.3528  3.2371
  183SLPC   C2821000   1.223  -0.300   9.588 -0.1048 -0.2150 -0.3216
  183SLPC   H8R21001   1.218  -0.207   9.648  0.6805 -0.6797  0.4892
  183SLPC   H8S21002   1.131  -0.359   9.608  0.1415 -0.3856  0.3141
  183SLPC   C2921003   1.247  -0.286   9.438  0.7337  0.0963  0.7867
  183SLPC   H9R21004   1.281  -0.189   9.399  2.4349 -1.0637 -0.7767
  183SLPC  C21021005   1.236  -0.382   9.345 -0.6372  1.0957  0.0370
  183SLPC  H10R21006   1.243  -0.369   9.236  2.2409 -2.4772 -0.4159
  183SLPC  C21121007   1.206  -0.527   9.377 -0.6711  0.3273  0.3525
  183SLPC  H11R21008   1.171  -0.547   9.480 -0.4752  1.4546  0.6441
  183SLPC  H11S21009   1.304  -0.580   9.369 -0.8895  0.1690 -3.8171
  183SLPC  C21221010   1.125  -0.607   9.276  0.0568  0.6184  0.8510
  183SLPC  H12R21011   1.019  -0.578   9.273  0.0888  1.0045 -3.6180
  183SLPC  C21321012   1.159  -0.721   9.213 -1.0790  0.5324  0.4386
  183SLPC  H13R21013   1.100  -0.753   9.126  0.4265  1.4553 -0.9905
  183SLPC  C21421014   1.297  -0.789   9.204 -0.4803 -0.1864 -0.9448
  183SLPC  H14R21015   1.296  -0.885   9.260 -1.6509  1.3842  1.8943
  183SLPC  H14S21016   1.370  -0.729   9.262 -0.2152 -0.8068 -0.6174
  183SLPC  C21521017   1.341  -0.801   9.064  0.3877  0.4557  0.0061
  183SLPC  H15R21018   1.319  -0.706   9.011 -0.8001  0.4984  0.5641
  183SLPC  H15S21019   1.287  -0.884   9.015  1.8660  0.0409 -1.0120
  183SLPC  C21621020   1.483  -0.836   9.051  0.2418  0.2959 -0.0634
  183SLPC  H16R21021   1.482  -0.939   9.090 -3.8172 -0.1239 -0.9171
  183SLPC  H16S21022   1.550  -0.780   9.119 -0.3471  1.0884 -0.1151
  183SLPC  C21721023   1.526  -0.814   8.903 -0.2457 -0.6915  0.5299
  183SLPC  H17R21024   1.484  -0.719   8.862  0.3263 -0.6862 -0.0557
  183SLPC  H17S21025   1.481  -0.899   8.847 -2.2940  0.4132  0.4055
  183SLPC  C21821026   1.680  -0.814   8.890  0.2353 -0.0251  0.2296
  183SLPC  H18R21027   1.722  -0.815   8.788  0.3687  0.8529  0.2668
  183SLPC  H18S21028   1.716  -0.899   8.951 -2.4314 -0.4635  1.3362
  183SLPC  H18T21029   1.723  -0.721   8.934 -3.5813  3.3365 -2.3962
  183SLPC   C3321030   1.538   0.358  10.032  0.4146 -0.4687 -0.1435
  183SLPC   H3X21031   1.596   0.415   9.956  0.2228  0.5341  0.4503
  183SLPC   H3Y21032   1.451   0.423  10.057  2.6271  2.5291  0.3292
  183SLPC   C3421033   1.496   0.220   9.992  1.0008 -0.1411  0.4147
  183SLPC   H4X21034   1.427   0.165  10.060  0.6542  0.0678  0.2348
  183SLPC   H4Y21035   1.584   0.154   9.977 -0.4762 -1.9578 -0.8068
  183SLPC   C3521036   1.429   0.219   9.849  0.0660  0.0636  0.4410
  183SLPC   H5X21037   1.503   0.265   9.780 -1.3219  0.6633 -0.6889
  183SLPC   H5Y21038   1.340   0.283   9.868  1.5640  1.9690  1.4677
  183SLPC   C3621039   1.397   0.077   9.799 -0.1920 -0.2128 -0.7848
  183SLPC   H6X21040   1.305   0.046   9.853 -0.2664  0.7349 -0.3471
  183SLPC   H6Y21041   1.477   0.002   9.818 -0.1188 -0.6412 -2.5615
  183SLPC   C3721042   1.366   0.055   9.649  0.6013 -0.6255 -0.3533
  183SLPC   H7X21043   1.342  -0.052   9.635  0.5082 -0.8951  1.5717
  183SLPC   H7Y21044   1.457   0.074   9.588  0.2852 -0.2713 -0.7236
  183SLPC   C3821045   1.252   0.140   9.598 -0.2804  0.3500 -0.2248
  183SLPC   H8X21046   1.281   0.247   9.594 -2.6536  1.1397  1.3164
  183SLPC   H8Y21047   1.163   0.135   9.664 -1.4587 -1.7899 -1.8552
  183SLPC   C3921048   1.210   0.089   9.459  0.7116 -0.1187  0.1303
  183SLPC   H9X21049   1.119   0.149   9.433  1.4747  0.1198 -2.2596
  183SLPC   H9Y21050   1.183  -0.019   9.454  0.7916 -0.2634  2.1747
  183SLPC  C31021051   1.303   0.129   9.350  0.3866 -0.0229 -0.2272
  183SLPC  H10X21052   1.406   0.091   9.371  0.5989  0.9414  0.5490
  183SLPC  H10Y21053   1.308   0.240   9.360  3.3493 -0.1595  0.5968
  183SLPC  C31121054   1.254   0.108   9.201 -0.2687  0.3242 -0.6855
  183SLPC  H11X21055   1.323   0.164   9.134  2.2840  1.4144  2.5641
  183SLPC  H11Y21056   1.155   0.157   9.196  0.7661  2.6112 -0.3076
  183SLPC  C31221057   1.249  -0.039   9.140 -0.1131 -1.0413  0.1113
  183SLPC  H12X21058   1.214  -0.118   9.209  1.6307 -1.6515  0.3511
  183SLPC  H12Y21059   1.351  -0.068   9.106  0.1971  0.7490 -0.6163
  183SLPC  C31321060   1.156  -0.041   9.019 -0.1143 -0.0511 -0.5241
  183SLPC  H13X21061   1.189   0.038   8.949  0.1088 -0.9106 -1.4109
  183SLPC  H13Y21062   1.050  -0.017   9.045 -0.7617 -0.3428 -2.6994
  183SLPC  C31421063   1.161  -0.174   8.948  0.4503  0.0317  0.4853
  183SLPC  H14X21064   1.091  -0.193   8.864  0.7219 -0.9315  0.4544
  183SLPC  H14Y21065   1.139  -0.255   9.021 -0.7624 -0.4821 -0.4078
  183SLPC  C31521066   1.299  -0.201   8.887  0.4482 -0.3819 -0.4712
  183SLPC  H15X21067   1.370  -0.245   8.961 -0.0441  1.0630  0.9302
  183SLPC  H15Y21068   1.353  -0.111   8.849  0.3187 -0.6471 -1.2838
  183SLPC  C31621069   1.299  -0.303   8.765 -0.7910 -0.3023 -1.0203
  183SLPC  H16X21070   1.407  -0.310   8.740 -0.7486 -0.7477 -0.7230
  183SLPC  H16Y21071   1.247  -0.275   8.671 -1.9383 -2.0777 -0.9686
  183SLPC  C31721072   1.249  -0.443   8.805 -0.1742  0.1045 -0.2914
  183SLPC  H17X21073   1.139  -0.448   8.821 -0.2480  0.1051 -0.8007
  183SLPC  H17Y21074   1.300  -0.472   8.899 -0.1945 -0.7291 -0.5347
  183SLPC  C31821075   1.288  -0.546   8.694 -0.1139 -0.5259  0.0811
  183SLPC  H18X21076   1.236  -0.517   8.600  1.7815  0.2943 -0.7648
  183SLPC  H18Y21077   1.262  -0.643   8.742  1.0876  0.3420  2.6897
  183SLPC  H18Z21078   1.396  -0.542   8.668 -0.5145  1.4823 -1.5586
  184SLPC     N21079   4.400   6.405  10.878  0.3580  0.1801 -0.2255
  184SLPC   C1321080   4.506   6.347  10.961  0.0674  0.0276  0.1643
  184SLPC  H13A21081   4.592   6.409  10.942  0.8809 -1.4812 -1.3423
  184SLPC  H13B21082   4.487   6.338  11.067  0.1254 -0.5764  0.1265
  184SLPC  H13C21083   4.524   6.249  10.919  0.4710  0.5227 -0.8526
  184SLPC   C1421084   4.389   6.544  10.919  0.2140  0.1970  0.5462
  184SLPC  H14A21085   4.352   6.556  11.020 -1.3134 -0.9766  0.1479
  184SLPC  H14B21086   4.481   6.599  10.901 -0.9902  1.5138 -1.9863
  184SLPC  H14C21087   4.318   6.597  10.858  0.7819 -1.7526 -1.9476
  184SLPC   C1521088   4.275   6.332  10.895  0.2559 -0.5822  0.3795
  184SLPC  H15A21089   4.293   6.225  10.891  0.7605 -0.5307  1.0191
  184SLPC  H15B21090   4.207   6.359  10.975  0.5990 -0.0308  0.4945
  184SLPC  H15C21091   4.211   6.345  10.810  1.3365  2.1283 -0.1030
  184SLPC   C1221092   4.448   6.409  10.733  0.9774  0.1369 -0.2445
  184SLPC  H12A21093   4.550   6.443  10.732  2.0723 -2.7529 -1.9811
  184SLPC  H12B21094   4.392   6.482  10.676 -0.9217 -1.2198 -0.2382
  184SLPC   C1121095   4.442   6.279  10.658  0.0086  1.3040  0.4656
  184SLPC  H11A21096   4.486   6.293  10.557 -0.5961  0.1246  0.0155
  184SLPC  H11B21097   4.337   6.244  10.646  0.2459  0.3320  1.1381
  184SLPC     P21098   4.544   6.039  10.686 -0.2873 -0.2524  0.0953
  184SLPC   O1321099   4.589   5.960  10.804 -0.2439 -0.2685 -0.0580
  184SLPC   O1421100   4.422   5.978  10.621  0.4254 -0.5259  0.0747
  184SLPC   O1221101   4.527   6.189  10.727  0.4514 -0.1556  0.7934
  184SLPC   O1121102   4.662   6.050  10.580 -0.0981  0.3868 -0.1559
  184SLPC    C121103   4.782   6.119  10.619  0.0388  0.4230 -0.6467
  184SLPC    HA21104   4.760   6.226  10.640  0.2567  0.7697 -2.1077
  184SLPC    HB21105   4.822   6.057  10.702  1.3121 -2.8087 -3.4249
  184SLPC    C221106   4.874   6.127  10.494  0.1268  0.7595  0.3480
  184SLPC    HS21107   4.951   6.206  10.508  0.1411  1.0343 -1.1652
  184SLPC   O2121108   4.788   6.146  10.373 -0.1893  0.3318  0.4203
  184SLPC   C2121109   4.736   6.258  10.344  0.2041 -0.0409  0.2560
  184SLPC   O2221110   4.737   6.359  10.417 -0.0094  0.4164 -0.2343
  184SLPC   C2221111   4.661   6.253  10.210  0.1976 -0.3144 -0.2982
  184SLPC   H2R21112   4.701   6.331  10.143 -0.1294 -0.3743 -0.5673
  184SLPC   H2S21113   4.667   6.150  10.169 -0.2934 -0.7400  0.6559
  184SLPC    C321114   4.957   5.995  10.466 -0.1711 -0.1729  0.2751
  184SLPC    HX21115   4.887   5.911  10.486 -1.7818  0.7963 -1.0169
  184SLPC    HY21116   5.032   5.994  10.548 -0.8618  0.8454  0.9423
  184SLPC   O3121117   5.024   5.993  10.338  0.0636  0.1131  0.4579
  184SLPC   C3121118   5.136   6.051  10.320  0.0097  0.3504  0.3168
  184SLPC   O3221119   5.198   6.118  10.399 -0.0827  0.5579 -0.1546
  184SLPC   C3221120   5.178   6.041  10.173 -0.1983 -0.4650 -0.2921
  184SLPC   H2X21121   5.206   6.140  10.132 -0.7450 -0.9002 -1.7922
  184SLPC   H2Y21122   5.091   6.000  10.117 -0.9496  1.8165 -0.8604
  184SLPC   C2321123   4.505   6.265  10.244 -0.7345 -0.3203 -0.3482
  184SLPC   H3R21124   4.483   6.371  10.270 -0.0726 -0.0466 -0.8525
  184SLPC   H3S21125   4.468   6.195  10.322 -1.7650  0.9095  0.3125
  184SLPC   C2421126   4.421   6.236  10.118  0.4277 -0.4761  0.1243
  184SLPC   H4R21127   4.453   6.135  10.086  0.9474 -0.1028 -0.5619
  184SLPC   H4S21128   4.429   6.312  10.038  0.7728 -0.1796  0.4348
  184SLPC   C2521129   4.277   6.221  10.164  0.4935  1.0221 -0.4666
  184SLPC   H5R21130   4.273   6.171  10.263  1.2057  1.0581 -0.4102
  184SLPC   H5S21131   4.230   6.153  10.090 -1.3799  0.1456  1.4400
  184SLPC   C2621132   4.198   6.357  10.166  0.1393  0.1682  0.1314
  184SLPC   H6R21133   4.199   6.393  10.061 -2.0187  0.7832  0.2670
  184SLPC   H6S21134   4.248   6.439  10.221 -2.2571  2.7102 -1.2397
  184SLPC   C2721135   4.052   6.341  10.194  0.4748 -0.6278 -0.5632
  184SLPC   H7R21136   4.031   6.296  10.294 -0.7053 -2.6521 -1.6501
  184SLPC   H7S21137   4.014   6.252  10.138 -0.6170 -1.9131  2.0262
  184SLPC   C2821138   3.962   6.462  10.166 -0.1004  0.4195  0.4537
  184SLPC   H8R21139   3.870   6.441  10.225  0.5807  0.3746  1.5295
  184SLPC   H8S21140   3.933   6.477  10.060 -0.2855 -2.0168  0.1128
  184SLPC   C2921141   4.027   6.593  10.224  0.3119 -0.2496  0.1156
  184SLPC   H9R21142   4.022   6.595  10.334 -0.2453 -0.5508  0.1008
  184SLPC  C21021143   4.095   6.690  10.159 -0.1093  0.1500 -0.2035
  184SLPC  H10R21144   4.138   6.772  10.217 -0.4771  0.4603 -0.3673
  184SLPC  C21121145   4.121   6.694  10.008  0.8906 -0.6960 -0.4030
  184SLPC  H11R21146   4.095   6.599   9.958  1.0107 -0.4578 -0.9272
  184SLPC  H11S21147   4.232   6.704  10.001  0.7535 -0.3748 -4.2191
  184SLPC  C21221148   4.063   6.818   9.940  0.7796  0.0880 -0.3567
  184SLPC  H12R21149   4.055   6.907  10.005  1.0727 -0.6854  0.7703
  184SLPC  C21321150   4.016   6.815   9.811  0.2870  0.2800  0.4805
  184SLPC  H13R21151   3.986   6.913   9.771  1.7550  0.8696  0.7497
  184SLPC  C21421152   4.015   6.702   9.711  0.4547 -1.0275  0.1613
  184SLPC  H14R21153   4.035   6.602   9.754  0.2399 -1.7013 -1.2604
  184SLPC  H14S21154   4.090   6.731   9.634  0.3593 -0.4857  0.2686
  184SLPC  C21521155   3.873   6.690   9.648 -0.4458  0.8159 -0.9918
  184SLPC  H15R21156   3.851   6.782   9.591 -1.0062 -0.8713 -3.6691
  184SLPC  H15S21157   3.798   6.685   9.730  0.2426  2.8702 -0.1650
  184SLPC  C21621158   3.882   6.582   9.549 -0.2756  0.6770  0.4887
  184SLPC  H16R21159   3.949   6.496   9.573  0.2858  0.5150 -1.4855
  184SLPC  H16S21160   3.927   6.623   9.456 -1.6266  0.9900 -0.0549
  184SLPC  C21721161   3.739   6.520   9.529 -0.5546  0.2425  0.2078
  184SLPC  H17R21162   3.655   6.592   9.517 -1.6505 -0.8271  1.1774
  184SLPC  H17S21163   3.716   6.466   9.623 -0.6320  0.7929  0.5090
  184SLPC  C21821164   3.739   6.413   9.423  0.2044  0.2819 -0.6990
  184SLPC  H18R21165   3.775   6.448   9.324  1.7698  0.3688 -0.1228
  184SLPC  H18S21166   3.637   6.369   9.419  1.1846 -2.0719 -1.3769
  184SLPC  H18T21167   3.793   6.322   9.457 -0.5335 -0.8089 -2.3353
  184SLPC   C3321168   5.291   5.931  10.166  0.0992 -0.6283 -0.0046
  184SLPC   H3X21169   5.239   5.833  10.170  2.5859 -1.9907  2.7208
  184SLPC   H3Y21170   5.362   5.933  10.252 -2.9563 -0.6838  2.7111
  184SLPC   C3421171   5.375   5.938  10.034 -0.5803  0.5980  0.2224
  184SLPC   H4X21172   5.454   5.861  10.041 -0.9890  0.1466 -0.0580
  184SLPC   H4Y21173   5.432   6.034  10.030 -0.0781  0.2694 -0.7702
  184SLPC   C3521174   5.285   5.919   9.915 -0.5968  0.3677  0.4628
  184SLPC   H5X21175   5.229   6.014   9.898 -0.8846 -0.1148 -1.6383
  184SLPC   H5Y21176   5.217   5.834   9.933 -0.7804  0.1239 -1.1788
  184SLPC   C3621177   5.361   5.896   9.779 -0.3409  0.1146  0.1582
  184SLPC   H6X21178   5.282   5.846   9.719 -0.3920 -2.6325  2.2830
  184SLPC   H6Y21179   5.436   5.818   9.803 -0.1310  0.3636  0.3146
  184SLPC   C3721180   5.418   6.017   9.702 -0.1514  0.0001 -1.0132
  184SLPC   H7X21181   5.476   6.088   9.763 -0.6090  0.1460 -0.7432
  184SLPC   H7Y21182   5.330   6.069   9.659 -2.0031 -0.5720  1.8197
  184SLPC   C3821183   5.511   5.985   9.583 -0.0532 -0.0141 -0.0085
  184SLPC   H8X21184   5.606   5.935   9.614 -0.4359  0.0938  1.3757
  184SLPC   H8Y21185   5.555   6.074   9.531 -0.5654 -1.0368 -2.3406
  184SLPC   C3921186   5.443   5.895   9.485 -0.1222  0.6001 -0.2791
  184SLPC   H9X21187   5.345   5.940   9.459 -0.9673 -0.4983  0.8587
  184SLPC   H9Y21188   5.422   5.794   9.527  2.1313  0.2088  0.0360
  184SLPC  C31021189   5.518   5.871   9.348  1.1001  0.2885  0.4980
  184SLPC  H10X21190   5.622   5.832   9.360  1.6226  1.4576  0.0303
  184SLPC  H10Y21191   5.527   5.972   9.301 -0.0538  0.8269  1.3847
  184SLPC  C31121192   5.461   5.760   9.257  0.6363  0.2613  0.3876
  184SLPC  H11X21193   5.350   5.766   9.256  0.4732 -1.7305  1.0597
  184SLPC  H11Y21194   5.471   5.657   9.299 -1.9684 -2.2092 -4.1947
  184SLPC  C31221195   5.525   5.775   9.116 -0.1265 -0.8228  0.2226
  184SLPC  H12X21196   5.634   5.789   9.129 -0.2960  2.8411 -1.1581
  184SLPC  H12Y21197   5.504   5.873   9.069  0.7754 -0.9221 -0.4038
  184SLPC  C31321198   5.492   5.657   9.029 -0.1069 -0.2035 -0.5580
  184SLPC  H13X21199   5.382   5.646   9.040 -0.3189  1.0775 -1.2027
  184SLPC  H13Y21200   5.524   5.557   9.065  0.3574 -0.0797 -0.6204
  184SLPC  C31421201   5.526   5.688   8.884 -0.3127 -0.1491 -0.4501
  184SLPC  H14X21202   5.630   5.729   8.886 -0.4082  0.2228 -1.9097
  184SLPC  H14Y21203   5.458   5.766   8.845 -0.2781 -1.0250 -2.3690
  184SLPC  C31521204   5.520   5.570   8.786  0.3224  0.2889  0.2844
  184SLPC  H15X21205   5.598   5.495   8.813 -0.4809 -1.1394 -1.2034
  184SLPC  H15Y21206   5.549   5.604   8.685 -1.0005  2.1238  0.4645
  184SLPC  C31621207   5.384   5.513   8.792  0.0634 -0.1453  0.1390
  184SLPC  H16X21208   5.312   5.596   8.800 -0.5292 -0.4199 -1.7327
  184SLPC  H16Y21209   5.375   5.451   8.884 -2.0027  2.1460  1.5857
  184SLPC  C31721210   5.354   5.442   8.658 -0.4488  0.2153  0.1507
  184SLPC  H17X21211   5.427   5.365   8.625 -0.7543 -0.0847  0.1747
  184SLPC  H17Y21212   5.375   5.510   8.572  1.3697 -0.9585 -0.3904
  184SLPC  C31821213   5.206   5.391   8.656 -1.2650  0.1682  0.0330
  184SLPC  H18X21214   5.192   5.340   8.558 -4.0874 -0.9975  0.9302
  184SLPC  H18Y21215   5.128   5.470   8.665 -1.0450  0.3620  0.2354
  184SLPC  H18Z21216   5.193   5.311   8.732  0.2229 -1.8142 -1.6741
  185SLPC     N21217   4.955   6.584   6.377  0.2874 -0.2757  0.6375
  185SLPC   C1321218   4.821   6.531   6.383  0.2359 -0.5394  0.0758
  185SLPC  H13A21219   4.777   6.515   6.286  2.0685  1.1985 -1.1381
  185SLPC  H13B21220   4.818   6.431   6.424  0.8620 -1.0702 -1.1271
  185SLPC  H13C21221   4.755   6.588   6.446 -4.1631 -3.5664 -1.3201
  185SLPC   C1421222   4.949   6.720   6.307  0.2515  0.2957  0.0940
  185SLPC  H14A21223   4.902   6.792   6.372 -0.8832  0.6121 -1.0359
  185SLPC  H14B21224   5.050   6.753   6.288 -0.7699  2.6897 -1.6948
  185SLPC  H14C21225   4.894   6.715   6.214 -0.5709 -0.2802  0.5944
  185SLPC   C1521226   5.034   6.504   6.284 -0.0652  0.6307  0.1605
  185SLPC  H15A21227   5.134   6.544   6.278 -0.2459  0.9305 -1.7815
  185SLPC  H15B21228   5.039   6.400   6.314 -1.1865  0.5409  0.0909
  185SLPC  H15C21229   4.989   6.512   6.185 -1.6771 -0.0221  0.7948
  185SLPC   C1221230   5.014   6.596   6.512  0.4669  0.3559 -0.1455
  185SLPC  H12A21231   5.118   6.622   6.497  0.8042 -0.6105  0.4591
  185SLPC  H12B21232   5.026   6.494   6.546 -1.6983 -0.0564 -0.4563
  185SLPC   C1121233   4.949   6.676   6.625  0.1913  1.3500 -0.2350
  185SLPC  H11A21234   5.011   6.662   6.715  0.6988  0.2780 -0.7283
  185SLPC  H11B21235   4.849   6.643   6.660  0.8309  0.5888  0.9062
  185SLPC     P21236   5.059   6.910   6.620 -0.3098  0.3240  0.3702
  185SLPC   O1321237   5.186   6.839   6.597 -0.1659  0.5910 -0.4461
  185SLPC   O1421238   5.045   7.028   6.531  0.4043 -0.3294 -0.2108
  185SLPC   O1221239   4.943   6.813   6.591  0.0017 -0.4140  0.0555
  185SLPC   O1121240   5.052   6.961   6.774 -0.2220 -0.5218  0.1334
  185SLPC    C121241   4.933   6.946   6.847 -0.3467  0.5050 -0.4733
  185SLPC    HA21242   4.859   6.872   6.810 -1.3180  1.2036 -0.0078
  185SLPC    HB21243   4.959   6.920   6.952 -0.5498 -1.4356 -0.8629
  185SLPC    C221244   4.856   7.084   6.868  0.4915  0.2916 -0.4952
  185SLPC    HS21245   4.860   7.136   6.770  1.0197  0.1660 -0.5472
  185SLPC   O2121246   4.926   7.163   6.964 -0.3455  0.1186 -0.3217
  185SLPC   C2121247   4.901   7.292   6.977  0.1298 -0.2662  0.1063
  185SLPC   O2221248   4.828   7.357   6.903  0.1696  0.1633 -0.3326
  185SLPC   C2221249   4.954   7.340   7.111 -0.2376 -0.3536  0.7288
  185SLPC   H2R21250   5.052   7.292   7.133 -0.3545  0.1127  2.4229
  185SLPC   H2S21251   4.978   7.447   7.090  1.8970 -0.3899  2.5863
  185SLPC    C321252   4.707   7.060   6.908  0.4508  0.0091 -0.0526
  185SLPC    HX21253   4.662   6.972   6.857  0.8409 -1.3451  1.8481
  185SLPC    HY21254   4.651   7.149   6.872  1.1648  0.4635 -0.0482
  185SLPC   O3121255   4.690   7.049   7.052  0.2478 -0.3108 -0.3220
  185SLPC   C3121256   4.685   6.918   7.093  0.0077  0.3878 -0.2475
  185SLPC   O3221257   4.703   6.823   7.016 -0.1592 -0.2218 -1.3042
  185SLPC   C3221258   4.680   6.915   7.248 -0.1754  0.1629 -0.3232
  185SLPC   H2X21259   4.625   6.826   7.285 -2.3942  1.3479 -0.5697
  185SLPC   H2Y21260   4.631   7.011   7.275  2.0112  0.7030  2.1271
  185SLPC   C2321261   4.858   7.323   7.229 -0.0591  0.2288 -0.0617
  185SLPC   H3R21262   4.824   7.218   7.238  3.5746 -0.8974  3.2469
  185SLPC   H3S21263   4.773   7.394   7.218  0.2590  0.3931 -1.6075
  185SLPC   C2421264   4.925   7.351   7.368  0.3778 -0.2159 -0.2771
  185SLPC   H4R21265   5.012   7.421   7.366 -2.0719  3.0603 -1.9433
  185SLPC   H4S21266   4.967   7.249   7.383  2.5345  0.4657 -1.3418
  185SLPC   C2521267   4.827   7.386   7.479 -0.1357 -0.1868 -0.0824
  185SLPC   H5R21268   4.745   7.312   7.471  0.1740 -0.3237 -3.4551
  185SLPC   H5S21269   4.774   7.483   7.469  0.0019 -0.1181 -0.1438
  185SLPC   C2621270   4.889   7.393   7.617  0.2069 -0.0114  1.1455
  185SLPC   H6R21271   4.968   7.472   7.625  1.1384 -0.9201  1.1033
  185SLPC   H6S21272   4.946   7.299   7.632  1.1417  0.2623 -0.5393
  185SLPC   C2721273   4.788   7.405   7.738 -0.4351  0.8202  0.1658
  185SLPC   H7R21274   4.717   7.320   7.727  0.8231 -0.0084 -2.7896
  185SLPC   H7S21275   4.730   7.497   7.719 -0.5894  0.5587 -0.7195
  185SLPC   C2821276   4.849   7.407   7.881 -0.1552 -0.0623  0.2294
  185SLPC   H8R21277   4.870   7.301   7.908 -2.4880 -0.6177  0.1453
  185SLPC   H8S21278   4.774   7.430   7.960  1.1375 -0.1896  1.5301
  185SLPC   C2921279   4.957   7.506   7.899  0.3676 -0.5167 -0.1936
  185SLPC   H9R21280   4.932   7.592   7.834 -1.6708 -0.8875  0.0383
  185SLPC  C21021281   5.071   7.503   7.962 -0.8519 -0.2280 -0.1948
  185SLPC  H10R21282   5.136   7.591   7.972 -0.3814 -0.4674 -1.0097
  185SLPC  C21121283   5.123   7.370   8.031  0.7807  0.2658  0.7537
  185SLPC  H11R21284   5.204   7.336   7.963 -1.7689  0.8852 -2.9326
  185SLPC  H11S21285   5.044   7.292   8.023  0.8533  0.0079  2.3111
  185SLPC  C21221286   5.153   7.386   8.174 -0.0458 -0.1171  0.5596
  185SLPC  H12R21287   5.261   7.386   8.192  0.0235 -0.1475  0.1609
  185SLPC  C21321288   5.081   7.382   8.285  0.0915 -0.0272 -0.4403
  185SLPC  H13R21289   5.129   7.408   8.380 -0.9406 -1.1337  0.4228
  185SLPC  C21421290   4.939   7.343   8.300  1.4272 -0.2511  0.5906
  185SLPC  H14R21291   4.932   7.244   8.350 -0.1651  0.3288  1.6135
  185SLPC  H14S21292   4.906   7.336   8.194  3.2017 -1.6628  0.0950
  185SLPC  C21521293   4.830   7.440   8.367  0.0111  0.2355  0.8190
  185SLPC  H15R21294   4.729   7.394   8.363 -0.0881  0.1855  3.0155
  185SLPC  H15S21295   4.824   7.538   8.314  1.2618  0.0144  0.2249
  185SLPC  C21621296   4.857   7.453   8.518 -0.0025  0.3322 -0.3625
  185SLPC  H16R21297   4.963   7.478   8.542 -0.6212  1.1228  1.8963
  185SLPC  H16S21298   4.849   7.349   8.554  0.5671  1.3283  3.0132
  185SLPC  C21721299   4.748   7.539   8.587  0.7531  0.1884 -0.4582
  185SLPC  H17R21300   4.656   7.517   8.529 -0.2219  3.0897 -0.1703
  185SLPC  H17S21301   4.760   7.647   8.565  0.4095 -0.2177 -2.9518
  185SLPC  C21821302   4.749   7.528   8.735  1.2557  0.0973 -0.1001
  185SLPC  H18R21303   4.847   7.564   8.773 -0.2216  1.1436  3.0934
  185SLPC  H18S21304   4.733   7.420   8.759  0.7689  0.1154 -0.3372
  185SLPC  H18T21305   4.665   7.579   8.787  1.0303 -1.6308  1.3295
  185SLPC   C3321306   4.821   6.936   7.308  0.5598  0.0656  0.5050
  185SLPC   H3X21307   4.877   7.005   7.241 -2.2108  0.9724 -1.0194
  185SLPC   H3Y21308   4.876   6.840   7.313  0.8908  0.2519  0.4953
  185SLPC   C3421309   4.814   6.980   7.457 -0.1506 -0.7607  0.0254
  185SLPC   H4X21310   4.712   6.970   7.499 -0.0252  0.7048  0.7610
  185SLPC   H4Y21311   4.836   7.088   7.442 -0.8869 -0.9212 -2.7688
  185SLPC   C3521312   4.921   6.912   7.546  0.0822  0.0071 -0.3766
  185SLPC   H5X21313   5.025   6.913   7.508 -0.1337 -0.3562 -1.0040
  185SLPC   H5Y21314   4.895   6.805   7.558 -0.5225  0.3853  2.1383
  185SLPC   C3621315   4.926   6.992   7.678  0.1658  0.3432 -0.3839
  185SLPC   H6X21316   4.827   7.040   7.694 -0.4326 -0.8202 -0.5247
  185SLPC   H6Y21317   5.004   7.070   7.665 -1.8294  2.2110 -1.8148
  185SLPC   C3721318   4.961   6.906   7.798  0.0800 -0.3253 -0.4975
  185SLPC   H7X21319   5.062   6.866   7.778  0.7686 -0.7401  3.1617
  185SLPC   H7Y21320   4.894   6.818   7.795  0.2776 -0.5217  0.5306
  185SLPC   C3821321   4.945   6.981   7.928  0.2166  0.4478  0.1426
  185SLPC   H8X21322   4.837   7.002   7.946  0.5659  3.1685 -0.4213
  185SLPC   H8Y21323   4.992   7.081   7.922 -0.3603  0.8395  1.6963
  185SLPC   C3921324   5.013   6.907   8.048 -0.4159 -0.1424 -0.3730
  185SLPC   H9X21325   5.094   6.845   8.002 -1.2799 -1.8711  0.3809
  185SLPC   H9Y21326   4.939   6.839   8.094  1.1412 -0.6839  1.4256
  185SLPC  C31021327   5.053   6.990   8.168 -0.1683 -0.2437 -0.2761
  185SLPC  H10X21328   4.965   7.044   8.210  0.0334  0.1331 -0.3357
  185SLPC  H10Y21329   5.114   7.070   8.121 -0.7902  1.5123  1.7308
  185SLPC  C31121330   5.127   6.907   8.271  0.2214  0.6506 -0.2625
  185SLPC  H11X21331   5.220   6.867   8.226  0.7420 -0.0129  1.3156
  185SLPC  H11Y21332   5.069   6.814   8.289  1.3537 -0.7292 -3.0994
  185SLPC  C31221333   5.167   6.980   8.397 -1.0805  0.6292  0.1764
  185SLPC  H12X21334   5.078   7.012   8.455 -2.8300 -1.8137 -0.9814
  185SLPC  H12Y21335   5.220   7.073   8.368 -1.9229  0.7403 -1.0703
  185SLPC  C31321336   5.244   6.883   8.493  0.3873 -0.2250  0.5257
  185SLPC  H13X21337   5.330   6.826   8.451  0.1065 -2.7823  3.0587
  185SLPC  H13Y21338   5.164   6.814   8.527 -1.8825  1.7941 -0.4276
  185SLPC  C31421339   5.295   6.945   8.625 -0.6012  0.6985  1.0688
  185SLPC  H14X21340   5.208   6.973   8.688  0.8217  0.3872  3.2884
  185SLPC  H14Y21341   5.365   7.029   8.603 -0.7711  0.6772  0.4359
  185SLPC  C31521342   5.381   6.849   8.709  1.2751  0.3988 -0.5137
  185SLPC  H15X21343   5.462   6.804   8.647  0.8679 -1.1663  0.0606
  185SLPC  H15Y21344   5.313   6.766   8.739  0.6316  1.4734  1.1455
  185SLPC  C31621345   5.442   6.910   8.837  0.2688  0.4262  0.2664
  185SLPC  H16X21346   5.369   6.914   8.921  0.3962  0.1685  0.3937
  185SLPC  H16Y21347   5.459   7.019   8.824  0.3821  0.4252  0.3959
  185SLPC  C31721348   5.563   6.827   8.892 -0.5943 -0.5205 -0.5248
  185SLPC  H17X21349   5.648   6.868   8.834 -1.9837  1.3099 -1.3873
  185SLPC  H17Y21350   5.541   6.719   8.878 -2.7881  0.1167 -2.6576
  185SLPC  C31821351   5.590   6.851   9.039 -0.7469  0.0703 -0.6039
  185SLPC  H18X21352   5.696   6.819   9.051 -0.4950  0.9083 -0.5001
  185SLPC  H18Y21353   5.516   6.797   9.101 -1.6462 -2.6573 -3.7554
  185SLPC  H18Z21354   5.594   6.961   9.056  0.3401 -0.3165  2.0067
  186SLPC     N21355   1.917   4.298   6.164 -0.4200  0.2846 -0.1190
  186SLPC   C1321356   1.887   4.148   6.174  0.3207  0.2706  0.9384
  186SLPC  H13A21357   1.927   4.111   6.267  1.8651 -0.8596 -0.1266
  186SLPC  H13B21358   1.781   4.130   6.183 -0.1800  3.2967  2.4515
  186SLPC  H13C21359   1.935   4.093   6.095  0.0673 -0.6566  1.4140
  186SLPC   C1421360   1.896   4.355   6.027 -0.5787 -0.0603 -0.0366
  186SLPC  H14A21361   1.945   4.452   6.032  1.2690 -0.9838  0.5407
  186SLPC  H14B21362   1.946   4.296   5.952  2.7164  2.5354 -0.1314
  186SLPC  H14C21363   1.793   4.352   5.994 -0.5744 -0.1452 -0.0404
  186SLPC   C1521364   2.059   4.321   6.198 -0.1407 -0.2350  0.2795
  186SLPC  H15A21365   2.129   4.274   6.131  0.1686  0.2933  0.2265
  186SLPC  H15B21366   2.069   4.428   6.205 -0.3486 -0.2736  1.3630
  186SLPC  H15C21367   2.075   4.282   6.298  0.3265  0.6153  0.5415
  186SLPC   C1221368   1.843   4.371   6.273 -0.6391  0.4250  0.1463
  186SLPC  H12A21369   1.879   4.472   6.287 -0.3653  0.5191 -1.1141
  186SLPC  H12B21370   1.877   4.311   6.356  1.7029 -1.0056 -1.7464
  186SLPC   C1121371   1.692   4.374   6.278 -0.2430 -0.0207 -0.0117
  186SLPC  H11A21372   1.649   4.393   6.379 -1.5572 -2.1098 -0.1149
  186SLPC  H11B21373   1.649   4.273   6.260  1.5623 -0.4205 -2.5819
  186SLPC     P21374   1.612   4.614   6.215 -0.0233 -0.0912 -0.3063
  186SLPC   O1321375   1.733   4.663   6.279 -0.5126  0.2385 -0.6623
  186SLPC   O1421376   1.574   4.677   6.088  0.4294 -0.7000 -0.3273
  186SLPC   O1221377   1.636   4.459   6.177 -0.5021 -0.0907  0.2436
  186SLPC   O1121378   1.497   4.628   6.325  0.3322  0.0030 -0.2657
  186SLPC    C121379   1.372   4.577   6.312  0.3511 -1.4731  0.0975
  186SLPC    HA21380   1.309   4.650   6.257  1.7761 -1.1791 -1.2095
  186SLPC    HB21381   1.360   4.480   6.259 -2.3583 -0.5959 -1.0864
  186SLPC    C221382   1.314   4.560   6.452 -0.7477 -0.5157 -0.0971
  186SLPC    HS21383   1.321   4.661   6.498 -3.1487 -0.4018  0.1419
  186SLPC   O2121384   1.382   4.459   6.521 -0.4371  0.0439  0.7130
  186SLPC   C2121385   1.390   4.477   6.656 -0.3952  0.3730 -0.0127
  186SLPC   O2221386   1.382   4.584   6.717 -0.4476  0.0004  0.3006
  186SLPC   C2221387   1.429   4.343   6.723 -0.4223  0.4093 -0.7882
  186SLPC   H2R21388   1.368   4.256   6.691 -0.7668 -0.3927  1.8286
  186SLPC   H2S21389   1.529   4.306   6.692 -0.4293 -0.4512  0.1887
  186SLPC    C321390   1.169   4.516   6.442  0.3030 -0.8266 -0.1455
  186SLPC    HX21391   1.163   4.418   6.390 -0.9177 -0.6663 -0.3242
  186SLPC    HY21392   1.107   4.585   6.381  0.6022 -1.9317 -1.7613
  186SLPC   O3121393   1.112   4.515   6.574  0.1446  0.3826 -0.0831
  186SLPC   C3121394   1.049   4.623   6.625  0.2583 -0.1183 -0.0738
  186SLPC   O3221395   1.054   4.735   6.575  0.0216 -0.0799 -0.4227
  186SLPC   C3221396   0.996   4.589   6.768  0.4956  0.4642  0.1494
  186SLPC   H2X21397   1.082   4.562   6.833  1.7414 -0.0244 -1.6252
  186SLPC   H2Y21398   0.934   4.500   6.747  0.3598 -0.0335  2.4300
  186SLPC   C2321399   1.400   4.357   6.873 -0.3251 -0.8123 -0.7394
  186SLPC   H3R21400   1.457   4.443   6.915  2.9351 -2.4625 -1.4245
  186SLPC   H3S21401   1.434   4.265   6.926  0.8984  0.7327  1.2946
  186SLPC   C2421402   1.251   4.346   6.903 -0.0454 -0.4220 -0.3752
  186SLPC   H4R21403   1.213   4.245   6.877 -1.3589  0.0568 -0.4136
  186SLPC   H4S21404   1.196   4.420   6.839  1.3822  0.4358 -0.6522
  186SLPC   C2521405   1.207   4.346   7.053 -0.5755 -0.3051  0.3028
  186SLPC   H5R21406   1.097   4.355   7.067 -0.5096 -0.7593  1.1999
  186SLPC   H5S21407   1.251   4.442   7.088 -2.0377  0.7188 -0.5419
  186SLPC   C2621408   1.249   4.215   7.131  0.2176 -0.4705  0.7101
  186SLPC   H6R21409   1.356   4.191   7.115  0.7673  3.0733 -2.1038
  186SLPC   H6S21410   1.187   4.140   7.077  0.2694  0.0668 -0.0957
  186SLPC   C2721411   1.217   4.212   7.280  0.8006  0.1976 -0.3980
  186SLPC   H7R21412   1.191   4.113   7.323  0.8083  0.2030 -0.3810
  186SLPC   H7S21413   1.122   4.265   7.303  1.6024  2.8691 -2.7382
  186SLPC   C2821414   1.329   4.250   7.369 -1.0804 -0.0638  0.1291
  186SLPC   H8R21415   1.421   4.195   7.336  0.4984  2.9409 -0.8588
  186SLPC   H8S21416   1.313   4.195   7.463  0.5938  0.7657  0.9475
  186SLPC   C2921417   1.353   4.396   7.418  0.1563 -0.0923  0.3913
  186SLPC   H9R21418   1.319   4.474   7.349  0.1933  1.9136  2.5085
  186SLPC  C21021419   1.390   4.435   7.543  0.4670 -0.2091 -0.2651
  186SLPC  H10R21420   1.396   4.544   7.555 -1.1694 -0.0232 -0.8592
  186SLPC  C21121421   1.406   4.349   7.666 -0.1699 -0.1951  0.3117
  186SLPC  H11R21422   1.464   4.408   7.740  0.0950 -2.5085  2.0791
  186SLPC  H11S21423   1.466   4.257   7.647  0.0162 -0.3842  1.6562
  186SLPC  C21221424   1.276   4.312   7.737 -0.4332 -0.2308  0.1754
  186SLPC  H12R21425   1.196   4.258   7.684 -2.3741  2.1685  0.4308
  186SLPC  C21321426   1.226   4.355   7.854 -0.4551 -0.1590 -0.6447
  186SLPC  H13R21427   1.124   4.327   7.886 -2.0275  2.8496 -2.5453
  186SLPC  C21421428   1.288   4.458   7.948  0.1128  0.0046  0.6124
  186SLPC  H14R21429   1.216   4.498   8.022  1.3239 -0.6539  2.2173
  186SLPC  H14S21430   1.338   4.541   7.894  2.3331 -0.8130  1.2790
  186SLPC  C21521431   1.406   4.396   8.017 -0.9530 -0.1370  0.3945
  186SLPC  H15R21432   1.480   4.364   7.941 -0.8772  2.4705 -0.7051
  186SLPC  H15S21433   1.376   4.307   8.077 -0.1398 -0.2503  0.6429
  186SLPC  C21621434   1.473   4.496   8.111 -0.1626  0.3579  0.7836
  186SLPC  H16R21435   1.394   4.558   8.158  0.0643 -1.1603  3.3230
  186SLPC  H16S21436   1.534   4.567   8.051 -0.1052  0.3548  0.8382
  186SLPC  C21721437   1.561   4.440   8.216 -0.1367 -0.3847  0.4802
  186SLPC  H17R21438   1.519   4.354   8.272  1.8943  0.3402  3.3386
  186SLPC  H17S21439   1.588   4.519   8.289 -0.0577  0.9367 -0.9174
  186SLPC  C21821440   1.706   4.408   8.170  0.4302  0.3704  0.3751
  186SLPC  H18R21441   1.762   4.380   8.261 -0.1877 -0.8218  0.4151
  186SLPC  H18S21442   1.753   4.485   8.106  0.1523  0.5761  0.4169
  186SLPC  H18T21443   1.702   4.311   8.114 -0.6974  0.3586  0.4388
  186SLPC   C3321444   0.905   4.693   6.835 -0.3897  0.6143  0.2446
  186SLPC   H3X21445   0.808   4.694   6.781 -0.5864 -1.3023  0.5023
  186SLPC   H3Y21446   0.968   4.785   6.833 -0.7306  0.8763  0.9296
  186SLPC   C3421447   0.867   4.665   6.983 -0.1095  0.1922 -0.0027
  186SLPC   H4X21448   0.798   4.578   6.991 -1.5351  1.1462 -1.3866
  186SLPC   H4Y21449   0.802   4.749   7.014 -0.4926  0.8967 -2.5209
  186SLPC   C3521450   0.987   4.659   7.080 -0.3248  0.3774  0.2236
  186SLPC   H5X21451   1.040   4.756   7.079  1.8745 -0.6726  2.7873
  186SLPC   H5Y21452   1.062   4.585   7.046 -0.8254 -0.6843  1.3174
  186SLPC   C3621453   0.938   4.615   7.222 -0.5611 -0.5592 -1.0390
  186SLPC   H6X21454   0.904   4.510   7.227 -1.6331 -0.1684  3.2586
  186SLPC   H6Y21455   0.843   4.671   7.233 -0.4966 -1.0570  4.1576
  186SLPC   C3721456   1.037   4.649   7.334 -0.0601 -0.0154 -0.3226
  186SLPC   H7X21457   1.061   4.757   7.320 -0.1118  0.0449  0.0517
  186SLPC   H7Y21458   1.133   4.593   7.331 -0.2525 -0.6312  2.6248
  186SLPC   C3821459   0.968   4.628   7.471 -0.5907 -0.0004  0.2322
  186SLPC   H8X21460   0.869   4.676   7.481  0.5997  2.8057 -0.4994
  186SLPC   H8Y21461   1.033   4.689   7.538  0.4180  0.2802 -0.9562
  186SLPC   C3921462   0.975   4.484   7.517 -0.0663  0.5089 -0.3292
  186SLPC   H9X21463   1.075   4.436   7.532 -0.5644 -0.8683 -1.1946
  186SLPC   H9Y21464   0.922   4.430   7.436  0.5116 -1.3468  0.4765
  186SLPC  C31021465   0.887   4.457   7.639 -0.7810 -0.3417 -0.7015
  186SLPC  H10X21466   0.902   4.350   7.665  0.4263 -0.7635 -2.8605
  186SLPC  H10Y21467   0.778   4.458   7.620 -0.9323 -0.0236  0.1400
  186SLPC  C31121468   0.910   4.555   7.752 -0.2536 -0.2006  0.7051
  186SLPC  H11X21469   0.853   4.649   7.736  0.3783  0.2590  1.0982
  186SLPC  H11Y21470   1.020   4.573   7.751 -0.2183 -0.3310 -1.0356
  186SLPC  C31221471   0.861   4.515   7.896 -1.0894 -0.0211  0.8124
  186SLPC  H12X21472   0.907   4.415   7.912  0.8044  0.8946  1.3364
  186SLPC  H12Y21473   0.754   4.507   7.924 -1.7089 -3.3910 -1.8866
  186SLPC  C31321474   0.926   4.603   8.008  0.0865  0.2443 -0.1552
  186SLPC  H13X21475   0.860   4.691   8.024 -0.0263  0.0816  0.3060
  186SLPC  H13Y21476   1.029   4.637   7.987 -0.3969  1.8940  0.0515
  186SLPC  C31421477   0.915   4.539   8.146  1.0334  0.5831  0.1338
  186SLPC  H14X21478   0.954   4.435   8.154  0.9270  0.5563  0.3090
  186SLPC  H14Y21479   0.811   4.521   8.181  1.2233 -2.5069 -0.5575
  186SLPC  C31521480   1.002   4.622   8.246  0.8007 -0.1001  0.5069
  186SLPC  H15X21481   0.984   4.731   8.236  1.8141  0.2668  2.2737
  186SLPC  H15Y21482   1.110   4.620   8.220  0.7605 -1.5574  0.3596
  186SLPC  C31621483   0.989   4.585   8.388 -0.0867 -0.0250 -0.7655
  186SLPC  H16X21484   1.011   4.479   8.412 -0.8299 -0.2768 -1.1678
  186SLPC  H16Y21485   0.884   4.608   8.419  0.0883 -0.7936  0.4681
  186SLPC  C31721486   1.070   4.672   8.488 -0.2058 -0.3585 -0.5057
  186SLPC  H17X21487   1.047   4.644   8.593  1.9340 -0.5859 -0.0426
  186SLPC  H17Y21488   1.048   4.778   8.464 -0.7770  0.2379  2.3272
  186SLPC  C31821489   1.225   4.653   8.475  0.1040 -0.2340 -0.4042
  186SLPC  H18X21490   1.262   4.549   8.482 -0.8053 -0.7192 -2.1611
  186SLPC  H18Y21491   1.285   4.728   8.530  1.4928 -1.2834 -0.4377
  186SLPC  H18Z21492   1.249   4.678   8.369 -0.1798  3.0558  0.1959
  187SLPC     N21493   3.138   5.524   6.569 -0.0246 -0.8681  0.6739
  187SLPC   C1321494   3.159   5.503   6.422  0.1818 -0.1606 -0.2332
  187SLPC  H13A21495   3.261   5.469   6.411 -0.1846 -0.7209 -2.1585
  187SLPC  H13B21496   3.097   5.422   6.386 -0.4056 -0.2289  0.8653
  187SLPC  H13C21497   3.148   5.592   6.363 -1.9677 -0.9118 -1.0300
  187SLPC   C1421498   2.997   5.530   6.612  0.2158  0.2872 -1.2262
  187SLPC  H14A21499   2.954   5.433   6.591 -0.9647  0.6385 -0.5693
  187SLPC  H14B21500   2.998   5.534   6.720 -1.1401 -1.1411 -1.1324
  187SLPC  H14C21501   2.946   5.617   6.571  2.8233  1.5303 -2.0378
  187SLPC   C1521502   3.197   5.656   6.603  0.1121 -0.6489 -0.1946
  187SLPC  H15A21503   3.165   5.681   6.703 -0.0341  1.5027 -0.7444
  187SLPC  H15B21504   3.305   5.654   6.600  0.0888 -2.4421 -1.8028
  187SLPC  H15C21505   3.158   5.733   6.539  0.6413 -0.6523 -0.5222
  187SLPC   C1221506   3.206   5.409   6.649 -0.1546 -0.4485  1.1870
  187SLPC  H12A21507   3.166   5.317   6.607  2.0632  0.1816 -2.8210
  187SLPC  H12B21508   3.177   5.416   6.752 -0.9416  1.6570  0.8581
  187SLPC   C1121509   3.358   5.391   6.633 -0.2664 -0.7360  0.1240
  187SLPC  H11A21510   3.371   5.360   6.528 -0.8225  1.4719 -0.6507
  187SLPC  H11B21511   3.389   5.304   6.695  0.2627 -0.9947 -0.5008
  187SLPC     P21512   3.587   5.500   6.688 -0.0869  0.1803  0.3828
  187SLPC   O1321513   3.655   5.423   6.582 -0.1241  0.4723  0.1540
  187SLPC   O1421514   3.628   5.644   6.695 -0.3118  0.4303 -0.2641
  187SLPC   O1221515   3.433   5.513   6.650 -0.0894  0.6988  0.0915
  187SLPC   O1121516   3.583   5.420   6.819  0.2144 -1.0247 -0.1118
  187SLPC    C121517   3.495   5.453   6.925 -0.4541 -0.0742  0.0456
  187SLPC    HA21518   3.388   5.465   6.898 -0.6141 -0.4729  0.4943
  187SLPC    HB21519   3.496   5.358   6.982  1.7192 -1.3016 -1.8907
  187SLPC    C221520   3.543   5.560   7.013  0.1965 -0.0448 -0.6481
  187SLPC    HS21521   3.510   5.647   6.952  0.1620  1.2795  1.2000
  187SLPC   O2121522   3.691   5.561   7.025  0.3205 -0.4132  0.1315
  187SLPC   C2121523   3.737   5.675   7.072 -0.3227 -0.2232  0.3148
  187SLPC   O2221524   3.674   5.776   7.088  0.0884  0.0610 -0.4849
  187SLPC   C2221525   3.892   5.655   7.077  0.1240  0.2447  0.5506
  187SLPC   H2R21526   3.903   5.552   7.118 -2.8199 -0.0226  0.8682
  187SLPC   H2S21527   3.920   5.660   6.970  0.5288  1.9474  0.7000
  187SLPC    C321528   3.475   5.557   7.148  0.4052 -0.3219 -0.2151
  187SLPC    HX21529   3.367   5.545   7.125 -0.2194  3.5539  0.0950
  187SLPC    HY21530   3.479   5.653   7.204 -3.2390  0.8301 -1.5871
  187SLPC   O3121531   3.505   5.432   7.227 -0.3326 -0.3787  0.4183
  187SLPC   C3121532   3.586   5.445   7.335 -0.2103 -0.5084  0.1207
  187SLPC   O3221533   3.657   5.544   7.358  0.1734  0.5483  0.4544
  187SLPC   C3221534   3.597   5.307   7.409  0.1671  0.0844  0.2337
  187SLPC   H2X21535   3.646   5.231   7.345  0.9149  0.6468  0.1318
  187SLPC   H2Y21536   3.490   5.282   7.427  0.6036 -0.2310  2.7602
  187SLPC   C2321537   3.984   5.746   7.163  0.1045 -0.0230 -0.2248
  187SLPC   H3R21538   3.942   5.849   7.152 -1.5537 -0.6412 -0.0317
  187SLPC   H3S21539   4.087   5.729   7.127 -0.7041  0.2027 -2.8357
  187SLPC   C2421540   3.971   5.718   7.314 -0.1098  0.2979 -0.4385
  187SLPC   H4R21541   3.971   5.607   7.325 -0.9610  0.4140  0.9324
  187SLPC   H4S21542   3.864   5.743   7.333 -0.1193 -0.6629  0.9248
  187SLPC   C2521543   4.058   5.791   7.415 -0.0619 -0.2505 -0.3134
  187SLPC   H5R21544   4.046   5.900   7.397  1.7198  0.5859  2.8285
  187SLPC   H5S21545   4.167   5.781   7.392 -0.0804  1.6284 -1.3719
  187SLPC   C2621546   4.020   5.756   7.554  0.3342  0.3169 -0.5426
  187SLPC   H6R21547   4.045   5.650   7.571 -0.5292  0.3485  1.2474
  187SLPC   H6S21548   3.909   5.752   7.560  0.4028  0.2533  1.3134
  187SLPC   C2721549   4.085   5.859   7.650  0.3775  0.3465  0.0730
  187SLPC   H7R21550   4.059   5.958   7.609 -0.9352 -0.0842 -0.1586
  187SLPC   H7S21551   4.195   5.845   7.638 -0.1844 -2.5095 -3.4315
  187SLPC   C2821552   4.046   5.826   7.795 -0.6597  0.4556  0.3997
  187SLPC   H8R21553   3.942   5.786   7.790 -0.6905  0.6030 -0.1451
  187SLPC   H8S21554   4.039   5.917   7.858 -1.1564  0.7957 -0.1315
  187SLPC   C2921555   4.125   5.713   7.860 -0.6484 -0.5558  1.1037
  187SLPC   H9R21556   4.128   5.617   7.805  1.4646 -0.2612  0.6523
  187SLPC  C21021557   4.199   5.727   7.971  0.1284 -0.1790  0.9054
  187SLPC  H10R21558   4.259   5.639   8.000 -0.3100 -0.7986 -0.0287
  187SLPC  C21121559   4.214   5.846   8.059  0.8494 -0.2710 -0.3625
  187SLPC  H11R21560   4.148   5.829   8.147  0.3719  1.3364 -0.3623
  187SLPC  H11S21561   4.182   5.947   8.024  0.4672  0.4635  1.9660
  187SLPC  C21221562   4.357   5.864   8.109 -0.5453  0.1242 -0.6170
  187SLPC  H12R21563   4.433   5.874   8.030  0.8052  1.6574  0.8090
  187SLPC  C21321564   4.405   5.846   8.236 -0.0785 -0.0694  0.3191
  187SLPC  H13R21565   4.513   5.848   8.258  0.3986 -1.3882 -1.6009
  187SLPC  C21421566   4.330   5.823   8.369  0.1169 -0.3741 -0.2121
  187SLPC  H14R21567   4.384   5.741   8.421  1.0028  0.6329  0.4873
  187SLPC  H14S21568   4.223   5.793   8.365 -0.1753  0.6720 -0.6200
  187SLPC  C21521569   4.328   5.948   8.457 -0.2202  0.2517  0.0064
  187SLPC  H15R21570   4.258   6.023   8.415 -1.0836  0.6323  1.9712
  187SLPC  H15S21571   4.431   5.988   8.463  0.0866 -0.6149  0.9489
  187SLPC  C21621572   4.277   5.912   8.601 -0.5033 -0.4267 -0.3223
  187SLPC  H16R21573   4.301   5.808   8.630  0.9984 -0.0628 -0.1960
  187SLPC  H16S21574   4.166   5.925   8.600 -0.3627  0.9299 -0.0724
  187SLPC  C21721575   4.323   6.011   8.708 -0.2258 -0.5151 -0.3432
  187SLPC  H17R21576   4.289   6.111   8.673 -1.7375 -0.7543  0.3998
  187SLPC  H17S21577   4.434   6.019   8.704 -0.2479 -0.5019 -1.1640
  187SLPC  C21821578   4.274   5.996   8.857 -0.0485  0.8252 -0.3273
  187SLPC  H18R21579   4.336   6.072   8.908 -0.8128  1.9053 -0.9571
  187SLPC  H18S21580   4.300   5.892   8.886  2.3767  1.7063  0.8581
  187SLPC  H18T21581   4.167   6.028   8.861 -0.6892 -1.3057  1.2804
  187SLPC   C3321582   3.666   5.309   7.548 -0.4361  0.8348 -0.3158
  187SLPC   H3X21583   3.767   5.355   7.547  1.2325 -2.4931  1.3576
  187SLPC   H3Y21584   3.682   5.201   7.569  0.1277  0.9737 -0.0223
  187SLPC   C3421585   3.587   5.369   7.659  0.2730 -0.4651 -0.3460
  187SLPC   H4X21586   3.489   5.316   7.666 -1.0146  1.8937  0.7898
  187SLPC   H4Y21587   3.558   5.475   7.642  2.1455  0.0379 -0.5991
  187SLPC   C3521588   3.649   5.368   7.794  0.2417 -0.3449 -0.2292
  187SLPC   H5X21589   3.676   5.266   7.828 -0.0177 -0.6515 -0.9151
  187SLPC   H5Y21590   3.578   5.403   7.872  1.8025 -1.9032  2.0105
  187SLPC   C3621591   3.785   5.452   7.813  0.6781 -0.2680  0.3262
  187SLPC   H6X21592   3.770   5.549   7.760 -0.6250 -1.2919 -1.2707
  187SLPC   H6Y21593   3.864   5.398   7.757  0.8485  0.3649 -0.0534
  187SLPC   C3721594   3.832   5.462   7.953 -0.4925  0.2026 -0.6585
  187SLPC   H7X21595   3.826   5.370   8.014 -1.4810  2.4991  3.0142
  187SLPC   H7Y21596   3.938   5.495   7.944 -1.1227  2.2761 -0.9700
  187SLPC   C3821597   3.748   5.562   8.028  0.0486  0.2811  0.0008
  187SLPC   H8X21598   3.647   5.517   8.043  0.3271 -0.6206 -0.7210
  187SLPC   H8Y21599   3.728   5.652   7.967 -3.3017 -0.9966 -0.9933
  187SLPC   C3921600   3.810   5.608   8.161 -0.1643  0.1474 -0.5970
  187SLPC   H9X21601   3.921   5.608   8.158 -0.1470 -1.3666 -0.5776
  187SLPC   H9Y21602   3.780   5.528   8.232  4.6305 -1.3229  0.1031
  187SLPC  C31021603   3.765   5.746   8.209  0.4543  0.2473  0.4331
  187SLPC  H10X21604   3.655   5.760   8.208  0.5780  1.2928 -0.6187
  187SLPC  H10Y21605   3.806   5.815   8.132  1.8065 -0.2628  0.6594
  187SLPC  C31121606   3.817   5.798   8.340 -0.3486  0.1433  0.3202
  187SLPC  H11X21607   3.927   5.808   8.325 -0.6399 -1.5821 -5.5605
  187SLPC  H11Y21608   3.796   5.739   8.431 -2.0214 -2.8671 -1.8487
  187SLPC  C31221609   3.748   5.934   8.380  0.0707 -0.0954  0.5036
  187SLPC  H12X21610   3.638   5.920   8.390 -0.3638  0.6932 -2.1811
  187SLPC  H12Y21611   3.772   6.014   8.306  2.0546 -1.3220 -0.2513
  187SLPC  C31321612   3.794   5.984   8.515  0.2493 -0.3225  0.7705
  187SLPC  H13X21613   3.904   6.002   8.515 -0.0023  1.4630  2.0622
  187SLPC  H13Y21614   3.761   5.910   8.592 -0.8582 -0.9055 -0.2412
  187SLPC  C31421615   3.729   6.121   8.546 -0.5056  0.1668  0.1800
  187SLPC  H14X21616   3.619   6.116   8.533 -0.6473  2.6650 -0.0517
  187SLPC  H14Y21617   3.762   6.193   8.469 -1.2728  1.6533  1.1876
  187SLPC  C31521618   3.792   6.166   8.679  0.7204 -0.2184 -0.8385
  187SLPC  H15X21619   3.778   6.088   8.757  1.1080  1.3613  0.8892
  187SLPC  H15Y21620   3.731   6.254   8.709  0.0895 -0.4123 -1.5074
  187SLPC  C31621621   3.935   6.197   8.671 -0.0624 -0.5015 -0.1592
  187SLPC  H16X21622   3.953   6.267   8.586 -0.0875 -0.3256 -0.0196
  187SLPC  H16Y21623   3.997   6.104   8.669 -1.9421 -1.9425  2.2091
  187SLPC  C31721624   3.988   6.270   8.797  0.8130  0.4023 -0.8055
  187SLPC  H17X21625   4.098   6.259   8.798  0.7366 -0.6741  0.9346
  187SLPC  H17Y21626   3.964   6.217   8.892 -1.2708  0.3121 -1.3145
  187SLPC  C31821627   3.956   6.419   8.810 -0.0572  0.2235  0.1422
  187SLPC  H18X21628   3.847   6.434   8.805 -0.0750  0.2833  0.6429
  187SLPC  H18Y21629   4.001   6.472   8.724  2.2359 -0.9616  0.5077
  187SLPC  H18Z21630   4.009   6.455   8.901  0.9863 -0.3488 -0.2214
  188SLPC     N21631   5.547   5.999   6.225 -0.1539 -0.1043 -0.1595
  188SLPC   C1321632   5.469   5.915   6.126  0.1877  0.0966 -0.1596
  188SLPC  H13A21633   5.421   5.973   6.049 -0.0955 -1.6866 -1.3784
  188SLPC  H13B21634   5.528   5.837   6.079  0.6299  0.9095 -0.9828
  188SLPC  H13C21635   5.386   5.888   6.189 -1.7098  3.9605 -0.7143
  188SLPC   C1421636   5.464   6.112   6.278 -0.1303  0.0072 -0.7457
  188SLPC  H14A21637   5.369   6.077   6.313  0.1517  1.0674  1.3036
  188SLPC  H14B21638   5.512   6.158   6.364 -2.7080 -2.0238  1.9931
  188SLPC  H14C21639   5.451   6.185   6.200  2.1497 -1.4758 -2.6395
  188SLPC   C1521640   5.661   6.056   6.150  0.5851 -0.2133 -0.0295
  188SLPC  H15A21641   5.630   6.113   6.064  0.7939  3.7444  2.2622
  188SLPC  H15B21642   5.727   6.115   6.211  1.1617 -0.2610 -0.5931
  188SLPC  H15C21643   5.724   5.981   6.105  1.9544  1.4370 -0.9882
  188SLPC   C1221644   5.591   5.912   6.340 -0.2779 -0.7361 -0.0218
  188SLPC  H12A21645   5.635   5.976   6.415 -2.4097  0.4378  0.2992
  188SLPC  H12B21646   5.666   5.848   6.295 -0.1492  1.2920 -3.0383
  188SLPC   C1121647   5.470   5.841   6.409 -0.1128  0.6056 -0.1829
  188SLPC  H11A21648   5.388   5.916   6.412  0.9260  1.8581 -1.6202
  188SLPC  H11B21649   5.497   5.815   6.514  0.0784  0.0920 -0.3557
  188SLPC     P21650   5.513   5.601   6.350  0.4068 -0.1679 -0.5261
  188SLPC   O1321651   5.457   5.509   6.248  0.3931 -0.3645  0.4182
  188SLPC   O1421652   5.653   5.636   6.341  0.0530 -0.5109 -0.4582
  188SLPC   O1221653   5.418   5.733   6.337  0.2238  0.0490 -0.4282
  188SLPC   O1121654   5.479   5.533   6.492 -0.3266  0.0300 -0.1732
  188SLPC    C121655   5.345   5.489   6.528  0.1231 -0.9211  0.1576
  188SLPC    HA21656   5.277   5.513   6.443  0.9108 -1.5002 -0.6545
  188SLPC    HB21657   5.358   5.380   6.540 -0.2287 -1.0435 -0.4934
  188SLPC    C221658   5.302   5.564   6.663  0.3077  0.4971 -0.1789
  188SLPC    HS21659   5.331   5.668   6.636 -0.1657  0.8120  0.4825
  188SLPC   O2121660   5.381   5.518   6.771 -0.2841 -0.3424 -0.0942
  188SLPC   C2121661   5.412   5.615   6.859 -0.3735 -0.2232 -0.6737
  188SLPC   O2221662   5.392   5.735   6.844 -0.1239 -0.3258  0.1435
  188SLPC   C2221663   5.470   5.554   6.988 -1.0976 -0.1270 -0.0269
  188SLPC   H2R21664   5.450   5.445   6.982 -0.7488 -0.2178  0.3540
  188SLPC   H2S21665   5.577   5.583   6.982 -1.2825  0.2154 -2.1670
  188SLPC    C321666   5.148   5.552   6.682 -0.1966 -0.8843 -0.2577
  188SLPC    HX21667   5.121   5.445   6.675 -0.3109 -0.9522  0.9498
  188SLPC    HY21668   5.096   5.605   6.600 -0.3049  1.8523  1.4443
  188SLPC   O3121669   5.095   5.604   6.810 -0.6661 -0.1356  0.7781
  188SLPC   C3121670   5.062   5.735   6.810  0.4050 -0.1939  0.7577
  188SLPC   O3221671   5.030   5.801   6.711 -0.3572 -0.1687  0.2644
  188SLPC   C3221672   5.084   5.783   6.952 -0.0274 -0.1763  0.8068
  188SLPC   H2X21673   5.188   5.822   6.957 -0.2537  0.3237  2.3987
  188SLPC   H2Y21674   5.080   5.692   7.015  1.6425  0.1642  1.4776
  188SLPC   C2321675   5.410   5.627   7.118  0.6060  0.1967  0.3485
  188SLPC   H3R21676   5.300   5.616   7.119  0.3733  2.0863 -1.0369
  188SLPC   H3S21677   5.427   5.736   7.104  0.3577  0.0852 -0.9112
  188SLPC   C2421678   5.477   5.589   7.248  0.1821 -0.2409  0.4716
  188SLPC   H4R21679   5.419   5.642   7.327 -1.4040 -0.7475 -0.2981
  188SLPC   H4S21680   5.585   5.611   7.251  0.8293 -3.0541  0.4318
  188SLPC   C2521681   5.470   5.439   7.265  0.1597 -0.0529 -0.0186
  188SLPC   H5R21682   5.511   5.390   7.174 -0.1570  0.5620 -0.5040
  188SLPC   H5S21683   5.364   5.418   7.292 -0.0403 -1.6815 -1.8246
  188SLPC   C2621684   5.545   5.378   7.395 -0.1648 -0.2509  0.4657
  188SLPC   H6R21685   5.512   5.449   7.474  2.1570 -0.4761  1.7285
  188SLPC   H6S21686   5.654   5.398   7.390 -0.2042 -0.3896 -1.5550
  188SLPC   C2721687   5.533   5.232   7.439  0.6982 -0.2054 -0.7498
  188SLPC   H7R21688   5.568   5.165   7.358 -4.2285 -1.0579 -2.5297
  188SLPC   H7S21689   5.422   5.217   7.443  0.3593  2.0501 -0.5009
  188SLPC   C2821690   5.579   5.214   7.586 -0.6466  0.5587  0.4247
  188SLPC   H8R21691   5.684   5.249   7.587 -0.4895  0.1519 -0.7494
  188SLPC   H8S21692   5.576   5.104   7.596  0.6013  0.3711 -1.0074
  188SLPC   C2921693   5.493   5.279   7.688 -0.0622 -0.6771 -0.1681
  188SLPC   H9R21694   5.385   5.256   7.691 -0.5913  1.3765 -1.3023
  188SLPC  C21021695   5.527   5.366   7.789  1.0591 -0.6216 -0.3647
  188SLPC  H10R21696   5.441   5.403   7.847  0.2802 -2.5372 -0.2319
  188SLPC  C21121697   5.660   5.422   7.821  0.2090  0.4694  0.2217
  188SLPC  H11R21698   5.660   5.505   7.895  0.0763  0.7679 -0.1073
  188SLPC  H11S21699   5.692   5.481   7.732 -0.8479  0.3315 -0.2672
  188SLPC  C21221700   5.766   5.333   7.868 -0.5074 -0.6017 -0.0529
  188SLPC  H12R21701   5.827   5.284   7.792 -0.2947  0.8095 -0.8218
  188SLPC  C21321702   5.803   5.328   8.003  0.6583  0.1041  0.4492
  188SLPC  H13R21703   5.883   5.256   8.024  0.6626 -0.0914 -0.2001
  188SLPC  C21421704   5.742   5.385   8.134 -0.1915  0.5863  1.4810
  188SLPC  H14R21705   5.754   5.305   8.210 -0.2423 -1.9251 -0.9612
  188SLPC  H14S21706   5.635   5.393   8.107  0.6636 -0.5184 -3.0550
  188SLPC  C21521707   5.797   5.517   8.185  0.5603  0.4576 -0.5065
  188SLPC  H15R21708   5.715   5.590   8.169  0.8284  1.0710  0.8256
  188SLPC  H15S21709   5.878   5.546   8.114  0.7561  0.6563 -0.2058
  188SLPC  C21621710   5.840   5.504   8.336 -0.5234 -0.3334  0.2816
  188SLPC  H16R21711   5.919   5.427   8.352 -0.7957 -0.6367  0.1742
  188SLPC  H16S21712   5.755   5.475   8.401 -0.6912 -0.6486 -0.0748
  188SLPC  C21721713   5.905   5.634   8.383  0.1646  0.5062  0.4613
  188SLPC  H17R21714   5.980   5.657   8.303 -0.3331 -0.2526 -0.2383
  188SLPC  H17S21715   5.955   5.599   8.476 -1.8665 -0.5992  1.1898
  188SLPC  C21821716   5.814   5.759   8.405 -0.1789 -0.3437 -0.3150
  188SLPC  H18R21717   5.749   5.770   8.315 -1.0616  0.7682  0.4284
  188SLPC  H18S21718   5.862   5.854   8.436  1.1931 -0.3400 -2.2348
  188SLPC  H18T21719   5.732   5.722   8.470  0.6612 -0.6160  0.6161
  188SLPC   C3321720   4.970   5.870   7.003  0.4669 -0.0461  0.1563
  188SLPC   H3X21721   4.867   5.833   6.987  0.7309  0.1339 -2.5285
  188SLPC   H3Y21722   4.979   5.964   6.945 -0.8340 -0.9544 -1.6046
  188SLPC   C3421723   4.989   5.893   7.154  0.3810 -0.3126 -0.5655
  188SLPC   H4X21724   4.924   5.976   7.191  0.9164 -1.1556  2.6006
  188SLPC   H4Y21725   5.096   5.909   7.179  0.2646 -0.3244 -0.0540
  188SLPC   C3521726   4.944   5.772   7.237 -0.0273 -0.2773 -0.2412
  188SLPC   H5X21727   4.991   5.679   7.197  0.8384  0.0731 -0.0668
  188SLPC   H5Y21728   4.837   5.753   7.214  0.1708  0.1764 -1.5965
  188SLPC   C3621729   4.968   5.787   7.386 -0.1715  0.1860 -0.0550
  188SLPC   H6X21730   4.894   5.722   7.437 -1.5802 -0.5065 -2.7838
  188SLPC   H6Y21731   4.947   5.887   7.430  2.3027  1.0831 -0.7415
  188SLPC   C3721732   5.115   5.756   7.426  0.6130  0.2983 -0.1328
  188SLPC   H7X21733   5.188   5.837   7.404  1.1369  0.0969  0.8421
  188SLPC   H7Y21734   5.147   5.667   7.367  1.7228 -0.0140  0.8956
  188SLPC   C3821735   5.121   5.714   7.573 -0.8782 -0.2358  0.1475
  188SLPC   H8X21736   5.204   5.641   7.583 -1.2456 -0.6753  0.0773
  188SLPC   H8Y21737   5.023   5.665   7.594 -1.6615  1.1687 -0.1332
  188SLPC   C3921738   5.147   5.823   7.670  0.4013  0.3699  0.6612
  188SLPC   H9X21739   5.055   5.884   7.679 -0.7256 -0.5924 -2.7348
  188SLPC   H9Y21740   5.224   5.890   7.628  2.6141 -1.6750  1.2388
  188SLPC  C31021741   5.191   5.779   7.807 -0.4478  0.2744  0.4510
  188SLPC  H10X21742   5.291   5.734   7.788 -1.2466 -1.8375  0.9545
  188SLPC  H10Y21743   5.127   5.702   7.855 -0.6001 -1.6243 -2.5767
  188SLPC  C31121744   5.220   5.893   7.903  0.2413 -1.0377 -0.1775
  188SLPC  H11X21745   5.124   5.929   7.946 -0.1434 -0.6055 -1.3650
  188SLPC  H11Y21746   5.267   5.981   7.853 -0.5070  0.5995  1.8582
  188SLPC  C31221747   5.325   5.861   8.012  0.4666  0.2375  1.0685
  188SLPC  H12X21748   5.416   5.841   7.951 -0.7757  0.4862 -0.9524
  188SLPC  H12Y21749   5.293   5.767   8.061  1.1196  0.3050  1.6352
  188SLPC  C31321750   5.352   5.983   8.098 -0.5081  1.1212  0.1097
  188SLPC  H13X21751   5.257   6.002   8.153 -1.0325 -2.2599  0.5696
  188SLPC  H13Y21752   5.368   6.070   8.030 -0.8892  0.5340 -0.7491
  188SLPC  C31421753   5.458   5.961   8.207  0.2855  0.4511 -0.1747
  188SLPC  H14X21754   5.551   5.927   8.157  1.1271  1.1447  0.8990
  188SLPC  H14Y21755   5.434   5.878   8.276 -0.5334  0.6212 -0.2426
  188SLPC  C31521756   5.473   6.088   8.284  0.0227 -0.2299 -0.0568
  188SLPC  H15X21757   5.375   6.123   8.323  0.0534  0.2159 -0.3705
  188SLPC  H15Y21758   5.514   6.162   8.212  1.1446 -1.4876 -0.7619
  188SLPC  C31621759   5.562   6.068   8.405 -0.4134 -0.1742 -1.2660
  188SLPC  H16X21760   5.609   6.162   8.441  1.3433 -1.7283  0.8061
  188SLPC  H16Y21761   5.643   5.999   8.375 -0.6877 -0.6493 -0.9345
  188SLPC  C31721762   5.503   6.000   8.532 -0.5586  0.4087  0.5708
  188SLPC  H17X21763   5.462   5.899   8.508 -0.3831 -0.2577  2.8810
  188SLPC  H17Y21764   5.414   6.053   8.572 -1.2881 -3.0710  4.1888
  188SLPC  C31821765   5.603   5.984   8.646 -0.4664 -0.2321 -0.0634
  188SLPC  H18X21766   5.560   5.943   8.739  0.1392 -1.4314 -0.2999
  188SLPC  H18Y21767   5.626   6.092   8.662  0.4471 -0.2158 -1.2920
  188SLPC  H18Z21768   5.695   5.928   8.621 -0.4229 -1.7767  3.1422
  189SLPC     N21769   0.795   1.905   6.138 -0.3265 -0.1852  0.2777
  189SLPC   C1321770   0.690   1.970   6.054  0.4454 -0.6132  0.1647
  189SLPC  H13A21771   0.630   1.889   6.016  0.3092  0.1271 -1.2620
  189SLPC  H13B21772   0.631   2.045   6.106  2.7635  1.9393 -0.6116
  189SLPC  H13C21773   0.736   2.011   5.966 -1.2198 -1.3236 -1.0874
  189SLPC   C1421774   0.905   2.003   6.153 -0.0824 -0.8221  0.0191
  189SLPC  H14A21775   0.987   1.958   6.208  0.3257 -0.6737 -0.4551
  189SLPC  H14B21776   0.941   2.041   6.059  0.3015 -0.2930  0.3712
  189SLPC  H14C21777   0.869   2.084   6.215 -0.3598 -0.4071 -0.6721
  189SLPC   C1521778   0.840   1.790   6.053 -0.4839  0.6778  0.4443
  189SLPC  H15A21779   0.768   1.722   6.009 -0.9052  1.0921  0.4886
  189SLPC  H15B21780   0.901   1.808   5.966 -0.7238 -0.6228 -0.0223
  189SLPC  H15C21781   0.905   1.733   6.118  0.4229  0.3809 -0.6945
  189SLPC   C1221782   0.745   1.851   6.272 -0.3913 -0.1978 -0.4001
  189SLPC  H12A21783   0.680   1.769   6.244  0.0518 -0.5449 -0.4180
  189SLPC  H12B21784   0.681   1.923   6.322 -0.4165  0.0265 -0.7500
  189SLPC   C1121785   0.862   1.811   6.372  0.4407  0.0929 -0.4091
  189SLPC  H11A21786   0.817   1.798   6.472 -0.0208  1.7139 -0.3828
  189SLPC  H11B21787   0.927   1.900   6.386  0.9262  0.3603 -3.5034
  189SLPC     P21788   0.867   1.567   6.332 -0.2959  0.2703  0.0449
  189SLPC   O1321789   0.730   1.566   6.273  0.2128  0.2336 -0.3504
  189SLPC   O1421790   0.956   1.461   6.276  0.4217  0.3170 -0.0252
  189SLPC   O1221791   0.943   1.706   6.317  0.1527  0.2963 -0.0541
  189SLPC   O1121792   0.848   1.544   6.484  0.2468 -0.4728 -0.2242
  189SLPC    C121793   0.961   1.532   6.571  0.3645 -0.1425  0.2231
  189SLPC    HA21794   1.032   1.458   6.529  0.3453  0.7188 -1.4167
  189SLPC    HB21795   1.015   1.629   6.564 -2.4724  1.4403 -3.3102
  189SLPC    C221796   0.913   1.487   6.714  0.2354 -0.0058 -0.3768
  189SLPC    HS21797   0.846   1.401   6.695 -1.1646  0.9760 -0.0872
  189SLPC   O2121798   0.837   1.598   6.776 -0.1676 -0.3900 -0.8068
  189SLPC   C2121799   0.751   1.561   6.871  0.2727 -0.1803 -0.7845
  189SLPC   O2221800   0.712   1.446   6.893  0.0705  0.2278  0.1383
  189SLPC   C2221801   0.689   1.693   6.920  0.3261 -0.0290  0.2253
  189SLPC   H2R21802   0.773   1.751   6.966  0.3327 -1.6174  2.3592
  189SLPC   H2S21803   0.659   1.749   6.829  0.7562 -0.2986 -0.0880
  189SLPC    C321804   1.041   1.446   6.792 -0.0809  0.2167  0.1195
  189SLPC    HX21805   1.111   1.530   6.775 -0.1148 -0.1405 -1.9941
  189SLPC    HY21806   1.088   1.364   6.733 -0.5327 -0.4577  0.6830
  189SLPC   O3121807   1.024   1.409   6.932 -0.1538 -0.1903 -0.3609
  189SLPC   C3121808   0.972   1.284   6.950  0.4416 -0.1691  0.1052
  189SLPC   O3221809   0.940   1.211   6.863 -0.2501  0.3086 -1.1019
  189SLPC   C3221810   0.963   1.265   7.101 -0.4512  0.3488 -0.4612
  189SLPC   H2X21811   1.021   1.342   7.158  0.7256 -1.3930  0.8116
  189SLPC   H2Y21812   1.027   1.176   7.119  0.0045  0.9204  0.9009
  189SLPC   C2321813   0.577   1.683   7.032  0.1247 -0.5468  0.7223
  189SLPC   H3R21814   0.615   1.621   7.116  1.1940 -1.1551 -0.1682
  189SLPC   H3S21815   0.494   1.639   6.973  1.1484  2.8451 -3.8445
  189SLPC   C2421816   0.546   1.823   7.081 -0.6452 -0.1689 -0.5329
  189SLPC   H4R21817   0.508   1.892   7.003 -0.3439  1.5661  0.7812
  189SLPC   H4S21818   0.640   1.865   7.124 -0.3143 -1.2928 -0.1362
  189SLPC   C2521819   0.448   1.837   7.192  0.4049 -0.6743  0.1531
  189SLPC   H5R21820   0.355   1.811   7.136  0.7204 -1.7881  0.1187
  189SLPC   H5S21821   0.429   1.937   7.235  0.5845 -1.0538  1.1342
  189SLPC   C2621822   0.479   1.741   7.310 -0.5669  0.4455  0.2660
  189SLPC   H6R21823   0.472   1.639   7.267 -1.4458 -0.6199  2.7546
  189SLPC   H6S21824   0.392   1.745   7.378 -0.4717  0.3729  0.3914
  189SLPC   C2721825   0.618   1.773   7.370  0.0619 -0.1947 -0.3061
  189SLPC   H7R21826   0.623   1.883   7.388 -0.0530 -0.3025  0.4511
  189SLPC   H7S21827   0.699   1.756   7.297  0.9192 -1.7036  0.9258
  189SLPC   C2821828   0.652   1.689   7.498 -0.6961  0.6662 -0.2826
  189SLPC   H8R21829   0.671   1.585   7.465  0.8959  0.4434  1.1846
  189SLPC   H8S21830   0.567   1.685   7.569  1.1269  1.0307  2.0505
  189SLPC   C2921831   0.775   1.734   7.568 -0.0539 -0.0888 -0.5728
  189SLPC   H9R21832   0.875   1.718   7.524  0.8565 -0.3128  1.4691
  189SLPC  C21021833   0.777   1.784   7.690  0.1815 -0.1496 -1.3188
  189SLPC  H10R21834   0.874   1.819   7.729 -0.4116  2.5641 -2.0739
  189SLPC  C21121835   0.664   1.809   7.791  0.9886  0.3182  0.4096
  189SLPC  H11R21836   0.568   1.815   7.736  0.1457  2.3996  1.9894
  189SLPC  H11S21837   0.690   1.912   7.824 -1.8461  1.1833  0.2085
  189SLPC  C21221838   0.656   1.715   7.913  0.3571  0.0535 -0.2618
  189SLPC  H12R21839   0.654   1.606   7.901 -1.2195 -0.4207  3.1619
  189SLPC  C21321840   0.673   1.748   8.043 -0.1745  0.5653  0.3994
  189SLPC  H13R21841   0.643   1.675   8.119 -2.0506 -0.5929 -1.3489
  189SLPC  C21421842   0.708   1.881   8.100  0.3437  0.2487 -0.1803
  189SLPC  H14R21843   0.694   1.968   8.033  1.6108  0.1625 -0.5851
  189SLPC  H14S21844   0.814   1.870   8.131  0.7503  1.5743 -1.0219
  189SLPC  C21521845   0.631   1.904   8.237 -0.1599 -0.6216  0.8194
  189SLPC  H15R21846   0.648   1.813   8.299  0.1476 -1.1096  0.0392
  189SLPC  H15S21847   0.526   1.911   8.199  0.0420  0.4718  0.4404
  189SLPC  C21621848   0.690   2.030   8.293 -0.1244 -0.1425  0.5108
  189SLPC  H16R21849   0.620   2.063   8.372  0.9572  0.4958  1.2099
  189SLPC  H16S21850   0.678   2.112   8.219 -1.0658  0.1701  0.9867
  189SLPC  C21721851   0.830   2.030   8.355 -0.0241  0.8801 -0.3211
  189SLPC  H17R21852   0.913   2.023   8.281  1.0332 -3.0840  0.9885
  189SLPC  H17S21853   0.831   1.940   8.420 -0.9339  2.4554  2.0083
  189SLPC  C21821854   0.855   2.158   8.437 -0.2764 -0.7040  0.5199
  189SLPC  H18R21855   0.887   2.234   8.363  0.2135  0.7641  2.1793
  189SLPC  H18S21856   0.951   2.143   8.491 -0.4888 -0.4370  0.9735
  189SLPC  H18T21857   0.765   2.187   8.495 -1.0590 -0.1379 -0.9257
  189SLPC   C3321858   0.817   1.247   7.151 -0.0178 -0.2580 -0.4567
  189SLPC   H3X21859   0.771   1.174   7.081  0.6026 -1.2565  0.1485
  189SLPC   H3Y21860   0.763   1.343   7.140 -0.4537 -0.5477 -0.8687
  189SLPC   C3421861   0.817   1.217   7.297  0.8056  1.0527 -0.1545
  189SLPC   H4X21862   0.876   1.127   7.324  1.1336  1.5210  0.7355
  189SLPC   H4Y21863   0.713   1.205   7.335  1.1571 -0.0823  0.4813
  189SLPC   C3521864   0.877   1.329   7.385 -0.1352 -1.2992  0.9663
  189SLPC   H5X21865   0.814   1.416   7.357  1.9004 -0.1211 -0.2181
  189SLPC   H5Y21866   0.983   1.353   7.364 -0.1833 -1.9170 -0.0196
  189SLPC   C3621867   0.838   1.299   7.528 -0.3724 -0.3678 -0.1451
  189SLPC   H6X21868   0.859   1.192   7.545 -0.4482 -0.6507 -1.7401
  189SLPC   H6Y21869   0.728   1.312   7.538 -0.5926 -1.6042 -0.9102
  189SLPC   C3721870   0.904   1.370   7.646  0.3455  0.1427  0.1453
  189SLPC   H7X21871   0.897   1.480   7.632 -1.2582  0.0895  0.3711
  189SLPC   H7Y21872   1.012   1.345   7.653  0.5291  0.6621 -0.6685
  189SLPC   C3821873   0.842   1.335   7.780  0.9774  0.2934  1.0143
  189SLPC   H8X21874   0.843   1.228   7.808 -1.7839  0.1054  0.6861
  189SLPC   H8Y21875   0.734   1.347   7.755  1.0631 -2.1668 -0.9105
  189SLPC   C3921876   0.905   1.418   7.887  0.5281 -0.0079  0.0837
  189SLPC   H9X21877   0.895   1.522   7.850 -0.2567 -0.4359 -0.9423
  189SLPC   H9Y21878   1.014   1.398   7.897  0.7448  1.7185  1.7897
  189SLPC  C31021879   0.840   1.386   8.019 -0.0780  0.0364 -0.4733
  189SLPC  H10X21880   0.854   1.278   8.040 -0.4888 -0.4110 -2.3461
  189SLPC  H10Y21881   0.733   1.410   8.002  0.0094  0.3052 -0.6541
  189SLPC  C31121882   0.908   1.463   8.140 -0.0406  0.6040 -0.4606
  189SLPC  H11X21883   0.923   1.572   8.132 -1.2400  0.8662  0.5489
  189SLPC  H11Y21884   1.014   1.430   8.150 -0.0930  0.3315 -0.7897
  189SLPC  C31221885   0.827   1.428   8.269 -0.7998  0.0713 -0.2591
  189SLPC  H12X21886   0.797   1.321   8.263 -1.8942  0.1581  2.2952
  189SLPC  H12Y21887   0.739   1.492   8.289 -1.7431 -1.5185  0.8848
  189SLPC  C31321888   0.916   1.443   8.394  0.2515  0.5200  0.0658
  189SLPC  H13X21889   0.970   1.347   8.407 -1.6372 -0.9944 -2.5002
  189SLPC  H13Y21890   0.855   1.442   8.487  4.4156 -3.4019  3.2575
  189SLPC  C31421891   1.002   1.574   8.407 -1.0402  0.3651 -0.4082
  189SLPC  H14X21892   0.953   1.648   8.341 -2.3525 -1.2778 -1.3619
  189SLPC  H14Y21893   1.108   1.563   8.376 -1.1055 -1.9142 -0.0314
  189SLPC  C31521894   0.979   1.638   8.547 -0.4010  0.7783 -0.3261
  189SLPC  H15X21895   1.024   1.574   8.626  1.5938  1.0790 -1.1668
  189SLPC  H15Y21896   0.870   1.644   8.569 -0.0734 -2.8114  3.5365
  189SLPC  C31621897   1.047   1.776   8.559  0.0765  0.1883 -0.1849
  189SLPC  H16X21898   1.001   1.845   8.486 -2.0093 -0.9172 -0.0125
  189SLPC  H16Y21899   1.154   1.768   8.532  0.4067  0.5363  0.9623
  189SLPC  C31721900   1.036   1.835   8.700  0.0176 -0.4502 -0.1398
  189SLPC  H17X21901   0.930   1.823   8.734 -0.0013 -0.7857 -0.3188
  189SLPC  H17Y21902   1.049   1.946   8.703 -0.9398 -0.3440  1.1322
  189SLPC  C31821903   1.139   1.779   8.804 -0.3802 -0.1005 -0.2009
  189SLPC  H18X21904   1.242   1.812   8.778 -0.1018 -0.8735 -0.0955
  189SLPC  H18Y21905   1.145   1.668   8.805  2.0115 -0.0358 -0.8007
  189SLPC  H18Z21906   1.113   1.814   8.906 -2.6308  0.5141 -0.9284
  190SLPC     N21907   1.242   6.316   6.590  0.0511  0.4522 -0.6418
  190SLPC   C1321908   1.245   6.171   6.538 -0.1586  0.2376 -0.3922
  190SLPC  H13A21909   1.159   6.149   6.477 -0.5543  0.4076  0.0991
  190SLPC  H13B21910   1.339   6.152   6.489  0.8731 -0.0217  1.5805
  190SLPC  H13C21911   1.243   6.113   6.630  3.5936  2.2438  1.2089
  190SLPC   C1421912   1.362   6.335   6.676  0.3530  0.0933  0.3495
  190SLPC  H14A21913   1.341   6.299   6.776 -2.1947  1.2689  0.3077
  190SLPC  H14B21914   1.449   6.292   6.628 -0.0112  1.0855 -1.2951
  190SLPC  H14C21915   1.385   6.439   6.697 -1.3736  0.7194 -0.6672
  190SLPC   C1521916   1.119   6.332   6.667 -0.4035 -0.7932 -0.1393
  190SLPC  H15A21917   1.030   6.294   6.618 -0.8118  1.5033 -1.3506
  190SLPC  H15B21918   1.127   6.270   6.755 -0.8213  0.9136  1.1570
  190SLPC  H15C21919   1.094   6.434   6.692 -2.3933 -0.8109 -1.7966
  190SLPC   C1221920   1.256   6.411   6.462  0.7092  0.3678 -0.1528
  190SLPC  H12A21921   1.222   6.509   6.489 -0.2065  0.4363 -1.4886
  190SLPC  H12B21922   1.185   6.385   6.385 -0.7950  0.7478  1.0475
  190SLPC   C1121923   1.398   6.423   6.393 -0.1159 -0.1752 -0.2308
  190SLPC  H11A21924   1.471   6.455   6.470  0.7612 -3.4253  0.4414
  190SLPC  H11B21925   1.382   6.503   6.318  0.6910 -0.9493 -1.2666
  190SLPC     P21926   1.574   6.234   6.342 -0.2275  0.0821 -0.4126
  190SLPC   O1321927   1.565   6.088   6.299  0.0218 -0.9773  0.7224
  190SLPC   O1421928   1.683   6.324   6.292  0.7027  0.4078  0.5798
  190SLPC   O1221929   1.436   6.301   6.316 -0.5447 -0.9934 -0.2423
  190SLPC   O1121930   1.582   6.234   6.501  0.1150 -0.5215  0.6853
  190SLPC    C121931   1.685   6.172   6.569  0.1265  0.0090  0.2139
  190SLPC    HA21932   1.663   6.065   6.590  1.2489 -0.1630  0.6197
  190SLPC    HB21933   1.772   6.159   6.500  0.7768 -1.7187  1.2855
  190SLPC    C221934   1.743   6.259   6.688  0.8574  0.7243 -0.3085
  190SLPC    HS21935   1.850   6.231   6.701  0.6074  0.0246  0.3190
  190SLPC   O2121936   1.680   6.221   6.814 -0.1067 -0.5122  0.4798
  190SLPC   C2121937   1.691   6.085   6.851 -0.1239 -0.0385 -0.0990
  190SLPC   O2221938   1.759   6.002   6.790 -0.3593  0.2366  0.7515
  190SLPC   C2221939   1.611   6.062   6.980  0.4672 -0.1879 -0.6966
  190SLPC   H2R21940   1.515   6.118   6.972 -0.7831 -1.9454  0.9179
  190SLPC   H2S21941   1.582   5.955   6.984 -0.9468  0.1022 -2.1749
  190SLPC    C321942   1.746   6.412   6.665 -0.2834 -0.1533 -0.0023
  190SLPC    HX21943   1.636   6.432   6.670 -0.3789  1.0439 -3.6551
  190SLPC    HY21944   1.806   6.416   6.572  0.7272 -0.3987  0.6256
  190SLPC   O3121945   1.823   6.474   6.771 -0.4091 -0.3790  0.3296
  190SLPC   C3121946   1.859   6.593   6.746 -0.0477 -0.5502 -0.1474
  190SLPC   O3221947   1.830   6.658   6.645 -0.8311  0.2964  0.0003
  190SLPC   C3221948   1.931   6.653   6.863  0.1211 -0.3263 -0.3404
  190SLPC   H2X21949   2.025   6.594   6.866  0.6325  0.4808 -0.2315
  190SLPC   H2Y21950   1.872   6.627   6.954  1.5678 -2.1590  0.1424
  190SLPC   C2321951   1.687   6.100   7.111  0.6526 -0.2079 -0.4861
  190SLPC   H3R21952   1.719   6.204   7.090 -1.6443  0.8726  0.9876
  190SLPC   H3S21953   1.768   6.025   7.116  0.4192 -0.4034  0.5057
  190SLPC   C2421954   1.602   6.089   7.235  1.1460  0.1120  0.2620
  190SLPC   H4R21955   1.567   5.985   7.251 -1.1116  1.0071  1.7266
  190SLPC   H4S21956   1.509   6.144   7.209  0.3484 -0.9114  0.8836
  190SLPC   C2521957   1.657   6.142   7.366 -0.8740  0.5384  0.1861
  190SLPC   H5R21958   1.693   6.246   7.355 -0.1388  0.1478 -1.4422
  190SLPC   H5S21959   1.744   6.078   7.393 -0.8723  0.0541 -0.9279
  190SLPC   C2621960   1.551   6.132   7.476  0.1369  0.7971  0.3545
  190SLPC   H6R21961   1.515   6.027   7.482  0.6795  0.6731  1.6700
  190SLPC   H6S21962   1.466   6.197   7.450 -0.7220 -0.9951 -1.6040
  190SLPC   C2721963   1.599   6.179   7.606  0.5404 -0.2684  0.4976
  190SLPC   H7R21964   1.633   6.284   7.616  0.4087 -0.4035  2.6765
  190SLPC   H7S21965   1.687   6.116   7.632  0.5477 -0.5626 -0.2015
  190SLPC   C2821966   1.493   6.152   7.718 -0.5613  0.7802 -0.1850
  190SLPC   H8R21967   1.455   6.048   7.704  2.6917 -0.4389 -0.8629
  190SLPC   H8S21968   1.407   6.221   7.713  0.2540  1.8252 -0.1419
  190SLPC   C2921969   1.558   6.162   7.858  0.3663  0.3448 -0.6924
  190SLPC   H9R21970   1.665   6.184   7.848  0.1246  1.0662 -1.9631
  190SLPC  C21021971   1.496   6.148   7.982 -0.0935 -0.4617 -0.5995
  190SLPC  H10R21972   1.554   6.152   8.076  0.9866  0.5072 -1.2808
  190SLPC  C21121973   1.349   6.121   8.002 -0.5939  0.5022  0.3010
  190SLPC  H11R21974   1.339   6.011   8.009  0.4173  0.3834  0.0587
  190SLPC  H11S21975   1.292   6.155   7.913 -0.4736 -0.4722 -0.1586
  190SLPC  C21221976   1.278   6.178   8.118 -0.3590 -0.1558 -0.6220
  190SLPC  H12R21977   1.213   6.263   8.092 -0.4325 -1.0628 -3.7861
  190SLPC  C21321978   1.276   6.134   8.247 -0.0116  0.1699  0.3821
  190SLPC  H13R21979   1.219   6.189   8.324  0.2868 -0.5837  1.1705
  190SLPC  C21421980   1.347   6.017   8.303 -0.9006  0.1148 -0.5521
  190SLPC  H14R21981   1.449   6.056   8.321 -0.5371 -0.9852 -0.2067
  190SLPC  H14S21982   1.355   5.941   8.223  2.6867 -1.1019  0.7653
  190SLPC  C21521983   1.289   5.953   8.434  0.0405 -0.1416  0.0394
  190SLPC  H15R21984   1.186   5.917   8.416  0.5859 -0.6174 -2.4027
  190SLPC  H15S21985   1.290   6.022   8.521 -2.6119 -1.1310  0.9375
  190SLPC  C21621986   1.377   5.839   8.484  0.1097 -0.0302  0.2961
  190SLPC  H16R21987   1.375   5.755   8.412 -0.8565 -0.5395  0.8913
  190SLPC  H16S21988   1.332   5.792   8.575 -1.1472  0.0996 -0.2449
  190SLPC  C21721989   1.524   5.869   8.520  0.2766  0.6447  0.8622
  190SLPC  H17R21990   1.526   5.966   8.574 -1.4920  0.3773  1.4802
  190SLPC  H17S21991   1.588   5.890   8.431 -2.2518  2.1278 -0.7241
  190SLPC  C21821992   1.600   5.754   8.595 -0.0307 -0.8571  0.3937
  190SLPC  H18R21993   1.536   5.744   8.685 -1.3315  2.5074 -0.0040
  190SLPC  H18S21994   1.703   5.782   8.627 -0.0633 -0.4942  0.1868
  190SLPC  H18T21995   1.617   5.665   8.531  0.8074 -0.8300  0.5679
  190SLPC   C3321996   1.941   6.798   6.858  0.2969 -0.5809  0.7613
  190SLPC   H3X21997   1.849   6.854   6.829  1.4392  0.3686 -1.2255
  190SLPC   H3Y21998   2.024   6.826   6.789  1.1111 -0.2493  1.8451
  190SLPC   C3421999   1.974   6.854   6.995  0.4109  0.0620 -0.3215
  190SLPC   H4X22000   1.905   6.804   7.066  1.3607 -1.2402 -0.2941
  190SLPC   H4Y22001   1.953   6.963   6.995  0.9545  0.1712 -0.0854
  190SLPC   C3522002   2.117   6.825   7.040  0.3226 -0.7770  0.5917
  190SLPC   H5X22003   2.185   6.864   6.961 -1.1571 -0.5954 -0.6628
  190SLPC   H5Y22004   2.129   6.715   7.032 -0.8749 -0.8458 -0.6693
  190SLPC   C3622005   2.164   6.880   7.173  0.3072  0.5396 -0.4228
  190SLPC   H6X22006   2.186   6.989   7.179  3.7611 -0.1103  1.2728
  190SLPC   H6Y22007   2.268   6.843   7.186  0.4645  1.3311  0.7898
  190SLPC   C3722008   2.075   6.813   7.286  0.6766 -0.1627  0.6121
  190SLPC   H7X22009   2.062   6.709   7.250  1.9720 -0.1973  0.2138
  190SLPC   H7Y22010   1.974   6.860   7.286  1.0538  0.6643  0.6272
  190SLPC   C3822011   2.137   6.831   7.423  0.7121  0.9573 -0.4891
  190SLPC   H8X22012   2.213   6.911   7.438  0.0092  1.7768 -1.2317
  190SLPC   H8Y22013   2.196   6.739   7.446  0.2834  0.8549  0.2454
  190SLPC   C3922014   2.036   6.844   7.538  0.3407  0.2910 -0.1761
  190SLPC   H9X22015   1.966   6.758   7.544  1.1984 -0.3265  1.8538
  190SLPC   H9Y22016   1.975   6.933   7.512 -0.1766 -0.4937 -1.8001
  190SLPC  C31022017   2.107   6.857   7.669 -0.2472  0.3071 -0.4178
  190SLPC  H10X22018   2.175   6.945   7.661  2.8374 -1.9478 -0.6440
  190SLPC  H10Y22019   2.179   6.775   7.689  0.3288  1.4063  2.6144
  190SLPC  C31122020   2.015   6.855   7.788 -0.3382 -0.3900  0.2595
  190SLPC  H11X22021   1.953   6.763   7.794 -0.9815  0.0487  0.4216
  190SLPC  H11Y22022   1.946   6.942   7.776 -1.8193 -1.5710 -0.0758
  190SLPC  C31222023   2.100   6.880   7.919  0.3702 -0.6164 -0.2557
  190SLPC  H12X22024   2.154   6.977   7.915  0.1072 -0.4635 -0.1670
  190SLPC  H12Y22025   2.164   6.790   7.926 -0.5281 -1.4750 -2.2120
  190SLPC  C31322026   2.001   6.872   8.030  0.2400 -0.0276 -0.4107
  190SLPC  H13X22027   2.056   6.865   8.126  1.7130  0.7281 -1.1621
  190SLPC  H13Y22028   1.926   6.790   8.022 -1.7792  1.7995 -1.2317
  190SLPC  C31422029   1.920   7.005   8.036  0.0488 -0.5333  0.0894
  190SLPC  H14X22030   1.869   7.040   7.944 -1.4442 -1.1599  0.6250
  190SLPC  H14Y22031   2.000   7.077   8.060  1.0542 -0.4517 -3.0678
  190SLPC  C31522032   1.817   7.031   8.151 -0.9606  0.2044 -0.0502
  190SLPC  H15X22033   1.744   6.949   8.135 -0.9988  0.3442 -0.6352
  190SLPC  H15Y22034   1.766   7.125   8.119 -1.7763 -0.4698 -0.7916
  190SLPC  C31622035   1.877   7.038   8.289 -0.2063  0.1892 -0.7143
  190SLPC  H16X22036   1.870   7.144   8.324 -2.5529 -0.5144  1.2475
  190SLPC  H16Y22037   1.983   7.008   8.279  0.1492  1.0029  0.4190
  190SLPC  C31722038   1.809   6.945   8.383  0.3291  0.3314  0.4597
  190SLPC  H17X22039   1.803   6.847   8.331  1.5468 -0.6693  2.1156
  190SLPC  H17Y22040   1.705   6.981   8.392  0.1762 -0.2219  0.9257
  190SLPC  C31822041   1.870   6.930   8.525  1.0873  0.1894 -0.3753
  190SLPC  H18X22042   1.981   6.923   8.518  0.9553 -1.7160 -1.4822
  190SLPC  H18Y22043   1.819   6.843   8.572 -2.1447  1.5255 -1.1423
  190SLPC  H18Z22044   1.849   7.018   8.589  1.2731 -0.7709  1.0507
  191SLPC     N22045   5.234   3.535   5.735  0.0705  0.1096 -0.1579
  191SLPC   C1322046   5.367   3.526   5.807 -0.3618  0.2531 -0.3612
  191SLPC  H13A22047   5.446   3.548   5.736  0.4150 -0.5766  0.2277
  191SLPC  H13B22048   5.363   3.602   5.884  0.5950 -1.7210  1.7392
  191SLPC  H13C22049   5.376   3.428   5.851  0.9723  0.0003 -1.1430
  191SLPC   C1422050   5.230   3.443   5.616 -0.8901 -0.5341  0.0142
  191SLPC  H14A22051   5.299   3.482   5.542  0.4731 -1.9105  0.4994
  191SLPC  H14B22052   5.250   3.340   5.641 -1.3380  0.3293  4.9237
  191SLPC  H14C22053   5.133   3.435   5.570 -1.1848 -2.7445  0.8900
  191SLPC   C1522054   5.222   3.677   5.682 -0.4036  0.1585 -0.5402
  191SLPC  H15A22055   5.157   3.679   5.595  0.2830 -1.0239 -1.0980
  191SLPC  H15B22056   5.183   3.744   5.758 -1.0690  1.6356 -2.0933
  191SLPC  H15C22057   5.319   3.720   5.663 -0.1329  0.0805  0.6091
  191SLPC   C1222058   5.116   3.492   5.818 -0.4643  0.7934 -0.1396
  191SLPC  H12A22059   5.132   3.389   5.846 -0.0405  0.6553 -0.8350
  191SLPC  H12B22060   5.024   3.502   5.763 -1.1510  1.1131  1.0417
  191SLPC   C1122061   5.091   3.568   5.952  0.5603 -0.0070  0.1543
  191SLPC  H11A22062   5.162   3.529   6.028 -0.1966  1.9252  1.9685
  191SLPC  H11B22063   4.998   3.528   5.999  0.2442  1.7593  1.1105
  191SLPC     P22064   4.967   3.794   5.913 -0.5385  0.1472 -0.0797
  191SLPC   O1322065   5.012   3.893   5.815  0.1531 -0.5391 -0.1933
  191SLPC   O1422066   4.856   3.693   5.882 -0.3305  0.3491  0.2183
  191SLPC   O1222067   5.103   3.709   5.946 -0.0691  0.2479  0.8269
  191SLPC   O1122068   4.931   3.867   6.047  0.0139  0.9461 -0.2194
  191SLPC    C122069   4.922   3.785   6.166 -0.0039  0.1799 -0.1269
  191SLPC    HA22070   4.817   3.759   6.190  0.2364 -1.2166 -0.4674
  191SLPC    HB22071   4.979   3.689   6.158 -0.3644  0.1103 -2.4539
  191SLPC    C222072   4.989   3.866   6.285 -0.1451  0.4975  0.6009
  191SLPC    HS22073   4.986   3.803   6.376  2.0195  3.5622  3.0293
  191SLPC   O2122074   4.919   3.989   6.306 -0.2565  0.0187  0.4454
  191SLPC   C2122075   4.802   3.991   6.370  0.3656  0.4805 -0.2221
  191SLPC   O2222076   4.755   3.887   6.421  0.0787  0.2886 -0.1674
  191SLPC   C2222077   4.744   4.132   6.382  0.4254 -0.2012 -0.5102
  191SLPC   H2R22078   4.825   4.208   6.378  1.3260 -1.0591  0.6025
  191SLPC   H2S22079   4.676   4.129   6.295 -0.8404 -2.7521  0.4690
  191SLPC    C322080   5.134   3.907   6.247  0.0440 -0.1311  0.2955
  191SLPC    HX22081   5.120   4.002   6.192 -1.4232  1.6349  3.4273
  191SLPC    HY22082   5.183   3.836   6.177 -0.3769 -0.9549  0.8184
  191SLPC   O3122083   5.215   3.935   6.361  0.0642  0.7334 -0.0325
  191SLPC   C3122084   5.316   3.853   6.390 -0.0543  0.2231  0.5488
  191SLPC   O3222085   5.354   3.758   6.329  0.2068 -0.3040 -0.2163
  191SLPC   C3222086   5.384   3.913   6.514 -0.4823  0.1597  0.0347
  191SLPC   H2X22087   5.304   3.955   6.579  1.1527  0.0447  2.2184
  191SLPC   H2Y22088   5.448   3.996   6.475  0.6536 -0.8863 -0.4011
  191SLPC   C2322089   4.657   4.144   6.507  0.0771  0.0248 -1.1995
  191SLPC   H3R22090   4.581   4.064   6.509 -0.3022  0.3691  0.4213
  191SLPC   H3S22091   4.597   4.238   6.503  0.5896  0.3251 -2.0868
  191SLPC   C2422092   4.740   4.134   6.633 -0.6875 -0.4799 -0.9966
  191SLPC   H4R22093   4.817   4.214   6.623 -1.6580  0.4879 -0.9139
  191SLPC   H4S22094   4.791   4.036   6.641 -1.0719 -0.5290  1.3780
  191SLPC   C2522095   4.662   4.161   6.767  0.2233 -0.0466  1.2765
  191SLPC   H5R22096   4.602   4.069   6.781  2.3598 -1.6277  0.6236
  191SLPC   H5S22097   4.605   4.254   6.744  1.6665  0.0961 -2.4345
  191SLPC   C2622098   4.738   4.181   6.898 -0.1920 -0.6066  0.6353
  191SLPC   H6R22099   4.805   4.268   6.886 -0.7528 -0.5579 -3.5799
  191SLPC   H6S22100   4.803   4.092   6.910  1.9418  1.0603  2.1067
  191SLPC   C2722101   4.661   4.199   7.025 -0.3834 -0.5908 -0.1129
  191SLPC   H7R22102   4.596   4.110   7.034  1.9427 -2.5683 -1.6334
  191SLPC   H7S22103   4.605   4.295   7.019  1.4747  0.6046  0.6616
  191SLPC   C2822104   4.753   4.220   7.154 -0.4533 -0.1267  0.1757
  191SLPC   H8R22105   4.787   4.325   7.142 -0.2647 -0.2529 -0.4420
  191SLPC   H8S22106   4.845   4.159   7.141  0.2833  0.8715  0.5736
  191SLPC   C2922107   4.688   4.195   7.285  0.2177  0.0461 -0.2099
  191SLPC   H9R22108   4.623   4.273   7.329  1.8712  1.6098 -0.3805
  191SLPC  C21022109   4.677   4.069   7.347  0.1100 -0.8546  0.3183
  191SLPC  H10R22110   4.613   4.064   7.437 -1.1075 -2.2721 -0.5757
  191SLPC  C21122111   4.729   3.937   7.309  0.6776 -0.8738 -0.0915
  191SLPC  H11R22112   4.790   3.942   7.216 -1.8395 -0.2074 -1.8119
  191SLPC  H11S22113   4.643   3.872   7.282 -0.8922  1.5217 -1.1866
  191SLPC  C21222114   4.806   3.865   7.417  0.6095  0.2499 -0.4783
  191SLPC  H12R22115   4.913   3.888   7.414  0.5843  0.3227 -0.9167
  191SLPC  C21322116   4.742   3.798   7.524  0.1996 -0.9435  0.0186
  191SLPC  H13R22117   4.800   3.741   7.599 -0.7276 -1.5148  0.3202
  191SLPC  C21422118   4.586   3.797   7.538 -0.1696 -0.1211  0.5815
  191SLPC  H14R22119   4.572   3.687   7.533  1.0253 -0.2675  0.1609
  191SLPC  H14S22120   4.530   3.840   7.452 -1.7109  0.6821  1.9294
  191SLPC  C21522121   4.528   3.845   7.678  0.1961  0.5343  0.4058
  191SLPC  H15R22122   4.419   3.827   7.672 -0.0063  1.8938 -0.7395
  191SLPC  H15S22123   4.563   3.951   7.683  3.0547 -0.1627 -1.7111
  191SLPC  C21622124   4.591   3.759   7.791  0.1287 -0.3364  0.5755
  191SLPC  H16R22125   4.701   3.772   7.798  0.0067  1.4577 -0.2876
  191SLPC  H16S22126   4.562   3.654   7.770 -2.4177  0.7423 -1.9695
  191SLPC  C21722127   4.533   3.797   7.926  0.7573 -0.3332  0.0830
  191SLPC  H17R22128   4.557   3.726   8.008  1.9520 -1.7130 -1.3862
  191SLPC  H17S22129   4.423   3.789   7.922  0.6088  0.5911  1.7438
  191SLPC  C21822130   4.582   3.938   7.963 -0.6883 -0.6290  0.1905
  191SLPC  H18R22131   4.563   3.956   8.071  0.9846 -1.5829  0.6766
  191SLPC  H18S22132   4.528   4.002   7.891 -0.0561  0.2139  0.4394
  191SLPC  H18T22133   4.692   3.939   7.948 -0.7504 -0.3649 -0.2571
  191SLPC   C3322134   5.469   3.809   6.589  0.7452 -0.5534 -0.4459
  191SLPC   H3X22135   5.533   3.765   6.509 -0.4355  1.2759 -2.5079
  191SLPC   H3Y22136   5.393   3.735   6.623 -1.2857  2.1378  1.3080
  191SLPC   C3422137   5.553   3.859   6.704 -0.2238 -0.2656  0.2947
  191SLPC   H4X22138   5.609   3.953   6.686  0.3082 -0.2083  2.0685
  191SLPC   H4Y22139   5.627   3.783   6.738  0.7855  0.8298  0.6375
  191SLPC   C3522140   5.462   3.893   6.824  0.4276 -0.4074 -0.1959
  191SLPC   H5X22141   5.397   3.810   6.859  0.1456 -0.7193 -1.4221
  191SLPC   H5Y22142   5.393   3.974   6.792 -0.1481 -0.7935  0.0396
  191SLPC   C3622143   5.532   3.920   6.961 -0.5821  0.8746  0.0654
  191SLPC   H6X22144   5.449   3.950   7.028 -1.7879  1.2306 -1.5421
  191SLPC   H6Y22145   5.601   4.008   6.958  1.5302 -0.6413  1.2401
  191SLPC   C3722146   5.625   3.811   7.027  0.0342  0.1714 -0.9689
  191SLPC   H7X22147   5.710   3.790   6.959  1.0292 -1.8831  0.7704
  191SLPC   H7Y22148   5.576   3.713   7.045  0.7732 -0.1470 -0.6411
  191SLPC   C3822149   5.666   3.850   7.179  0.0395 -0.5936  0.0586
  191SLPC   H8X22150   5.589   3.809   7.247 -0.8691 -1.1252 -1.2544
  191SLPC   H8Y22151   5.670   3.959   7.200  0.8989 -0.6084  0.0088
  191SLPC   C3922152   5.798   3.794   7.232 -0.3666 -0.0125  0.3736
  191SLPC   H9X22153   5.881   3.802   7.159  1.6839 -2.2523  2.2707
  191SLPC   H9Y22154   5.796   3.684   7.249  0.0627 -0.1991 -0.6626
  191SLPC  C31022155   5.842   3.870   7.358 -0.3367 -0.1888 -0.2317
  191SLPC  H10X22156   5.835   3.978   7.333 -0.5938 -0.7479 -2.7791
  191SLPC  H10Y22157   5.948   3.842   7.376  0.0419  1.4462  0.2827
  191SLPC  C31122158   5.776   3.834   7.498 -0.1323 -0.4879 -0.3672
  191SLPC  H11X22159   5.794   3.726   7.518 -0.0999 -0.4813 -0.3585
  191SLPC  H11Y22160   5.667   3.854   7.503  0.3521  2.2719  2.0222
  191SLPC  C31222161   5.842   3.913   7.616 -0.2018  0.1333 -0.0014
  191SLPC  H12X22162   5.833   4.023   7.608  2.1097  0.3654 -0.3143
  191SLPC  H12Y22163   5.953   3.907   7.609 -0.0690 -4.3437  2.1739
  191SLPC  C31322164   5.789   3.888   7.755  0.4454 -0.2060  0.0022
  191SLPC  H13X22165   5.770   3.779   7.768  1.8418 -0.3587  0.9348
  191SLPC  H13Y22166   5.691   3.938   7.771 -0.5430 -1.7105 -1.0413
  191SLPC  C31422167   5.882   3.937   7.869 -0.0097 -0.1041  0.2337
  191SLPC  H14X22168   5.887   4.048   7.873  0.9340 -0.0024 -2.2280
  191SLPC  H14Y22169   5.988   3.914   7.843  0.3761  1.5715  0.2435
  191SLPC  C31522170   5.840   3.877   8.003 -0.4973  0.0080 -0.9111
  191SLPC  H15X22171   5.846   3.767   7.991 -2.0108 -0.0753 -1.1220
  191SLPC  H15Y22172   5.732   3.896   8.022 -0.1553  0.2204  1.1033
  191SLPC  C31622173   5.917   3.938   8.120  0.0778 -0.0701  0.1185
  191SLPC  H16X22174   5.886   4.041   8.147 -1.0939 -0.0288 -1.2349
  191SLPC  H16Y22175   6.025   3.940   8.094 -0.6734  0.2676 -3.4628
  191SLPC  C31722176   5.893   3.864   8.253  0.6788 -0.5201 -0.1596
  191SLPC  H17X22177   5.920   3.756   8.254  0.3011 -0.6533 -1.7438
  191SLPC  H17Y22178   5.785   3.861   8.280  0.9390 -0.6284  0.8747
  191SLPC  C31822179   5.944   3.936   8.383 -0.1029  0.6748  0.2950
  191SLPC  H18X22180   6.054   3.926   8.394 -0.4063 -2.9493  1.6989
  191SLPC  H18Y22181   5.909   3.881   8.473 -1.6235  1.0687 -0.0205
  191SLPC  H18Z22182   5.913   4.042   8.375 -0.1563  0.5350 -2.0618
  192SLPC     N22183   0.513   5.314   6.327 -0.5056  0.0387 -0.3361
  192SLPC   C1322184   0.529   5.392   6.451 -0.4705  0.0270 -0.0022
  192SLPC  H13A22185   0.431   5.433   6.469  0.0065  0.8091  0.9089
  192SLPC  H13B22186   0.570   5.328   6.528  1.0608  0.1519 -0.6724
  192SLPC  H13C22187   0.607   5.466   6.436  1.0893 -1.5131  0.2031
  192SLPC   C1422188   0.558   5.398   6.210 -0.1169 -0.1723 -0.4304
  192SLPC  H14A22189   0.542   5.340   6.120 -2.0030 -0.2461 -0.0870
  192SLPC  H14B22190   0.505   5.492   6.199  3.0202  1.8649  0.3037
  192SLPC  H14C22191   0.661   5.429   6.222 -0.0846 -0.2406 -0.5249
  192SLPC   C1522192   0.373   5.283   6.308  0.2145  0.2036  0.2569
  192SLPC  H15A22193   0.354   5.199   6.373  1.3925  0.5996  1.1410
  192SLPC  H15B22194   0.312   5.367   6.340  0.8244  0.5191  0.6043
  192SLPC  H15C22195   0.356   5.253   6.206 -0.5453  0.7053  0.2259
  192SLPC   C1222196   0.599   5.193   6.340 -0.3869  0.1565  0.4503
  192SLPC  H12A22197   0.580   5.137   6.431  0.1825 -0.4928  0.1845
  192SLPC  H12B22198   0.702   5.220   6.359  0.8825 -2.4390 -1.9239
  192SLPC   C1122199   0.601   5.093   6.223  0.4292 -0.0173 -0.2652
  192SLPC  H11A22200   0.649   5.130   6.130  1.7484 -0.3906  0.2448
  192SLPC  H11B22201   0.496   5.066   6.198  1.0436 -0.5710 -2.5058
  192SLPC     P22202   0.590   4.865   6.345 -0.1964  0.0858  0.2445
  192SLPC   O1322203   0.510   4.783   6.247 -0.6461 -0.2368 -0.1263
  192SLPC   O1422204   0.688   4.788   6.418 -0.1957 -0.2205 -0.6142
  192SLPC   O1222205   0.679   4.976   6.272  0.3674  0.4478  0.1834
  192SLPC   O1122206   0.491   4.949   6.448 -0.8826 -0.2423  0.2594
  192SLPC    C122207   0.450   4.882   6.564 -0.3993  0.4197  0.2038
  192SLPC    HA22208   0.425   4.776   6.541  0.2161  0.0283  1.2720
  192SLPC    HB22209   0.523   4.885   6.648 -1.4915  0.7595  1.1795
  192SLPC    C222210   0.325   4.947   6.636  0.4911  0.0613  0.7125
  192SLPC    HS22211   0.265   4.989   6.552 -0.5303 -1.5293  0.6109
  192SLPC   O2122212   0.373   5.051   6.727  0.6831 -0.1075  0.1675
  192SLPC   C2122213   0.278   5.130   6.770  0.2093 -0.2948  0.5285
  192SLPC   O2222214   0.162   5.137   6.730  1.1602  0.3859 -1.2524
  192SLPC   C2222215   0.333   5.219   6.875  0.0243  0.8284 -0.1428
  192SLPC   H2R22216   0.414   5.285   6.838  2.9118 -2.0654  0.5704
  192SLPC   H2S22217   0.245   5.279   6.906 -1.0800 -0.2326 -1.1065
  192SLPC    C322218   0.236   4.843   6.695  0.6689  0.0260  0.3219
  192SLPC    HX22219   0.233   4.756   6.626  1.1455  0.7381 -0.6149
  192SLPC    HY22220   0.136   4.892   6.705  2.1762  2.9338  3.8643
  192SLPC   O3122221   0.279   4.796   6.827  0.3771 -0.6114 -0.4400
  192SLPC   C3122222   0.334   4.674   6.830  0.5818 -0.4049 -0.0300
  192SLPC   O3222223   0.355   4.606   6.731 -0.4163  0.2451  0.4868
  192SLPC   C3222224   0.377   4.644   6.978  0.5224  0.1093 -1.0158
  192SLPC   H2X22225   0.428   4.546   6.981 -0.0326 -0.1582  1.0052
  192SLPC   H2Y22226   0.293   4.638   7.050  1.2219 -0.4971 -0.2322
  192SLPC   C2322227   0.377   5.140   6.999  0.8935 -0.2447  0.5957
  192SLPC   H3R22228   0.466   5.079   6.973 -0.1569 -1.1852 -0.9599
  192SLPC   H3S22229   0.287   5.083   7.033 -0.2038  1.7610  1.1918
  192SLPC   C2422230   0.423   5.237   7.110  0.2526  0.5414  0.8264
  192SLPC   H4R22231   0.349   5.320   7.103  0.8979  1.0107 -2.4169
  192SLPC   H4S22232   0.522   5.278   7.080  0.4109 -0.5619 -0.2310
  192SLPC   C2522233   0.428   5.172   7.246 -0.5426 -0.0390 -0.4992
  192SLPC   H5R22234   0.506   5.093   7.247 -0.7269 -0.2403 -1.6022
  192SLPC   H5S22235   0.329   5.128   7.266  0.4106 -1.5552  1.2353
  192SLPC   C2622236   0.469   5.264   7.363 -0.4146 -0.1211  0.6631
  192SLPC   H6R22237   0.387   5.337   7.382 -1.1296 -1.4520  3.0694
  192SLPC   H6S22238   0.565   5.315   7.343 -0.1537  0.0854  2.3209
  192SLPC   C2722239   0.495   5.199   7.501  0.0850  0.5749 -0.1360
  192SLPC   H7R22240   0.572   5.121   7.484 -0.8056  0.0104 -1.7697
  192SLPC   H7S22241   0.411   5.136   7.537 -0.8435  0.5685 -2.1503
  192SLPC   C2822242   0.537   5.297   7.616 -0.8456  0.4019 -0.4979
  192SLPC   H8R22243   0.456   5.370   7.637 -0.2407  0.1327  3.6139
  192SLPC   H8S22244   0.625   5.352   7.577  0.5988  0.3328  2.3686
  192SLPC   C2922245   0.586   5.231   7.742  0.4183  0.4488  0.1290
  192SLPC   H9R22246   0.568   5.122   7.742 -0.4389  0.5726 -1.4081
  192SLPC  C21022247   0.617   5.297   7.852 -0.3837 -0.1651 -0.6874
  192SLPC  H10R22248   0.650   5.235   7.937 -1.9433 -1.2656 -0.8422
  192SLPC  C21122249   0.615   5.447   7.883  0.1839 -0.8020 -0.2069
  192SLPC  H11R22250   0.523   5.468   7.942 -0.4284 -0.6957 -1.1701
  192SLPC  H11S22251   0.600   5.501   7.787  2.5832 -1.0033 -0.7463
  192SLPC  C21222252   0.741   5.500   7.948  0.3461  0.1699 -0.1934
  192SLPC  H12R22253   0.813   5.550   7.882  1.2677 -0.4871  0.2898
  192SLPC  C21322254   0.778   5.505   8.078 -0.2350 -0.2809 -0.3837
  192SLPC  H13R22255   0.874   5.550   8.107 -0.9223  1.0880 -0.1646
  192SLPC  C21422256   0.686   5.464   8.189  0.1419  0.4434  0.8079
  192SLPC  H14R22257   0.585   5.509   8.179 -0.1705 -0.1306  1.3119
  192SLPC  H14S22258   0.726   5.517   8.277  4.0558  0.0873 -0.5513
  192SLPC  C21522259   0.656   5.314   8.220  0.5454  0.6652  0.0152
  192SLPC  H15R22260   0.751   5.256   8.212  0.3695  0.6384 -2.3366
  192SLPC  H15S22261   0.602   5.266   8.136  4.2931 -1.5079 -1.3847
  192SLPC  C21622262   0.563   5.301   8.340  0.0477  0.5540 -0.0295
  192SLPC  H16R22263   0.481   5.373   8.317 -0.1813  0.0048 -0.9348
  192SLPC  H16S22264   0.612   5.343   8.431 -3.0564  0.2650  1.9367
  192SLPC  C21722265   0.511   5.164   8.364  0.1577 -0.8350 -0.7516
  192SLPC  H17R22266   0.425   5.173   8.434 -0.2686  0.8902 -1.4551
  192SLPC  H17S22267   0.476   5.113   8.271 -0.9572 -0.5627 -0.4920
  192SLPC  C21822268   0.613   5.071   8.420 -0.1719  0.2447 -0.4236
  192SLPC  H18R22269   0.655   5.110   8.515 -0.4773 -1.2724  0.3830
  192SLPC  H18S22270   0.705   5.057   8.361 -0.2650  1.4000 -0.8550
  192SLPC  H18T22271   0.581   4.967   8.443  2.6159 -0.6267 -0.1652
  192SLPC   C3322272   0.474   4.751   7.044  0.5301  0.9458 -0.2517
  192SLPC   H3X22273   0.425   4.849   7.062 -1.1152 -0.0486  1.0404
  192SLPC   H3Y22274   0.545   4.784   6.966  1.7517  1.9049  1.2145
  192SLPC   C3422275   0.556   4.728   7.173  0.6006  0.7187  0.3326
  192SLPC   H4X22276   0.632   4.809   7.177  0.7356  0.5667  0.9506
  192SLPC   H4Y22277   0.606   4.629   7.171  0.6394  0.5929  3.2838
  192SLPC   C3522278   0.465   4.731   7.300  0.2987  0.0941 -0.4710
  192SLPC   H5X22279   0.405   4.640   7.324 -0.2912  0.3251 -1.0226
  192SLPC   H5Y22280   0.379   4.798   7.278 -0.1322 -0.7121 -1.3384
  192SLPC   C3622281   0.533   4.792   7.424 -0.0195 -0.1536  0.2176
  192SLPC   H6X22282   0.559   4.900   7.418  0.3456  0.0264  3.3924
  192SLPC   H6Y22283   0.633   4.744   7.436  0.4910  1.1690  1.4150
  192SLPC   C3722284   0.457   4.763   7.552  0.0247 -0.4972 -1.0647
  192SLPC   H7X22285   0.434   4.654   7.549 -0.3020 -0.5063  0.7969
  192SLPC   H7Y22286   0.363   4.822   7.560 -1.8251 -3.5239  2.3331
  192SLPC   C3822287   0.540   4.784   7.678  0.5057 -0.3275 -0.3498
  192SLPC   H8X22288   0.603   4.873   7.661  2.5477 -1.4995  0.7238
  192SLPC   H8Y22289   0.613   4.701   7.687 -0.7296 -1.4284 -0.1183
  192SLPC   C3922290   0.455   4.801   7.798  0.2402  0.1608 -0.3138
  192SLPC   H9X22291   0.403   4.703   7.808  0.7330 -0.2381 -1.5276
  192SLPC   H9Y22292   0.377   4.872   7.763  0.1792 -0.4047 -1.3726
  192SLPC  C31022293   0.526   4.850   7.926  0.4395 -0.5834  0.0818
  192SLPC  H10X22294   0.594   4.933   7.897 -0.7657  0.1107 -0.8059
  192SLPC  H10Y22295   0.588   4.762   7.957 -0.8916 -1.3294  0.7131
  192SLPC  C31122296   0.444   4.909   8.043  0.3282 -0.9115  0.1718
  192SLPC  H11X22297   0.397   5.003   8.008  1.3186 -0.4958 -0.1010
  192SLPC  H11Y22298   0.508   4.948   8.125 -0.8912 -0.6328  1.0153
  192SLPC  C31222299   0.339   4.814   8.101  0.7814 -0.4798 -0.0831
  192SLPC  H12X22300   0.370   4.707   8.109  1.1705 -0.5263 -1.8569
  192SLPC  H12Y22301   0.257   4.807   8.025 -2.0614  0.6577  2.6539
  192SLPC  C31322302   0.266   4.860   8.229  0.6017  0.1278  0.5544
  192SLPC  H13X22303   0.164   4.816   8.232 -0.0329  1.5971  1.8380
  192SLPC  H13Y22304   0.236   4.967   8.232 -2.2035 -0.4965 -1.2220
  192SLPC  C31422305   0.336   4.821   8.357 -0.1815  0.0387 -0.6517
  192SLPC  H14X22306   0.445   4.843   8.351 -0.2308 -0.0557 -2.2842
  192SLPC  H14Y22307   0.336   4.712   8.380 -0.9709  0.0475 -0.5943
  192SLPC  C31522308   0.270   4.891   8.472  0.6517 -0.2756 -0.2737
  192SLPC  H15X22309   0.238   4.990   8.433  1.7377  0.5182  0.7780
  192SLPC  H15Y22310   0.345   4.905   8.553 -0.0932 -1.1129  0.5937
  192SLPC  C31622311   0.146   4.825   8.529  0.4892  0.8019  0.4116
  192SLPC  H16X22312   0.168   4.717   8.545 -0.7604  0.3953 -0.4493
  192SLPC  H16Y22313   0.057   4.825   8.462  1.0477 -2.1035 -0.4896
  192SLPC  C31722314   0.101   4.878   8.661  0.0125 -0.1516 -0.5198
  192SLPC  H17X22315   0.067   4.984   8.655 -2.8566 -0.6894  2.7945
  192SLPC  H17Y22316   0.188   4.886   8.730 -0.1209 -0.3654 -0.3235
  192SLPC  C31822317  -0.009   4.796   8.724  0.2594  0.0288 -0.3188
  192SLPC  H18X22318   0.028   4.697   8.759 -1.8565 -1.4656 -1.9742
  192SLPC  H18Y22319  -0.095   4.780   8.655 -0.6727 -1.8182  1.1637
  192SLPC  H18Z22320  -0.042   4.850   8.815  1.8020 -1.4581  1.1947
  193SOD    SOD22321   3.623   4.709  13.270  0.3515 -0.0021  0.1996
  194SOD    SOD22322   0.322   4.128   0.526  0.3067  0.1105  0.3863
  195SOD    SOD22323   4.660   1.558   0.395 -0.3883 -0.6860  0.2889
  196SOD    SOD22324   4.431   3.630   1.144 -0.1756 -0.0556  0.1984
  197SOD    SOD22325   5.147   2.418  14.119 -0.0367  0.2403  0.1544
  198SOD    SOD22326   0.876   4.690   5.048 -0.1002  0.1562 -0.3277
  199SOD    SOD22327   4.866   5.637   3.535 -0.1152 -0.0821  0.2733
  200SOD    SOD22328   5.366   2.329   4.547 -0.4012  0.0389 -0.1536
  201SOD    SOD22329   4.157   5.629  12.700  0.0690  0.1933  0.3292
  202SOD    SOD22330   1.933   1.912   4.222 -0.7957  0.1565 -0.3800
  203SOD    SOD22331   0.329   6.264  17.012 -0.1960  0.6066  0.3555
  204SOD    SOD22332   6.742   5.639  16.089 -0.3375  0.2774  0.0496
  205SOD    SOD22333   2.485   6.280  11.638  0.2857 -0.1821  0.4786
  206SOD    SOD22334   1.322   0.204  14.271  0.3430  0.0249 -0.2801
  207SOD    SOD22335   2.308   3.662  16.301 -0.0022 -0.3594  0.3426
  208SOD    SOD22336   6.445   1.429   4.641 -0.2553 -0.2404  0.5978
  209SOD    SOD22337   2.794   3.854   5.579 -0.0542  0.4254  0.0119
  210SOD    SOD22338   6.163   3.859  14.330  0.5561  0.3968  0.4008
  211SOD    SOD22339   3.242   1.386   1.782  0.1186 -0.1367 -0.3101
  212SOD    SOD22340   0.879   6.326  11.756 -0.1375  0.0588  0.1458
  213SOD    SOD22341   2.157   1.849  11.476  0.4850  0.2903 -0.5894
  214SOD    SOD22342   2.473   2.330   4.977 -0.2732  0.2103  0.0627
  215SOD    SOD22343   0.951   6.557  12.561 -0.0781 -0.0208  0.4870
  216SOD    SOD22344   6.042   4.293  16.855 -0.3597 -0.8755 -0.1028
  217SOD    SOD22345   2.708   4.095   6.293  0.3062  0.4492  0.1627
  218SOD    SOD22346   2.111   4.753  14.037  0.5841 -0.2851  0.3485
  219SOD    SOD22347   6.615   6.615  13.412  0.3843 -0.2816 -0.1338
  220SOD    SOD22348   4.812   2.638  10.653  0.3819  0.2288 -0.2819
  221SOD    SOD22349   6.674   0.333  16.627 -1.1587 -0.5498 -0.2822
  222SOD    SOD22350   1.999   6.136   5.866  0.1441 -0.0187 -0.0867
  223SOD    SOD22351   5.641   2.373   2.289  0.1143  0.2764  0.9157
  224SOD    SOD22352   1.432   3.604  16.221 -0.3281 -0.2601  0.2190
  225SOD    SOD22353   6.238   2.082  14.706  0.6780 -0.0710 -0.0050
  226SOD    SOD22354   6.591   0.897   4.397  0.0418 -0.1691  0.5319
  227SOD    SOD22355   6.253   4.428  11.665 -0.1367  0.1616 -0.2196
  228SOD    SOD22356   3.100   6.650  15.673  0.2957  0.1441 -0.0639
  229SOD    SOD22357   1.159   1.639   0.527 -0.0707  0.2341  0.2828
  230SOD    SOD22358   6.782   0.217   1.888  0.4368 -0.7310 -0.0268
  231SOD    SOD22359   4.496   4.494   3.477  0.2452 -0.0818  0.2861
  232SOD    SOD22360   5.295   6.745  15.602 -0.3449  0.3293  0.2270
  233SOD    SOD22361   5.014   5.448   5.084 -0.0738 -0.4629 -0.1065
  234SOD    SOD22362   4.017   2.427   6.391  0.4721 -0.3587  0.1755
  235SOD    SOD22363   0.369   0.600  12.045  0.2170  0.0697 -0.1924
  236SOD    SOD22364   3.778   0.248   1.830 -0.6971 -0.1776 -0.0709
  237SOD    SOD22365   2.708   0.276   3.838  0.0652  0.0023  0.1619
  238SOD    SOD22366   4.357   1.913  16.352  0.0513 -0.2141 -0.5491
  239SOD    SOD22367   5.078   0.585   5.334 -0.1053 -0.1281  0.3419
  240SOD    SOD22368   5.675   4.383  12.355 -0.0269  0.2940 -0.0334
  241SOD    SOD22369   4.491   4.204   5.308 -0.5523  0.4052 -0.2765
  242SOD    SOD22370   3.110   2.610   2.999  0.4799 -0.2620  0.2381
  243SOD    SOD22371   1.842   6.041  13.373  0.0157 -0.2324 -0.2895
  244SOD    SOD22372   3.031   3.662   4.868  0.2724 -0.1044  0.2325
  245SOD    SOD22373   6.626   1.460  10.685  0.4235  0.0022  0.3931
  246SOD    SOD22374   5.781   4.898  11.025  0.0688 -0.1768 -0.1948
  247SOD    SOD22375   1.923   5.866   0.860 -0.3349  0.3022  0.0749
  248SOD    SOD22376   3.040   6.061   1.152 -0.3997  0.1821 -0.0715
  249SOD    SOD22377   1.130   0.154   1.550  0.2199 -0.4675  0.0754
  250SOD    SOD22378   2.046   5.160   4.071  0.3096  0.7965 -0.0164
  251SOD    SOD22379   2.693   5.563  15.649  0.0098 -0.1699 -0.0024
  252SOD    SOD22380   1.968   3.755  14.765 -0.3875 -0.2934 -0.1129
  253SOD    SOD22381   5.417   3.762   5.139  0.5315  0.0162 -0.2175
  254SOD    SOD22382   2.640   1.023  14.813  0.4116  0.2279  0.1373
  255SOD    SOD22383   3.241   3.059   5.148  0.3033  0.5256 -0.2346
  256SOD    SOD22384   4.889   0.385  16.515  0.2288 -0.3873  0.6358
  257SOD    SOD22385   5.838   5.513   6.422  0.3580 -0.1068 -0.5133
  258SOD    SOD22386   1.742   0.806   0.725 -0.0808  0.4333  0.5235
  259SOD    SOD22387   2.559   3.290  11.131 -0.6898 -0.1633  0.6658
  260SOD    SOD22388   6.700   4.745  15.925  0.1727 -0.3836 -0.0757
  261SOD    SOD22389   5.964   2.544  11.495  0.0973 -0.5506 -0.2482
  262SOD    SOD22390   2.853   6.457  13.991  0.6594 -0.3255 -0.0576
  263SOD    SOD22391   3.995   0.751   4.197  0.3684 -0.0198 -0.4821
  264SOD    SOD22392   5.648   5.353   3.506  0.0292 -0.4052 -0.0490
  265SOD    SOD22393   1.270   4.748   5.784  0.6161  0.2414 -0.0091
  266CLA    CLA22394   0.665   1.920  15.471  0.1138 -0.3639 -0.2714
  267CLA    CLA22395   0.705   0.383   1.551 -0.4672 -0.0449  0.2236
  268CLA    CLA22396   4.469   6.641  13.072  0.3887  0.1492  0.0100
  269CLA    CLA22397   2.247   3.165  16.175 -0.0008  0.1328 -0.2400
  270CLA    CLA22398   2.926   3.500   2.663  0.2182  0.4724  0.1213
  271CLA    CLA22399   2.848   0.537  15.790 -0.0263  0.3831  0.1127
  272CLA    CLA22400   5.995   1.296   4.390  0.0159 -0.0644 -0.4750
  273CLA    CLA22401   4.346   6.722   2.010 -0.1285 -0.2449 -0.3718
  274CLA    CLA22402   5.316   1.943   0.231  0.3372 -0.0668  0.1641
  275CLA    CLA22403   3.092   3.524   5.293 -0.5575  0.1769 -0.7134
  276CLA    CLA22404   3.980   5.062  16.750  0.1440 -0.0840  0.5248
  277CLA    CLA22405   2.159   4.878   0.891  0.3396  0.1018  0.1268
  278CLA    CLA22406   0.768   4.507  16.383  0.0154  0.0586 -0.1269
  279CLA    CLA22407   2.170   3.653   1.797  0.4126  0.1529 -0.0065
  280CLA    CLA22408   6.113   5.529   3.401  0.2013  0.1875  0.3236
  281CLA    CLA22409   0.451   1.972  16.665 -0.0739  0.1581  0.0293
  282CLA    CLA22410   4.709   0.113   4.458  0.2929 -0.2218  0.1509
  283CLA    CLA22411   5.678   0.056   4.108 -0.1005  0.1657 -0.2322
  284CLA    CLA22412   2.942   6.359   4.891  0.0126  0.1416  0.4425
  285CLA    CLA22413   2.835   1.303  14.115 -0.0833  0.4037 -0.8075
  286CLA    CLA22414   6.761   0.977  13.864  0.2801 -0.2830  0.2415
  287CLA    CLA22415   4.542   6.585   0.393 -0.1213 -0.1292 -0.0735
  288CLA    CLA22416   1.750   4.949   3.842  0.1474 -0.1417 -0.3182
  289CLA    CLA22417   5.177   5.280   2.051  0.2632  0.3447 -0.0275
  290CLA    CLA22418   5.477   3.864   1.299 -0.0747  0.0488  0.0006
  291CLA    CLA22419   6.343   3.107  14.409 -0.1253  0.1073  0.3040
  292CLA    CLA22420   0.230   6.556   3.853 -0.1231  0.0020 -0.2735
  293CLA    CLA22421   2.590   1.616   0.477  0.0291 -0.2871  0.2778
  294CLA    CLA22422   0.908   4.736  12.700  0.0244 -0.1749  0.1186
  295CLA    CLA22423   6.717   5.958  16.665  0.0881 -0.0087 -0.2013
  296CLA    CLA22424   6.384   0.578   1.118 -0.0487 -0.2557  0.0023
  297CLA    CLA22425   4.838   2.414   4.484 -0.1651 -0.5086  0.2320
  298CLA    CLA22426   6.261   4.831  16.104 -0.2824 -0.0818 -0.5836
  299CLA    CLA22427   1.053   1.146  13.306 -0.2824 -0.0851 -0.0003
  300CLA    CLA22428   5.802   6.477  13.767  0.0024  0.1241  0.2407
  301CLA    CLA22429   6.397   6.472  12.049 -0.2196 -0.4690 -0.1026
  302CLA    CLA22430   5.692   3.558  13.181  0.3653 -0.0465 -0.1799
  303CLA    CLA22431   4.679   5.273  14.177  0.2790  0.1196  0.3456
  304CLA    CLA22432   2.599   1.702  11.705 -0.2596 -0.5787 -0.4767
  305CLA    CLA22433   3.915   0.848   2.859  0.2966 -0.0685 -0.1852
  306CLA    CLA22434   6.508   5.882   3.104 -0.3130  0.1150 -0.1760
  307CLA    CLA22435   2.837   4.773  16.518  0.8247  0.2285 -0.4330
  308CLA    CLA22436   2.670   5.780   3.920 -0.2653  0.1424  0.3342
  309CLA    CLA22437   6.544   3.768   3.174  0.3709  0.1200  0.3337
  310CLA    CLA22438   5.936   4.383   5.840 -0.3348  0.0035 -0.2126
  311CLA    CLA22439   6.786   6.784   0.379  0.1282  0.5488 -0.4389
  312CLA    CLA22440   2.692   4.628  14.072 -0.0006 -0.3667 -0.1539
  313CLA    CLA22441   1.823   1.320  15.262  0.2830  0.0427  0.1883
  314CLA    CLA22442   0.795   4.944  14.694  0.2531  0.1911  0.1475
  315CLA    CLA22443   1.716   3.725   4.953 -0.0003 -0.4433 -0.0044
  316CLA    CLA22444   2.236   2.847   1.901 -0.8451 -0.2414 -0.2936
  317CLA    CLA22445   5.270   1.152  14.357 -0.0615 -0.0713  0.0920
  318CLA    CLA22446   1.793   4.317  15.387 -0.4014 -0.0245  0.2859
  319TIP3   OH222447   0.288   1.434  14.802  0.0949  0.3411 -0.1863
  319TIP3    H122448   0.211   1.388  14.835  0.9392 -0.6864  0.4470
  319TIP3    H222449   0.256   1.485  14.728 -1.0177 -0.8246 -0.5522
  320TIP3   OH222450   1.544   5.642   3.479  0.4807  0.0526  0.0087
  320TIP3    H122451   1.460   5.681   3.502  0.5524  0.6753 -0.7285
  320TIP3    H222452   1.522   5.575   3.414  0.6689  1.2118 -1.2959
  321TIP3   OH222453   3.837   5.799   0.823  0.0289 -0.0673  0.3771
  321TIP3    H122454   3.926   5.834   0.831 -0.1220  0.6481 -0.8323
  321TIP3    H222455   3.785   5.852   0.883  0.5179 -0.9008  1.5602
  322TIP3   OH222456   6.823   1.736   6.120  0.9068  0.1127 -0.4554
  322TIP3    H122457   6.743   1.746   6.171  1.0841  0.2670 -0.2022
  322TIP3    H222458   6.883   1.801   6.157 -0.3433  3.4832 -3.7078
  323TIP3   OH222459   6.771   2.382  11.681 -0.0860  0.0121  0.3848
  323TIP3    H122460   6.734   2.431  11.608  1.2513  1.2678  0.5024
  323TIP3    H222461   6.861   2.364  11.654  0.0803 -0.5239  1.2550
  324TIP3   OH222462   6.256   5.679   5.215  0.0713 -0.0563  0.4314
  324TIP3    H122463   6.247   5.592   5.254 -3.0292  0.0011  0.1364
  324TIP3    H222464   6.262   5.738   5.290 -0.4270 -0.3625  0.7236
  325TIP3   OH222465   0.987   0.427  14.520 -0.4576 -0.1840  0.2223
  325TIP3    H122466   0.904   0.393  14.553 -0.9752 -0.5233 -1.3404
  325TIP3    H222467   1.004   0.505  14.573 -2.2571  0.4282 -0.0403
  326TIP3   OH222468   2.519   4.959  11.223 -0.0305  0.2421 -0.5814
  326TIP3    H122469   2.494   4.888  11.282  2.0131 -0.4559 -0.4628
  326TIP3    H222470   2.528   5.035  11.280  0.4491 -0.0700 -0.2281
  327TIP3   OH222471   4.969   1.830  10.924  0.1529 -0.0990  0.0149
  327TIP3    H122472   4.922   1.913  10.912 -1.1118 -0.8895 -0.8341
  327TIP3    H222473   5.046   1.853  10.975 -0.3662  1.5343  0.1319
  328TIP3   OH222474   3.663   1.064   1.773 -0.0776  0.1519 -0.3154
  328TIP3    H122475   3.601   1.001   1.809  1.6287 -1.1340  0.5157
  328TIP3    H222476   3.718   1.089   1.847  0.9662  0.5522 -1.1901
  329TIP3   OH222477   2.711   3.398   5.056  0.3341  0.2688  0.2003
  329TIP3    H122478   2.683   3.358   4.973  1.8571  0.7504 -0.5961
  329TIP3    H222479   2.806   3.402   5.049  0.9662 -3.2097  3.6123
  330TIP3   OH222480   5.817   5.254   4.748  0.4087  0.3938 -0.1688
  330TIP3    H122481   5.896   5.226   4.701  0.9428  1.6011 -0.0317
  330TIP3    H222482   5.850   5.301   4.825 -0.4106  1.5214 -0.4761
  331TIP3   OH222483   2.876   0.184  16.702 -0.4530 -0.3299 -0.0381
  331TIP3    H122484   2.891   0.278  16.696 -2.1899 -0.0927 -1.2592
  331TIP3    H222485   2.961   0.145  16.682  0.2649  0.9668  0.3879
  332TIP3   OH222486   2.380   5.027  14.695  0.2493 -0.1643 -0.1068
  332TIP3    H122487   2.409   4.977  14.771  0.0018  0.4329  0.3921
  332TIP3    H222488   2.325   5.096  14.732 -1.0315 -0.7077 -0.9502
  333TIP3   OH222489   5.263   4.825   1.791  0.2025  0.1843  0.3283
  333TIP3    H122490   5.239   4.918   1.785 -0.4063 -0.0400 -1.2542
  333TIP3    H222491   5.289   4.813   1.882 -1.6099  1.4484  1.0806
  334TIP3   OH222492   1.658   5.467  16.362  0.2842  0.1283  0.1486
  334TIP3    H122493   1.749   5.467  16.395  0.3779 -0.2584 -0.1053
  334TIP3    H222494   1.610   5.417  16.428  0.6295 -1.3873 -0.7065
  335TIP3   OH222495   2.573   5.451   1.315 -0.5758 -0.4593  0.7915
  335TIP3    H122496   2.562   5.375   1.257 -0.0031 -1.1007  1.5172
  335TIP3    H222497   2.499   5.446   1.375 -0.8521 -0.1094  0.4932
  336TIP3   OH222498   0.867   3.940  16.699  0.5036 -0.1092  0.2276
  336TIP3    H122499   0.877   4.031  16.671  1.1056 -0.1019  0.4597
  336TIP3    H222500   0.772   3.927  16.704  0.4116  0.4700  0.0866
  337TIP3   OH222501   2.168   6.196   4.769 -0.1774  0.2988 -0.7393
  337TIP3    H122502   2.123   6.172   4.688 -0.0035 -2.4987 -0.1074
  337TIP3    H222503   2.188   6.113   4.811  2.3771  1.5565  0.7852
  338TIP3   OH222504   4.135   5.495  15.089 -0.2775 -0.0650  0.4506
  338TIP3    H122505   4.063   5.553  15.111  1.3446  2.4883 -0.4748
  338TIP3    H222506   4.205   5.519  15.150  0.1346 -1.7928  0.7091
  339TIP3   OH222507   6.084   1.906  16.167  0.2604  0.0061  0.2583
  339TIP3    H122508   6.013   1.912  16.102  0.1858 -0.4118  0.2979
  339TIP3    H222509   6.150   1.968  16.136 -0.6691  1.3824  0.9081
  340TIP3   OH222510   6.659   1.781   0.637  0.1861  0.7536  0.7321
  340TIP3    H122511   6.565   1.798   0.638  0.3072  1.6632 -0.8567
  340TIP3    H222512   6.671   1.710   0.700 -1.9412 -1.3808 -1.0901
  341TIP3   OH222513   4.182   5.357   6.754  0.6336  0.4320 -0.1261
  341TIP3    H122514   4.118   5.336   6.686  1.7883 -1.0728 -0.8157
  341TIP3    H222515   4.232   5.431   6.718  0.5886  0.2892 -0.4891
  342TIP3   OH222516   4.167   2.418   3.481  0.1501 -0.5955  0.8415
  342TIP3    H122517   4.242   2.369   3.449  0.1523 -0.2897  0.3759
  342TIP3    H222518   4.091   2.372   3.445  0.1972  1.1364 -1.6769
  343TIP3   OH222519   3.223   3.912  16.113  0.0933  0.3683  0.4284
  343TIP3    H122520   3.208   3.885  16.022 -0.1890 -2.3653  1.2101
  343TIP3    H222521   3.318   3.923  16.119  0.0098  1.9515 -0.4911
  344TIP3   OH222522   5.815   2.154   1.718 -0.5743 -0.1799  0.3462
  344TIP3    H122523   5.733   2.188   1.754 -2.6076 -1.7438 -2.4023
  344TIP3    H222524   5.838   2.217   1.650 -0.7665 -0.8912 -0.3915
  345TIP3   OH222525   3.489   1.711  13.353 -0.0223 -0.1180  0.5399
  345TIP3    H122526   3.567   1.704  13.408  0.6139 -0.1444 -0.3453
  345TIP3    H222527   3.420   1.665  13.402  1.4640 -3.6219 -0.4408
  346TIP3   OH222528   0.644   1.609  15.246 -0.2513  0.3075 -0.1454
  346TIP3    H122529   0.719   1.600  15.187 -0.8355  1.3924 -1.1005
  346TIP3    H222530   0.578   1.550  15.210  0.0500 -0.5036  0.5856
  347TIP3   OH222531   1.449   2.422  15.357 -0.2123  0.3067 -0.1241
  347TIP3    H122532   1.444   2.445  15.449 -2.4195 -1.1268  0.1926
  347TIP3    H222533   1.516   2.353  15.353 -2.2724 -1.9266  1.0450
  348TIP3   OH222534   0.157   2.252  16.201  0.1634  0.2934  0.2982
  348TIP3    H122535   0.099   2.247  16.278  0.5670  0.7784  0.6370
  348TIP3    H222536   0.138   2.338  16.163  1.1359  0.7477  0.8001
  349TIP3   OH222537   6.360   3.382  13.454  0.3142  0.3998 -0.5894
  349TIP3    H122538   6.442   3.428  13.472  0.1046  0.2661  0.8467
  349TIP3    H222539   6.331   3.350  13.539  0.3481 -2.2575 -1.4889
  350TIP3   OH222540   1.576   4.144  12.045  0.3643 -0.2901 -0.5453
  350TIP3    H122541   1.592   4.181  11.958 -1.9017  0.2949 -0.7709
  350TIP3    H222542   1.587   4.217  12.105  1.6890 -0.6403 -0.3258
  351TIP3   OH222543   2.516   3.338  15.373 -0.1882 -0.2793  0.1757
  351TIP3    H122544   2.476   3.252  15.358 -1.4910  0.1396  1.1125
  351TIP3    H222545   2.443   3.397  15.390  0.8098  0.4973  2.1560
  352TIP3   OH222546   0.427   0.162  16.358 -0.3299  0.1121  0.4239
  352TIP3    H122547   0.406   0.127  16.444  2.8967 -0.4724  1.1258
  352TIP3    H222548   0.397   0.095  16.296 -0.5365 -0.6072  1.2876
  353TIP3   OH222549   4.410   4.740   5.040  0.5167  0.3751  0.3653
  353TIP3    H122550   4.451   4.734   5.126  2.9291  0.0629 -0.7515
  353TIP3    H222551   4.369   4.827   5.039  0.3053  0.3136  1.8648
  354TIP3   OH222552   1.270   6.182  13.604 -0.0599 -0.3000  0.1261
  354TIP3    H122553   1.291   6.177  13.510 -0.7620 -1.0375  0.0023
  354TIP3    H222554   1.229   6.098  13.624  0.5943 -0.3789  1.2305
  355TIP3   OH222555   6.224   0.242  10.974 -0.0834  0.8187 -0.0562
  355TIP3    H122556   6.148   0.187  10.989 -0.5843  1.8035  1.2179
  355TIP3    H222557   6.275   0.196  10.907 -1.8516  0.2250 -1.0391
  356TIP3   OH222558   0.095   1.438   2.627  0.4946  0.1334 -0.1572
  356TIP3    H122559   0.064   1.527   2.614 -0.1478 -0.0607 -0.0229
  356TIP3    H222560   0.029   1.383   2.584  0.7270 -0.2888  0.0158
  357TIP3   OH222561   4.154   2.684  16.137  0.8831  0.2240  0.1856
  357TIP3    H122562   4.065   2.664  16.166  0.8469  0.3158  0.1382
  357TIP3    H222563   4.206   2.610  16.168  0.5603 -0.5145 -0.9680
  358TIP3   OH222564   6.463   2.911  15.014  0.1799 -0.1418 -0.0285
  358TIP3    H122565   6.479   2.967  15.090 -1.2250  0.6568 -0.2777
  358TIP3    H222566   6.476   2.968  14.938  0.4974 -0.6350 -0.3519
  359TIP3   OH222567   0.485   2.153   0.392  0.5861  0.3427  0.0841
  359TIP3    H122568   0.413   2.167   0.454  1.6976 -1.2562  1.8646
  359TIP3    H222569   0.541   2.089   0.436  2.7525  1.0361 -1.5364
  360TIP3   OH222570   1.478   6.563   4.285 -0.2883 -0.3909 -0.0805
  360TIP3    H122571   1.462   6.472   4.309 -2.7110 -0.7003 -2.4249
  360TIP3    H222572   1.496   6.607   4.368 -1.7813 -2.4720  1.4585
  361TIP3   OH222573   2.809   3.774  10.992  0.3618  0.3979 -0.3469
  361TIP3    H122574   2.717   3.756  10.973  0.6801 -0.3711 -1.2794
  361TIP3    H222575   2.848   3.793  10.907  1.2420 -0.1544 -0.0837
  362TIP3   OH222576   6.133   2.222   2.368 -0.6432  0.1157 -0.2589
  362TIP3    H122577   6.146   2.273   2.288 -0.1460 -0.1315 -0.3393
  362TIP3    H222578   6.208   2.243   2.423 -1.7720  1.5021  0.8178
  363TIP3   OH222579   1.929   2.179   1.352  0.1997  0.3179 -0.1827
  363TIP3    H122580   1.990   2.150   1.284  2.0703  1.0629  1.0685
  363TIP3    H222581   1.969   2.260   1.386 -1.8205  1.1714  0.3172
  364TIP3   OH222582   1.717   5.962   1.286 -0.4482 -0.5774 -0.2221
  364TIP3    H122583   1.630   5.967   1.247 -0.4420  1.4992 -0.0760
  364TIP3    H222584   1.702   5.979   1.379  0.1268 -0.1303 -0.2103
  365TIP3   OH222585   5.922   3.790  12.679 -0.2533 -0.3245  0.4997
  365TIP3    H122586   5.894   3.699  12.674 -1.1941  0.0131 -0.7980
  365TIP3    H222587   5.898   3.818  12.767 -0.8145 -1.0527  0.5824
  366TIP3   OH222588   2.668   2.600  16.659 -0.8120  0.6383 -0.0398
  366TIP3    H122589   2.634   2.550  16.732 -0.5760  0.5468  0.0100
  366TIP3    H222590   2.597   2.601  16.595 -1.0412  0.7678  0.2126
  367TIP3   OH222591   6.619   0.208   0.420 -0.5072 -0.1461  0.1304
  367TIP3    H122592   6.671   0.135   0.386  1.9799  1.0177  1.1856
  367TIP3    H222593   6.554   0.167   0.477  0.9060 -1.5494  0.7928
  368TIP3   OH222594   1.399   0.295   4.789 -0.2680  0.5532  0.5435
  368TIP3    H122595   1.364   0.384   4.794  0.6836  0.8964  1.7575
  368TIP3    H222596   1.324   0.239   4.808 -0.7292  1.1373  0.4857
  369TIP3   OH222597   2.856   4.557   4.596 -0.2550 -0.0125  0.0158
  369TIP3    H122598   2.834   4.650   4.603  0.4168  0.3194 -1.7839
  369TIP3    H222599   2.952   4.557   4.588 -0.4081 -0.6085 -2.6652
  370TIP3   OH222600   2.927   6.683  13.164 -0.1475 -0.0093 -0.1672
  370TIP3    H122601   2.864   6.621  13.200  1.2582 -0.8078  0.9733
  370TIP3    H222602   2.922   6.759  13.223  0.3485 -0.2986  0.2515
  371TIP3   OH222603   2.442   2.103  16.165  0.1688 -0.1526  0.1235
  371TIP3    H122604   2.535   2.082  16.157  0.3622  0.3568  0.8469
  371TIP3    H222605   2.416   2.134  16.078  0.7003 -0.2209 -0.0636
  372TIP3   OH222606   5.517   5.677  12.607  0.4511  0.3579 -0.1462
  372TIP3    H122607   5.592   5.675  12.548 -0.3021 -0.1604 -1.1222
  372TIP3    H222608   5.441   5.662  12.550 -0.4571  1.4096  0.7338
  373TIP3   OH222609   4.709   3.385   5.145 -0.4305 -0.1922 -0.2506
  373TIP3    H122610   4.761   3.330   5.085 -1.1409 -2.6525  1.2311
  373TIP3    H222611   4.619   3.374   5.115 -0.8386 -1.7274  1.3346
  374TIP3   OH222612   0.202   1.918  14.488 -0.2345 -0.3175  0.2334
  374TIP3    H122613   0.199   1.895  14.581 -1.0255  0.5395  0.4356
  374TIP3    H222614   0.244   2.003  14.485 -1.0993  0.1129 -0.0826
  375TIP3   OH222615   1.633   6.511  15.239  0.5659 -0.7353  0.0368
  375TIP3    H122616   1.681   6.456  15.176  1.0395 -0.6175  0.2912
  375TIP3    H222617   1.650   6.470  15.324  0.1203 -0.7573  0.1146
  376TIP3   OH222618   5.566   5.979   4.914 -0.1749 -0.1462  0.6436
  376TIP3    H122619   5.648   5.952   4.873  0.3111  1.5350  0.4333
  376TIP3    H222620   5.500   5.921   4.875  0.4358  0.5831 -1.6564
  377TIP3   OH222621   1.763   0.676   6.345 -0.5122 -0.3004 -0.2209
  377TIP3    H122622   1.828   0.722   6.399  1.4792  0.2464 -2.8767
  377TIP3    H222623   1.686   0.732   6.349  1.3175  2.6451 -2.0393
  378TIP3   OH222624   4.668   1.624   3.194 -0.3211 -0.6194 -0.1728
  378TIP3    H122625   4.575   1.627   3.217 -0.1801 -1.7672  0.6287
  378TIP3    H222626   4.681   1.700   3.137 -1.1767  1.1187  1.7896
  379TIP3   OH222627   3.427   5.060   4.167  0.1855  0.3265  0.1416
  379TIP3    H122628   3.396   5.133   4.113 -0.1542 -0.2425 -0.4400
  379TIP3    H222629   3.419   5.092   4.257 -0.6504  0.7427 -0.0754
  380TIP3   OH222630   4.774   4.703  16.867  0.1762  0.2675 -0.3399
  380TIP3    H122631   4.713   4.763  16.824  1.6069  0.9129 -1.5753
  380TIP3    H222632   4.795   4.746  16.950 -2.0126 -0.6016  0.7134
  381TIP3   OH222633   6.811   3.748  16.424  0.1842  0.0786  0.4504
  381TIP3    H122634   6.866   3.673  16.444  1.1144  1.2298  2.5607
  381TIP3    H222635   6.870   3.811  16.383 -0.3061  0.1054 -0.2187
  382TIP3   OH222636   1.291   5.301   4.915 -0.2964  0.2044  0.0630
  382TIP3    H122637   1.222   5.306   4.848 -0.8153 -0.3773  0.5418
  382TIP3    H222638   1.245   5.314   4.998  0.1868 -0.0971  0.3795
  383TIP3   OH222639   4.138   4.975   5.831 -0.1796 -0.0798  0.7729
  383TIP3    H122640   4.154   4.903   5.770 -0.8572  2.5887 -2.8549
  383TIP3    H222641   4.214   4.975   5.889  0.1299 -3.2330  0.5485
  384TIP3   OH222642   5.780   2.791  15.267  0.0786  0.3069 -0.1741
  384TIP3    H122643   5.760   2.884  15.259 -1.9976  0.0531  1.2537
  384TIP3    H222644   5.720   2.760  15.335  2.3768 -1.5772  1.1315
  385TIP3   OH222645   3.463   6.587   3.907  0.1475 -0.1771 -0.2243
  385TIP3    H122646   3.452   6.530   3.830  0.2630 -0.9950  0.3573
  385TIP3    H222647   3.385   6.571   3.959  0.3449 -0.0540  0.1076
  386TIP3   OH222648   5.862   6.342  12.897  0.4856 -0.6391 -0.3599
  386TIP3    H122649   5.861   6.315  12.805  0.3937  2.9662 -1.5581
  386TIP3    H222650   5.882   6.436  12.894 -1.3744  0.0174  3.2030
  387TIP3   OH222651   6.214   6.278   0.312  0.9583 -0.3742 -0.1219
  387TIP3    H122652   6.307   6.289   0.331  0.9744  1.3608 -0.9704
  387TIP3    H222653   6.210   6.269   0.216  0.1434  1.7271 -0.3346
  388TIP3   OH222654   0.799   2.505  15.673 -0.0869  0.1176  0.0816
  388TIP3    H122655   0.805   2.426  15.620  0.0780 -0.2502  0.6361
  388TIP3    H222656   0.706   2.512  15.696 -0.2066  0.4290 -0.4685
  389TIP3   OH222657   6.486   3.068   2.428 -0.2592 -0.5105  0.8528
  389TIP3    H122658   6.510   3.157   2.401 -1.7503  0.5557  2.7160
  389TIP3    H222659   6.542   3.011   2.376  3.2875  1.5914  2.0458
  390TIP3   OH222660   3.083   3.179  11.654 -0.2403  0.0729 -0.8045
  390TIP3    H122661   3.120   3.264  11.676 -0.1914  0.0646 -0.8531
  390TIP3    H222662   3.159   3.127  11.625 -0.0517 -0.4213  0.5242
  391TIP3   OH222663   4.345   5.315  14.701  0.1431 -0.3123  0.0388
  391TIP3    H122664   4.425   5.347  14.659  0.1528 -0.3975 -0.0061
  391TIP3    H222665   4.319   5.387  14.759  1.2772 -1.0131  1.4665
  392TIP3   OH222666   2.396   5.226   0.356 -0.4450  0.5821  1.0401
  392TIP3    H122667   2.453   5.300   0.335 -1.8327  1.7043  1.0386
  392TIP3    H222668   2.307   5.260   0.344 -1.1470 -1.7182 -1.0122
  393TIP3   OH222669   5.010   3.371  16.646 -0.1152  0.3795  0.2938
  393TIP3    H122670   5.061   3.401  16.722 -0.6466 -0.5971  1.0587
  393TIP3    H222671   4.980   3.451  16.604  2.7507  1.0576 -0.7093
  394TIP3   OH222672   1.518   5.176  15.874 -0.0472  0.1395  0.1485
  394TIP3    H122673   1.599   5.219  15.847  0.5375 -1.0771 -0.1185
  394TIP3    H222674   1.522   5.175  15.970  1.6819 -2.3990  0.1476
  395TIP3   OH222675   3.258   5.623   2.851  0.3173 -0.2404  0.8096
  395TIP3    H122676   3.237   5.530   2.860  0.5733 -0.4705 -0.6842
  395TIP3    H222677   3.174   5.667   2.866 -0.1238 -0.8189  0.1856
  396TIP3   OH222678   4.710   1.046  16.203 -0.1057 -0.3118 -0.1598
  396TIP3    H122679   4.800   1.035  16.235 -0.2104 -1.4261 -0.1981
  396TIP3    H222680   4.655   1.008  16.272 -0.4874 -0.4441 -0.5318
  397TIP3   OH222681   1.547   0.116  11.123  0.5473  0.0220  0.5099
  397TIP3    H122682   1.501   0.110  11.040  1.5329  0.5533 -0.0965
  397TIP3    H222683   1.528   0.033  11.167  1.1322 -0.8694 -0.8428
  398TIP3   OH222684   5.569   6.328   2.477  0.0817  0.1904 -0.3320
  398TIP3    H122685   5.561   6.247   2.527 -0.6425  0.3355 -0.1955
  398TIP3    H222686   5.663   6.345   2.473  0.1163  1.1349  2.5255
  399TIP3   OH222687   2.898   5.901   1.083 -0.1747  0.5188 -0.2705
  399TIP3    H122688   2.902   5.852   1.001  0.2152 -0.3860  0.2729
  399TIP3    H222689   2.805   5.911   1.101 -0.2613 -0.3516 -0.2046
  400TIP3   OH222690   6.227   6.420  11.370 -0.3206  0.2228  0.6015
  400TIP3    H122691   6.158   6.419  11.436  0.1596  0.2058  1.1154
  400TIP3    H222692   6.295   6.476  11.408  0.1163 -0.0879  0.2822
  401TIP3   OH222693   2.076   5.842  12.787 -0.2090 -0.4222  0.5564
  401TIP3    H122694   1.998   5.825  12.841 -0.2474 -0.1509  0.5851
  401TIP3    H222695   2.041   5.860  12.700 -0.3282  1.7337  0.9967
  402TIP3   OH222696   1.865   1.109  15.499  0.3457  0.2748  0.3503
  402TIP3    H122697   1.871   1.142  15.409  1.1045  1.0204  0.6620
  402TIP3    H222698   1.862   1.188  15.553  2.4089 -0.1154  1.1268
  403TIP3   OH222699   4.352   0.384   0.076  0.1183 -0.0476  0.2840
  403TIP3    H122700   4.423   0.447   0.069 -0.1677  0.0768 -3.9741
  403TIP3    H222701   4.304   0.392  -0.006 -2.8694 -2.4667  1.5795
  404TIP3   OH222702   1.112   1.597  11.231 -0.0765  0.0209  0.4453
  404TIP3    H122703   1.156   1.570  11.150  1.8354 -1.5878  1.9181
  404TIP3    H222704   1.090   1.689  11.216  0.5819 -0.1114 -1.7303
  405TIP3   OH222705   6.779   3.582  16.940 -0.6218 -0.4653  0.0831
  405TIP3    H122706   6.839   3.508  16.933 -0.6498 -0.6256  1.2498
  405TIP3    H222707   6.786   3.627  16.857  1.9789  0.1935  0.5838
  406TIP3   OH222708   4.857   3.909  13.514 -0.1345 -0.5271 -0.0003
  406TIP3    H122709   4.770   3.886  13.482  0.1950  0.5192 -1.7959
  406TIP3    H222710   4.878   3.991  13.468  1.4311 -0.2861  1.0749
  407TIP3   OH222711   2.768   5.591  14.052 -0.3970  0.7492  0.1626
  407TIP3    H122712   2.809   5.594  13.966 -1.1591  0.1944 -0.2386
  407TIP3    H222713   2.674   5.602  14.035 -0.3647  3.2495  1.1537
  408TIP3   OH222714   0.223   2.010   0.801  0.6697  0.5537  0.1899
  408TIP3    H122715   0.248   2.101   0.789  0.5328  0.5133 -0.3953
  408TIP3    H222716   0.170   2.010   0.881  1.3423  0.8583  0.6460
  409TIP3   OH222717   5.918   5.396  15.436 -0.4043  0.1848 -0.1892
  409TIP3    H122718   5.970   5.407  15.356  0.4712  1.9672  0.5733
  409TIP3    H222719   5.885   5.307  15.430  1.5766 -0.5515 -1.4166
  410TIP3   OH222720   0.240   6.661   4.343 -0.1855 -0.2167 -0.0670
  410TIP3    H122721   0.275   6.698   4.262  1.8287  1.0277  1.2775
  410TIP3    H222722   0.219   6.570   4.322  1.5535 -0.2918 -1.6478
  411TIP3   OH222723   4.540   2.170   0.145 -0.3400 -0.1000  0.3860
  411TIP3    H122724   4.613   2.232   0.137 -0.7374  0.3936  0.5590
  411TIP3    H222725   4.485   2.206   0.214 -0.0321 -1.2075  1.2392
  412TIP3   OH222726   3.571   2.076   0.153  0.6875  0.1213  0.8393
  412TIP3    H122727   3.573   2.130   0.233  1.5756  1.2222  0.1013
  412TIP3    H222728   3.587   2.139   0.082 -0.9946 -0.6822 -0.3010
  413TIP3   OH222729   5.909   2.229  15.020 -0.2982 -0.4917  0.0715
  413TIP3    H122730   5.814   2.239  15.020 -0.3609 -0.9634 -0.7707
  413TIP3    H222731   5.938   2.271  15.101 -1.1932 -0.0844  0.1918
  414TIP3   OH222732   0.201   5.809   4.633 -0.2226 -0.3089 -0.1204
  414TIP3    H122733   0.147   5.882   4.665  1.7375  0.7036  1.1061
  414TIP3    H222734   0.224   5.833   4.544  1.6518  1.4405  0.7483
  415TIP3   OH222735   6.788   2.952  11.757  0.1478 -0.0831 -0.0229
  415TIP3    H122736   6.779   3.010  11.681  1.0403  0.1318  0.0172
  415TIP3    H222737   6.877   2.968  11.788  0.5313 -1.6996 -0.2031
  416TIP3   OH222738   3.992   5.071   0.645  0.1522 -0.1239 -0.2758
  416TIP3    H122739   3.937   5.013   0.592  1.1414 -1.2625 -0.1043
  416TIP3    H222740   4.022   5.138   0.583 -0.9468  0.1822 -0.4956
  417TIP3   OH222741   0.704   6.367   0.940  0.0240  0.1839  0.3017
  417TIP3    H122742   0.784   6.418   0.922 -0.5789  0.8211 -0.6919
  417TIP3    H222743   0.633   6.430   0.929 -0.5646  0.1947  3.3885
  418TIP3   OH222744   1.971   0.834   3.880  0.0624 -0.5679  0.1598
  418TIP3    H122745   1.882   0.855   3.908 -0.7410 -3.1744 -0.1803
  418TIP3    H222746   1.983   0.742   3.904  2.8605 -0.1725  0.6200
  419TIP3   OH222747   2.193   3.321   0.429  0.7510 -0.1891  0.2258
  419TIP3    H122748   2.102   3.299   0.448  0.2965  0.6153 -0.8748
  419TIP3    H222749   2.240   3.238   0.434 -0.6530 -1.2460 -2.4388
  420TIP3   OH222750   3.710   1.879   0.494 -0.0271 -0.4548 -0.1423
  420TIP3    H122751   3.687   1.787   0.500  1.0733 -0.7708 -0.5022
  420TIP3    H222752   3.636   1.925   0.533 -0.1362 -1.5316  0.9849
  421TIP3   OH222753   0.545   4.080  14.586  0.1425  0.6018 -0.5218
  421TIP3    H122754   0.567   4.013  14.651 -2.1267 -2.3186 -2.4766
  421TIP3    H222755   0.593   4.053  14.508 -2.9944 -0.6197 -2.1844
  422TIP3   OH222756   0.193   3.708   0.270  0.2108 -0.4344 -0.3486
  422TIP3    H122757   0.149   3.755   0.199  0.1486 -0.5252 -0.3700
  422TIP3    H222758   0.125   3.654   0.309  0.3804 -0.8309 -0.5977
  423TIP3   OH222759   1.739   3.843  14.643 -0.1789  0.7869  0.2707
  423TIP3    H122760   1.717   3.910  14.708 -0.8987 -0.0262  0.8911
  423TIP3    H222761   1.655   3.805  14.618  0.2800 -0.4817  0.5884
  424TIP3   OH222762   1.869   3.367   1.354  0.0641  0.0753  0.0847
  424TIP3    H122763   1.866   3.332   1.443  0.2671 -0.7334 -0.2142
  424TIP3    H222764   1.962   3.387   1.339  0.1640 -0.5579 -0.2162
  425TIP3   OH222765   4.134   3.025   4.128 -0.5610  0.7327 -0.3490
  425TIP3    H122766   4.142   3.043   4.222 -0.1665  0.6215 -0.3580
  425TIP3    H222767   4.112   2.933   4.123 -2.3257  1.1170 -0.3133
  426TIP3   OH222768   3.769   4.936   5.243  0.2512  0.0380 -0.4045
  426TIP3    H122769   3.816   5.014   5.273 -1.5152  0.6472  0.9774
  426TIP3    H222770   3.722   4.905   5.321 -3.0803  0.5634 -2.0393
  427TIP3   OH222771   3.900   2.968   3.485  0.5004  0.1303  0.2723
  427TIP3    H122772   3.922   3.037   3.548 -0.1420  0.4508  0.1558
  427TIP3    H222773   3.813   2.991   3.455  0.7417 -0.1096 -0.6269
  428TIP3   OH222774   2.037   4.620  13.079 -0.2357  0.0922  0.4406
  428TIP3    H122775   1.945   4.644  13.067  0.0408  1.1099  0.2647
  428TIP3    H222776   2.086   4.699  13.055  0.7442 -0.7903 -0.5621
  429TIP3   OH222777   2.166   6.573   1.613 -0.2647  0.1831 -0.4019
  429TIP3    H122778   2.208   6.491   1.587  0.7460  0.8814 -1.0391
  429TIP3    H222779   2.236   6.624   1.654 -1.0790  0.3978  0.7942
  430TIP3   OH222780   4.244   1.797  14.021 -0.4808 -0.1348  0.0062
  430TIP3    H122781   4.336   1.822  14.014  0.4456 -3.5163 -3.0470
  430TIP3    H222782   4.199   1.852  13.957  0.2137 -1.1050 -1.3685
  431TIP3   OH222783   4.990   3.956   0.180 -0.0291 -0.0451 -0.7216
  431TIP3    H122784   4.996   3.886   0.245  2.3030  0.1124 -0.6879
  431TIP3    H222785   4.937   4.024   0.223 -0.8960 -1.0725 -0.1111
  432TIP3   OH222786   2.101   1.360  12.655  0.6361  0.1721 -0.4816
  432TIP3    H122787   2.090   1.379  12.748  1.3854 -0.4607 -0.2556
  432TIP3    H222788   2.074   1.441  12.610 -0.5266  0.2075  0.2316
  433TIP3   OH222789   0.161   1.101  17.147 -0.3444 -0.2484 -0.2270
  433TIP3    H122790   0.178   1.129  17.057  0.3810 -0.7128 -0.2416
  433TIP3    H222791   0.081   1.049  17.141 -0.7527  0.4011 -0.4655
  434TIP3   OH222792   5.460   0.765  15.027 -0.4435 -0.2680  0.0540
  434TIP3    H122793   5.481   0.857  15.012 -1.5248 -0.1791 -1.1407
  434TIP3    H222794   5.448   0.729  14.939 -1.3317 -1.2197  0.5454
  435TIP3   OH222795   1.923   0.271  15.724  0.3166 -0.3265 -0.4491
  435TIP3    H122796   1.903   0.178  15.736  3.3406 -1.1732 -0.8990
  435TIP3    H222797   1.896   0.290  15.635 -0.4296 -0.7311 -0.3206
  436TIP3   OH222798   2.945   6.594  13.468  0.0408  0.2976 -0.7092
  436TIP3    H122799   2.885   6.545  13.524  0.1768  2.5904  1.6163
  436TIP3    H222800   2.915   6.575  13.379 -2.8013 -0.3123  0.2748
  437TIP3   OH222801   0.002   2.125  13.542 -0.3266  0.2903 -0.1191
  437TIP3    H122802   0.014   2.064  13.469 -1.8769  0.8237 -0.8545
  437TIP3    H222803  -0.051   2.196  13.506 -1.5990  0.3011  1.6675
  438TIP3   OH222804   4.319   0.325  15.605  0.0835 -0.3286  0.4368
  438TIP3    H122805   4.312   0.272  15.684  1.1750 -2.6467 -0.9319
  438TIP3    H222806   4.396   0.292  15.560  1.4760  3.1467 -0.0713
  439TIP3   OH222807   2.245   5.669   2.090 -0.2020 -0.2136  0.4728
  439TIP3    H122808   2.227   5.579   2.062 -0.1723 -0.3075  0.7480
  439TIP3    H222809   2.339   5.669   2.109 -0.2654 -0.2116  0.7887
  440TIP3   OH222810   0.256   2.361   6.094 -0.0034  0.2404 -0.2543
  440TIP3    H122811   0.178   2.416   6.102 -1.0570 -0.9979 -1.5185
  440TIP3    H222812   0.229   2.276   6.128  0.9862 -0.0485 -0.1668
  441TIP3   OH222813   4.939   0.378  15.029 -0.3321  0.3441  0.4585
  441TIP3    H122814   4.965   0.407  15.116  2.5642  1.8361 -0.7939
  441TIP3    H222815   4.930   0.458  14.978 -0.4162 -0.5780 -1.0429
  442TIP3   OH222816   2.989   4.158   4.692 -0.1153  0.0146 -0.1191
  442TIP3    H122817   3.001   4.218   4.618  0.7088 -1.0230 -0.8581
  442TIP3    H222818   3.033   4.201   4.765 -1.1415  1.1696 -0.1374
  443TIP3   OH222819   1.918   6.415   6.264  0.1921 -0.1403  0.0019
  443TIP3    H122820   1.904   6.503   6.300  0.3860 -0.0364 -0.1710
  443TIP3    H222821   1.831   6.375   6.263  0.3908 -0.7287  2.0550
  444TIP3   OH222822   1.340   4.627   3.468 -0.3866 -0.0228 -0.0838
  444TIP3    H122823   1.321   4.668   3.552 -2.0588  0.6685 -0.7578
  444TIP3    H222824   1.324   4.696   3.403  0.8063 -0.5520 -0.9985
  445TIP3   OH222825   4.572   1.534   2.465  0.7798 -0.3965 -0.6585
  445TIP3    H122826   4.583   1.468   2.396 -0.7766  0.1711 -1.5147
  445TIP3    H222827   4.564   1.616   2.417  0.3199  0.0984  0.2488
  446TIP3   OH222828   4.854   2.025   2.729  0.0534 -0.3223  0.5189
  446TIP3    H122829   4.856   2.116   2.698 -1.1454 -0.4401  0.0360
  446TIP3    H222830   4.858   2.033   2.824 -2.0734  0.3892  0.6110
  447TIP3   OH222831   4.278   6.554  15.059  0.1420 -0.4412 -0.6228
  447TIP3    H122832   4.328   6.581  14.982  1.0086 -0.7233 -0.1752
  447TIP3    H222833   4.247   6.636  15.097  1.0389 -0.1852 -0.4067
  448TIP3   OH222834   4.476   2.608  13.657  0.0281  0.1997 -0.1230
  448TIP3    H122835   4.420   2.574  13.726  2.3593 -1.6576  1.0236
  448TIP3    H222836   4.459   2.551  13.582  0.2231 -0.2474  0.1650
  449TIP3   OH222837   0.977   6.435   2.925  0.1367 -0.0607  1.0033
  449TIP3    H122838   1.034   6.488   2.869  0.2823  0.4619  1.6406
  449TIP3    H222839   0.911   6.495   2.958 -0.5807 -0.5901  0.5711
  450TIP3   OH222840   5.227   0.816   2.285 -0.1950  0.3654 -0.1166
  450TIP3    H122841   5.255   0.749   2.223 -0.9332 -0.6535  0.5945
  450TIP3    H222842   5.150   0.856   2.244  1.0243  1.7609 -1.1523
  451TIP3   OH222843   2.662   3.697   3.830 -0.0622  0.7693  0.7204
  451TIP3    H122844   2.643   3.609   3.865 -0.0212  0.4097 -0.1313
  451TIP3    H222845   2.577   3.738   3.821 -0.1072  0.6990  0.8186
  452TIP3   OH222846   6.685   6.665  12.904  0.1630 -0.2107 -0.6339
  452TIP3    H122847   6.779   6.682  12.906  0.5399 -2.1571  1.0745
  452TIP3    H222848   6.672   6.611  12.826  0.0357  1.8134 -2.1128
  453TIP3   OH222849   4.424   5.570  12.054 -0.1007 -0.0261 -0.4976
  453TIP3    H122850   4.400   5.598  11.965 -1.8270 -1.5429 -0.5709
  453TIP3    H222851   4.434   5.475  12.047 -0.1604 -0.1494  0.9007
  454TIP3   OH222852   3.507   4.705   6.543 -0.1532  0.0799  0.4769
  454TIP3    H122853   3.580   4.654   6.510 -0.6984 -0.0140 -0.6195
  454TIP3    H222854   3.461   4.645   6.602 -0.1105 -0.3047  0.1204
  455TIP3   OH222855   3.607   2.370   2.626  0.2230 -0.4066 -0.0396
  455TIP3    H122856   3.521   2.357   2.668  0.5108 -0.2276  0.6180
  455TIP3    H222857   3.656   2.422   2.689  0.4217  0.5056 -0.9242
  456TIP3   OH222858   1.419   5.095  13.429 -0.4827 -0.0911 -0.3499
  456TIP3    H122859   1.357   5.067  13.497 -0.3718 -0.1499 -0.2731
  456TIP3    H222860   1.368   5.094  13.348 -0.8977  0.9787 -0.1129
  457TIP3   OH222861   0.564   3.772   1.119 -0.9656 -0.1787 -0.1194
  457TIP3    H122862   0.611   3.843   1.076 -0.5367 -0.0557  0.5440
  457TIP3    H222863   0.540   3.713   1.047  1.3491 -0.9351 -0.3418
  458TIP3   OH222864   2.108   6.576   5.392  0.2113  0.4162 -0.6464
  458TIP3    H122865   2.091   6.544   5.304  1.0813 -2.3762  0.0971
  458TIP3    H222866   2.024   6.609   5.422 -1.1092 -2.1701 -1.1977
  459TIP3   OH222867   0.319   1.688   2.450 -0.0964 -0.6752 -0.4349
  459TIP3    H122868   0.353   1.633   2.521  0.2439  0.8737  0.6706
  459TIP3    H222869   0.346   1.644   2.370  0.9656 -1.6270  0.4044
  460TIP3   OH222870   5.660   6.064  13.828 -0.4070  0.2727  0.2869
  460TIP3    H122871   5.612   6.039  13.748  1.0871 -1.6118 -0.0908
  460TIP3    H222872   5.635   5.998  13.892 -1.3777  1.6184  1.3564
  461TIP3   OH222873   0.267   2.419   4.283  0.4945  0.4641  0.6801
  461TIP3    H122874   0.238   2.504   4.315  0.2507  0.3027  0.8972
  461TIP3    H222875   0.361   2.417   4.301  0.9048  1.4636 -1.0863
  462TIP3   OH222876   6.194   6.652   5.241 -0.4261 -0.2401 -0.0726
  462TIP3    H122877   6.166   6.710   5.170 -1.8745 -1.8133 -0.8781
  462TIP3    H222878   6.286   6.634   5.222 -0.1300  1.2282 -0.1734
  463TIP3   OH222879   2.180   4.410   5.243 -0.1894  0.5100  0.0893
  463TIP3    H122880   2.274   4.415   5.225 -0.0852 -1.2144  0.0394
  463TIP3    H222881   2.139   4.402   5.157 -0.1247 -1.7606  0.2113
  464TIP3   OH222882   1.871   1.166   3.057  0.6046 -0.3864  0.2241
  464TIP3    H122883   1.840   1.135   3.141 -1.2258  0.7633  0.0191
  464TIP3    H222884   1.914   1.249   3.076  1.3033 -0.7185  0.1560
  465TIP3   OH222885   4.308   1.134  10.802 -0.0881 -0.3785 -0.1824
  465TIP3    H122886   4.288   1.227  10.800  1.5441 -0.0180 -1.3935
  465TIP3    H222887   4.377   1.125  10.867  1.2438 -0.3668 -1.5250
  466TIP3   OH222888   2.069   4.729   3.385 -0.2819 -0.2957  0.3774
  466TIP3    H122889   2.054   4.649   3.435  2.4042  0.3993  2.5236
  466TIP3    H222890   2.034   4.799   3.440  1.0924  0.3385  0.4795
  467TIP3   OH222891   2.822   2.510   5.164 -0.7711  0.3457  0.4569
  467TIP3    H122892   2.809   2.559   5.083  0.9789  0.9539  0.5111
  467TIP3    H222893   2.839   2.577   5.230 -0.1707 -0.2468  0.9115
  468TIP3   OH222894   2.757   2.217  11.419 -0.1802 -0.5191  0.5981
  468TIP3    H122895   2.688   2.258  11.471 -0.2083 -0.8594  0.8313
  468TIP3    H222896   2.829   2.204  11.481 -0.2351 -0.9813  0.5650
  469TIP3   OH222897   1.717   0.295   5.931 -0.7132 -0.1855 -0.5342
  469TIP3    H122898   1.793   0.237   5.927  0.8204  1.7310 -0.6180
  469TIP3    H222899   1.699   0.304   6.025  1.5666  2.1718 -0.1870
  470TIP3   OH222900   6.339   1.637  13.282  0.7800 -0.7565 -0.3154
  470TIP3    H122901   6.325   1.654  13.188 -0.7669  0.5843  0.1035
  470TIP3    H222902   6.266   1.580  13.307  1.5470 -1.6433 -0.0280
  471TIP3   OH222903   2.943   2.955  10.264 -0.0449  0.3952 -0.0078
  471TIP3    H122904   2.867   2.903  10.286 -0.0220  1.0980  1.8834
  471TIP3    H222905   3.018   2.901  10.290  0.0081  0.8360  0.7921
  472TIP3   OH222906   2.800   5.194  11.589 -0.0549 -0.4664 -0.0339
  472TIP3    H122907   2.782   5.196  11.683 -1.2972 -0.2330 -0.2586
  472TIP3    H222908   2.852   5.273  11.574 -0.1896 -0.2878  0.4008
  473TIP3   OH222909   1.649   6.112   2.249 -0.4042 -0.1207  0.1089
  473TIP3    H122910   1.621   6.165   2.175  0.7385  0.0646 -0.2091
  473TIP3    H222911   1.569   6.070   2.280 -1.3299  1.6943  0.3189
  474TIP3   OH222912   1.092   5.320  16.034 -0.1073 -0.1623  0.2179
  474TIP3    H122913   1.022   5.323  15.968  0.0303  0.7028  0.0945
  474TIP3    H222914   1.064   5.384  16.100  0.6994  0.4103  0.0168
  475TIP3   OH222915   2.584   1.156  12.437 -0.2089  0.1797 -0.0911
  475TIP3    H122916   2.614   1.145  12.527  2.5024  1.6320 -0.7390
  475TIP3    H222917   2.565   1.067  12.407  0.4502 -0.4921  1.3918
  476TIP3   OH222918   5.241   6.622   4.290 -0.6514  0.1299 -0.1866
  476TIP3    H122919   5.311   6.594   4.348 -1.3542  0.5442  0.8983
  476TIP3    H222920   5.285   6.648   4.209  0.3124 -0.7818  0.0314
  477TIP3   OH222921   4.615   0.042   1.985  0.1640  0.3439  0.5723
  477TIP3    H122922   4.541  -0.001   2.027 -0.3935 -0.2606 -0.9699
  477TIP3    H222923   4.609   0.016   1.893  1.8426  0.9192  0.2687
  478TIP3   OH222924   5.655   2.635  11.812  0.2468 -0.0360  0.1968
  478TIP3    H122925   5.612   2.594  11.737  0.3327 -1.5334  0.9283
  478TIP3    H222926   5.746   2.608  11.805  0.3018  0.0080  0.6947
  479TIP3   OH222927   3.966   2.840  17.156  0.2909  0.2308  0.3594
  479TIP3    H122928   4.025   2.767  17.137  1.6340  1.2187  0.6544
  479TIP3    H222929   3.987   2.906  17.090 -0.7934  0.4451  0.2020
  480TIP3   OH222930   1.772   5.805  13.258 -0.2710  0.1862 -0.0339
  480TIP3    H122931   1.838   5.764  13.201 -0.3833 -0.2748  0.1656
  480TIP3    H222932   1.705   5.738  13.269 -0.5973  0.5280  0.0653
  481TIP3   OH222933   0.852   1.593  16.673  0.4204  0.0198  0.8050
  481TIP3    H122934   0.824   1.671  16.625  0.9671 -0.3628 -0.1537
  481TIP3    H222935   0.774   1.537  16.676  1.0337 -1.2408 -2.2524
  482TIP3   OH222936   0.520   6.321   0.458 -0.0311 -0.5643  0.1937
  482TIP3    H122937   0.609   6.299   0.432 -0.4717 -2.1060 -0.1172
  482TIP3    H222938   0.511   6.415   0.437  1.7029 -0.2211  0.8605
  483TIP3   OH222939   1.931   3.036  11.565  0.3389  0.0131  0.3363
  483TIP3    H122940   1.989   3.071  11.632  1.0229  1.0757 -0.7569
  483TIP3    H222941   1.977   2.959  11.531  0.9342  0.6014 -0.2286
  484TIP3   OH222942   1.775   1.322  14.139 -0.4697 -0.0500 -0.2547
  484TIP3    H122943   1.784   1.402  14.190 -5.2901  0.0959  0.8556
  484TIP3    H222944   1.751   1.353  14.051 -2.3394 -0.1477  0.1769
  485TIP3   OH222945   1.736   5.251  12.665 -0.4353 -0.0489 -0.0290
  485TIP3    H122946   1.741   5.175  12.607 -0.8169 -2.1799  2.5382
  485TIP3    H222947   1.646   5.283  12.654 -0.6053 -0.6234 -0.3375
  486TIP3   OH222948   3.823   6.552  13.553 -0.3392  0.5028  0.2587
  486TIP3    H122949   3.820   6.524  13.461 -0.6744  1.8877 -0.1782
  486TIP3    H222950   3.735   6.584  13.570 -0.7429 -1.1525  1.5651
  487TIP3   OH222951   2.398   3.010  15.763 -0.2151 -0.3613  0.3638
  487TIP3    H122952   2.355   2.957  15.830  0.9033  1.3046  2.5610
  487TIP3    H222953   2.327   3.056  15.720 -1.0172 -1.9381 -0.0875
  488TIP3   OH222954   6.328   1.714  12.184 -0.5230  0.3447  0.0674
  488TIP3    H122955   6.302   1.806  12.176  0.9413  1.0127  1.8700
  488TIP3    H222956   6.313   1.693  12.277  0.1412 -0.8979 -0.0785
  489TIP3   OH222957   0.513   2.451  13.799 -0.4289  0.4731 -0.6489
  489TIP3    H122958   0.524   2.544  13.779  1.3290  0.3112 -0.6087
  489TIP3    H222959   0.427   2.429  13.763 -1.8126  2.5564  1.1118
  490TIP3   OH222960   3.148   0.868   3.620  0.1238  0.4179  0.3574
  490TIP3    H122961   3.088   0.866   3.695 -0.8152  1.2643 -0.3507
  490TIP3    H222962   3.204   0.944   3.636 -0.1977  0.7091  0.1268
  491TIP3   OH222963   2.514   3.878   2.700 -0.1228  0.1641  0.6567
  491TIP3    H122964   2.536   3.954   2.647  0.1347  1.2172  2.1926
  491TIP3    H222965   2.513   3.805   2.639  0.2740  1.2985 -0.7492
  492TIP3   OH222966   1.002   0.269   4.155 -0.1934  0.2493 -0.3348
  492TIP3    H122967   0.977   0.257   4.063  0.5294 -1.5831 -0.3361
  492TIP3    H222968   0.963   0.194   4.200 -0.5298  1.1209  0.8686
  493TIP3   OH222969   2.758   2.866  15.574  0.2097  0.0461  0.2527
  493TIP3    H122970   2.745   2.814  15.495 -0.1456  0.1120  0.2645
  493TIP3    H222971   2.710   2.947  15.556  2.8608  1.5032 -0.8539
  494TIP3   OH222972   0.265   0.242  15.729 -0.3253 -0.3658  0.4590
  494TIP3    H122973   0.268   0.187  15.650  0.6000  1.0442 -0.5381
  494TIP3    H222974   0.231   0.326  15.698 -0.0851  0.1623  1.5907
  495TIP3   OH222975   0.029   5.296   2.283  0.2595 -0.0896 -0.2672
  495TIP3    H122976   0.050   5.338   2.366 -0.9441 -1.0584  0.5849
  495TIP3    H222977   0.049   5.361   2.216 -0.1430  1.2693  0.8888
  496TIP3   OH222978   2.618   5.028  13.459  0.0091  0.0139 -0.0640
  496TIP3    H122979   2.700   5.051  13.415 -1.2444 -0.3422 -2.8707
  496TIP3    H222980   2.633   4.940  13.494  0.5162 -0.5584 -1.6204
  497TIP3   OH222981   1.919   6.505  16.380 -0.2913 -0.1142 -0.0158
  497TIP3    H122982   1.832   6.500  16.421 -0.9940 -1.4923 -1.5888
  497TIP3    H222983   1.906   6.472  16.291  2.2976 -2.8306  0.4391
  498TIP3   OH222984   4.903   2.846  16.319 -0.2495  0.2727  0.4647
  498TIP3    H122985   4.876   2.807  16.402 -0.6132 -0.9514 -0.2048
  498TIP3    H222986   4.998   2.846  16.322 -0.2655  0.9764  1.2070
  499TIP3   OH222987   5.764   3.538   1.559 -0.0194  0.0912  0.7037
  499TIP3    H122988   5.696   3.577   1.504 -0.5736 -2.0006 -0.2010
  499TIP3    H222989   5.727   3.453   1.586  1.8874 -0.7332  0.8600
  500TIP3   OH222990   1.596   2.437  12.171 -0.5335 -0.5349 -0.6336
  500TIP3    H122991   1.564   2.499  12.105  0.8187  1.3607  0.3878
  500TIP3    H222992   1.691   2.434  12.156 -0.0249  0.7560  1.7885
  501TIP3   OH222993   5.273   3.961   3.275 -0.0949 -0.0891  0.5131
  501TIP3    H122994   5.191   3.923   3.241  0.1277 -1.1472  1.1143
  501TIP3    H222995   5.320   3.988   3.196 -0.9646  0.4190  0.1520
  502TIP3   OH222996   1.839   3.912  11.984 -0.1194 -0.1108  0.3017
  502TIP3    H122997   1.925   3.948  12.005 -0.4241  0.3261  0.8011
  502TIP3    H222998   1.802   3.974  11.920 -0.5647  0.3702  1.0174
  503TIP3   OH222999   1.103   4.261  15.325  0.6745  0.0459 -0.6427
  503TIP3    H123000   1.166   4.324  15.360 -0.1616  0.0177  1.0262
  503TIP3    H223001   1.127   4.177  15.365  1.1711 -0.5139 -2.0670
  504TIP3   OH223002   2.029   5.069   3.188  0.2976  0.3082 -0.7721
  504TIP3    H123003   2.079   4.987   3.193  0.8993  0.7226  0.4235
  504TIP3    H223004   2.006   5.077   3.096  1.2616 -0.6084 -1.1189
  505TIP3   OH223005   3.069   4.730   4.822  0.1672  0.2793 -0.1855
  505TIP3    H123006   3.151   4.699   4.859  0.5557  2.5318  1.0093
  505TIP3    H223007   3.089   4.749   4.731  0.9712  0.7503  0.0780
  506TIP3   OH223008   1.055   5.284   4.354 -0.5175  0.1089 -0.2870
  506TIP3    H123009   1.145   5.312   4.368 -1.2379  1.8193  1.4122
  506TIP3    H223010   1.030   5.242   4.437 -0.9683 -1.3684 -1.1299
  507TIP3   OH223011   2.181   5.845   2.349  0.0200  0.3017  0.2124
  507TIP3    H123012   2.139   5.816   2.268  0.2162 -0.2758  0.3150
  507TIP3    H223013   2.274   5.828   2.335 -0.0151 -0.4444  0.8206
  508TIP3   OH223014   0.909   4.897   1.794  0.3352 -0.4049 -0.2075
  508TIP3    H123015   0.915   4.827   1.730 -1.1670  0.4334 -1.3324
  508TIP3    H223016   0.954   4.971   1.753 -0.4623  0.0776 -0.2485
  509TIP3   OH223017   0.296   4.540  14.266 -0.6033 -1.0208  0.5625
  509TIP3    H123018   0.258   4.458  14.235 -0.7530 -0.9003  0.4315
  509TIP3    H223019   0.390   4.521  14.271 -0.5275 -0.9220 -0.3455
  510TIP3   OH223020   1.475   1.812  15.556 -0.0757  0.3553  0.0493
  510TIP3    H123021   1.469   1.887  15.615  0.2735  0.6487 -0.2813
  510TIP3    H223022   1.384   1.793  15.531 -0.5066 -1.3014  2.5603
  511TIP3   OH223023   3.414   5.413  17.174 -0.0440 -0.4635 -0.4715
  511TIP3    H123024   3.405   5.434  17.081 -0.1825 -0.0111 -0.3546
  511TIP3    H223025   3.347   5.347  17.190  1.5125 -2.3678 -1.2458
  512TIP3   OH223026   6.207   4.300  15.426 -0.5371 -0.2626  0.0297
  512TIP3    H123027   6.286   4.297  15.372 -1.4834 -0.3390 -1.4109
  512TIP3    H223028   6.162   4.217  15.408 -0.4894 -0.6533  1.5870
  513TIP3   OH223029   0.578   0.455  15.246  0.5413 -0.2709  0.1808
  513TIP3    H123030   0.554   0.386  15.185  0.3912  1.1327 -1.4177
  513TIP3    H223031   0.674   0.459  15.241  0.4452  1.8587 -2.4418
  514TIP3   OH223032   3.588   0.465   4.698 -0.2099 -0.4479  0.5765
  514TIP3    H123033   3.663   0.515   4.666 -1.5071  1.2721  0.1215
  514TIP3    H223034   3.625   0.379   4.719  1.6020 -0.1392 -1.0341
  515TIP3   OH223035   6.004   1.639   1.381  0.2627 -0.2575 -0.2674
  515TIP3    H123036   6.032   1.550   1.400  1.2414 -0.3498 -1.9786
  515TIP3    H223037   6.016   1.686   1.464 -0.0602 -1.6414  0.5950
  516TIP3   OH223038   6.629   2.391   5.745  0.3453  0.1468  0.4931
  516TIP3    H123039   6.562   2.344   5.795  1.1725 -0.0705  1.4455
  516TIP3    H223040   6.710   2.342   5.762  0.7350  0.3339 -0.7163
  517TIP3   OH223041   3.212   6.739   2.748 -0.6058 -0.2682 -0.1538
  517TIP3    H123042   3.197   6.648   2.722 -1.0710  0.1269 -1.2695
  517TIP3    H223043   3.127   6.770   2.780 -0.8336  0.2394 -1.2209
  518TIP3   OH223044   3.633   3.718  12.877 -0.0525 -0.0715 -0.3097
  518TIP3    H123045   3.619   3.666  12.798 -1.8549  2.5801 -1.8871
  518TIP3    H223046   3.642   3.808  12.845  0.2256  0.9789  2.4573
  519TIP3   OH223047   2.837   3.898   3.762 -0.0652  0.8108 -0.5777
  519TIP3    H123048   2.768   3.835   3.780 -0.5913  1.2818 -0.9106
  519TIP3    H223049   2.824   3.968   3.826 -0.2360  1.1591 -0.9869
  520TIP3   OH223050   1.293   5.103   3.069  0.2379 -0.3883 -0.6723
  520TIP3    H123051   1.353   5.137   3.136 -0.0944  1.2364 -1.1616
  520TIP3    H223052   1.325   5.139   2.987  0.3183 -1.9354 -1.3508
  521TIP3   OH223053   5.379   1.399   5.427 -0.1797  0.0521 -0.0046
  521TIP3    H123054   5.418   1.466   5.372 -0.2842  1.4742  1.5777
  521TIP3    H223055   5.447   1.378   5.491  0.6067 -2.8561 -1.5818
  522TIP3   OH223056   4.055   3.767   4.147  0.1226  0.0068 -0.3167
  522TIP3    H123057   4.057   3.862   4.156 -0.5881 -0.1275  1.6764
  522TIP3    H223058   3.986   3.750   4.083 -0.5358  0.7986  0.1717
  523TIP3   OH223059   5.516   3.056   5.106 -0.4493  0.5606 -0.3761
  523TIP3    H123060   5.514   2.965   5.077 -1.0536  0.3778  0.2208
  523TIP3    H223061   5.587   3.060   5.170 -1.3252  0.1807  0.6361
  524TIP3   OH223062   5.127   0.930  12.149  0.3980  0.0679 -0.8538
  524TIP3    H123063   5.125   1.018  12.112 -3.2568  1.1453  1.3806
  524TIP3    H223064   5.059   0.883  12.102  1.9882 -1.5214 -1.6863
  525TIP3   OH223065   3.931   1.652   1.417  0.3819  0.6958  0.2176
  525TIP3    H123066   4.013   1.608   1.397  0.0394 -0.5783  1.4322
  525TIP3    H223067   3.889   1.666   1.333  0.2125 -1.9322 -0.2026
  526TIP3   OH223068   2.338   0.755  12.275  0.2763 -0.1095 -0.2006
  526TIP3    H123069   2.411   0.705  12.310 -0.3982 -0.9029  0.0983
  526TIP3    H223070   2.263   0.731  12.330 -0.0371  1.3422  0.0499
  527TIP3   OH223071   5.434   4.455   2.153  0.1696  0.1776  0.6982
  527TIP3    H123072   5.485   4.411   2.221  1.1156 -2.1526 -1.3815
  527TIP3    H223073   5.495   4.516   2.113 -0.1958  1.0558  1.4337
  528TIP3   OH223074   6.265   5.292   1.124  0.2272  0.0985  0.6949
  528TIP3    H123075   6.219   5.305   1.207 -0.3533 -0.1965  0.4217
  528TIP3    H223076   6.240   5.368   1.071  0.9965  0.5501  0.9581
  529TIP3   OH223077   5.299   0.854  14.283 -0.5407  0.3240 -0.2425
  529TIP3    H123078   5.280   0.942  14.316 -0.2964  0.5590 -0.7149
  529TIP3    H223079   5.360   0.869  14.210  0.2292 -0.3034  0.2694
  530TIP3   OH223080   3.089   2.534   2.763  0.6557  0.3319 -0.7009
  530TIP3    H123081   3.152   2.574   2.703 -1.1756  0.3498 -2.7636
  530TIP3    H223082   3.003   2.562   2.730 -0.5255 -1.6231  0.4780
  531TIP3   OH223083   5.717   1.190  17.296  0.1563  0.2885 -0.0645
  531TIP3    H123084   5.787   1.202  17.359  0.3782  0.5682 -0.3635
  531TIP3    H223085   5.733   1.256  17.229 -0.0606 -0.0248 -0.4283
  532TIP3   OH223086   2.979   3.699   3.092 -0.4974  0.4814 -0.0065
  532TIP3    H123087   3.056   3.748   3.064  0.9157 -1.6613 -0.0720
  532TIP3    H223088   2.969   3.721   3.185  0.3162  0.6326  0.0486
  533TIP3   OH223089   1.694   5.415  11.504 -0.2102 -0.6916 -0.2104
  533TIP3    H123090   1.713   5.325  11.477  0.9865 -0.5288  0.0137
  533TIP3    H223091   1.745   5.469  11.443  2.1861 -0.3012  1.9817
  534TIP3   OH223092   6.640   3.542   5.468 -0.0604  0.5213  0.2550
  534TIP3    H123093   6.692   3.475   5.510 -1.1350 -0.2419  0.4043
  534TIP3    H223094   6.622   3.606   5.537  1.3618  1.2477 -0.0016
  535TIP3   OH223095   4.875   5.514   4.202 -0.5973  0.1923  0.3797
  535TIP3    H123096   4.814   5.449   4.235 -1.3990  0.5769 -0.2997
  535TIP3    H223097   4.878   5.499   4.108  0.4551  0.1134  0.4066
  536TIP3   OH223098   1.363   0.794  15.545  0.4923  0.3736  0.2569
  536TIP3    H123099   1.303   0.833  15.609 -0.2523  1.4965 -1.0721
  536TIP3    H223100   1.446   0.841  15.558  0.7887 -0.3901  1.3167
  537TIP3   OH223101   6.748   6.783   3.576  0.4086 -0.4591  0.2363
  537TIP3    H123102   6.829   6.734   3.586 -0.1635 -1.3175  0.7371
  537TIP3    H223103   6.697   6.732   3.513  0.1695 -0.0247  0.0737
  538TIP3   OH223104   6.474   1.401   0.684 -0.1110  0.5235  0.3685
  538TIP3    H123105   6.483   1.428   0.775  1.7889 -0.1457  0.4065
  538TIP3    H223106   6.563   1.384   0.654 -0.7493  0.0609 -1.4210
  539TIP3   OH223107   3.463   1.326  16.083 -0.1474 -0.3967  0.5479
  539TIP3    H123108   3.419   1.404  16.050 -3.1598 -0.9940  2.6458
  539TIP3    H223109   3.518   1.357  16.155  0.8359  0.0594 -0.3817
  540TIP3   OH223110   3.159   5.802   5.733  0.6235  0.4347 -0.1139
  540TIP3    H123111   3.121   5.756   5.809  1.5977 -2.6363 -1.3370
  540TIP3    H223112   3.093   5.868   5.710 -1.3046 -0.8846  1.2919
  541TIP3   OH223113   3.500   2.518   0.292  0.3633 -0.5956  0.4097
  541TIP3    H123114   3.491   2.609   0.319  0.3626 -0.5905  0.3916
  541TIP3    H223115   3.556   2.521   0.215 -2.0913 -0.2906 -1.4961
  542TIP3   OH223116   1.566   3.955   5.452 -0.1869  0.0750 -0.5178
  542TIP3    H123117   1.551   4.013   5.528  1.8491  2.2339 -1.6074
  542TIP3    H223118   1.482   3.912   5.437 -1.1092  0.8464  1.9343
  543TIP3   OH223119   5.858   3.876   3.238  0.3442 -0.2627 -0.3874
  543TIP3    H123120   5.769   3.850   3.263  0.3182 -0.0692 -0.2777
  543TIP3    H223121   5.897   3.797   3.202  0.1109 -0.3377 -0.4769
  544TIP3   OH223122   5.540   2.429   1.732 -0.3732  0.4936 -0.5330
  544TIP3    H123123   5.505   2.500   1.786  2.0202  0.9300  0.5861
  544TIP3    H223124   5.633   2.426   1.754  0.1419 -1.1977 -2.6074
  545TIP3   OH223125   6.467   4.414   1.026 -0.0814  0.2662  0.3762
  545TIP3    H123126   6.396   4.409   0.961 -0.5111  0.9425  0.7804
  545TIP3    H223127   6.480   4.323   1.054 -0.7928  0.1353  0.2972
  546TIP3   OH223128   5.787   4.129   5.226 -0.0288 -0.0849  0.1707
  546TIP3    H123129   5.813   4.096   5.140  1.9726 -0.9262  1.0365
  546TIP3    H223130   5.770   4.223   5.211 -0.7344 -0.4193 -1.3097
  547TIP3   OH223131   1.183   2.291  11.154 -0.0349 -0.2556 -0.1209
  547TIP3    H123132   1.269   2.282  11.112  0.2601 -1.0675  0.6039
  547TIP3    H223133   1.164   2.203  11.187 -1.2338 -0.1254 -0.4132
  548TIP3   OH223134   1.484   6.675   0.702  0.3572 -0.2254  0.1440
  548TIP3    H123135   1.507   6.641   0.615 -0.3688  3.3212 -1.5937
  548TIP3    H223136   1.473   6.596   0.756  0.8225 -2.5942 -2.9302
  549TIP3   OH223137   3.169   1.615   2.812  0.4603  0.7577 -0.7658
  549TIP3    H123138   3.219   1.586   2.889  0.8300  0.2124 -1.2020
  549TIP3    H223139   3.089   1.563   2.814 -0.0981  1.6154 -0.0791
  550TIP3   OH223140   1.903   3.043  10.926  0.2771 -0.3851 -0.3158
  550TIP3    H123141   1.827   2.985  10.924 -0.3810  0.4019  0.7093
  550TIP3    H223142   1.867   3.132  10.923  1.1733 -0.0015 -0.3269
  551TIP3   OH223143   4.851   3.161  17.263 -0.7639  0.0773 -0.2775
  551TIP3    H123144   4.814   3.227  17.205 -0.5418  0.5030  0.0562
  551TIP3    H223145   4.775   3.118  17.302 -0.9097  0.1276 -0.5025
  552TIP3   OH223146   6.814   0.089  14.447  0.3701 -0.1374  0.5835
  552TIP3    H123147   6.730   0.134  14.435 -0.4112 -1.7585 -0.3461
  552TIP3    H223148   6.791  -0.003  14.457  2.1192 -0.8781 -1.4467
  553TIP3   OH223149   4.477   0.234  15.169  0.2033  0.1434  0.6700
  553TIP3    H123150   4.549   0.287  15.133  1.7040 -2.0862  0.1723
  553TIP3    H223151   4.431   0.201  15.092  1.2088 -1.7120  0.7915
  554TIP3   OH223152   3.756   4.034  13.079  0.2954  0.6646  0.3186
  554TIP3    H123153   3.739   3.953  13.126  0.2895  0.0360 -0.7583
  554TIP3    H223154   3.852   4.042  13.079  0.5423 -1.1172 -2.4488
  555TIP3   OH223155   1.265   5.006   6.573 -0.2826 -0.1605 -0.0511
  555TIP3    H123156   1.178   5.003   6.535 -0.6955 -2.2940  0.8895
  555TIP3    H223157   1.257   4.958   6.656  1.3232  1.4039  1.1063
  556TIP3   OH223158   6.693   1.027  12.824  0.3262 -0.4977 -0.2860
  556TIP3    H123159   6.786   1.022  12.848 -0.0117 -2.8007  0.8567
  556TIP3    H223160   6.679   0.950  12.768 -1.0937 -0.7102  0.3313
  557TIP3   OH223161   2.448   2.748  10.891 -0.3610  0.0109 -0.6317
  557TIP3    H123162   2.418   2.694  10.964 -1.1273  2.2408  0.8442
  557TIP3    H223163   2.368   2.779  10.849 -0.2488  3.1456  1.1170
  558TIP3   OH223164   1.233   4.604  12.143  0.4186  0.7572 -0.3980
  558TIP3    H123165   1.305   4.542  12.133 -0.4340 -0.3278 -0.0413
  558TIP3    H223166   1.272   4.682  12.182  1.0557 -0.5560  1.7445
  559TIP3   OH223167   1.352   1.169  16.447 -0.2067 -0.1311  0.2057
  559TIP3    H123168   1.407   1.121  16.510 -1.6801 -1.7911  0.2916
  559TIP3    H223169   1.271   1.120  16.443 -0.0031 -0.4797 -3.4698
  560TIP3   OH223170   3.508   0.315  11.454  0.0012 -0.5054 -0.2126
  560TIP3    H123171   3.478   0.244  11.397  0.8637 -1.8999  1.0134
  560TIP3    H223172   3.527   0.387  11.394  0.0887 -1.6415 -1.6116
  561TIP3   OH223173   2.101   2.547  13.494  0.0537  0.2757 -0.3364
  561TIP3    H123174   2.127   2.517  13.407  1.0825 -1.5117  0.5304
  561TIP3    H223175   2.110   2.642  13.491  2.2219  0.0791 -1.5342
  562TIP3   OH223176   5.811   0.723   5.367 -0.2261 -0.0769  0.3508
  562TIP3    H123177   5.836   0.673   5.445  1.0484  1.1463  0.7462
  562TIP3    H223178   5.730   0.767   5.392  1.0168  1.6174  1.6220
  563TIP3   OH223179   5.798   5.821  16.660 -0.1753 -0.2186  0.1681
  563TIP3    H123180   5.804   5.914  16.684  2.4235 -0.5434  1.0890
  563TIP3    H223181   5.711   5.813  16.620 -1.6292  2.0216  2.4962
  564TIP3   OH223182   3.002   2.011  12.725 -0.4261 -0.3011  0.1679
  564TIP3    H123183   3.002   1.927  12.771  0.2480  0.0123  0.7523
  564TIP3    H223184   3.015   2.077  12.794  1.3418  0.1305 -0.5244
  565TIP3   OH223185   6.424   4.240   0.636  0.7884 -0.5071 -0.4877
  565TIP3    H123186   6.403   4.249   0.542  1.1925  0.1200 -0.5228
  565TIP3    H223187   6.359   4.294   0.680  1.2096 -0.0036 -0.4761
  566TIP3   OH223188   2.360   2.488  13.781  0.1834  1.0162 -0.2198
  566TIP3    H123189   2.273   2.525  13.771  0.0186  0.3119 -1.5906
  566TIP3    H223190   2.401   2.497  13.695  0.8158 -0.2414 -0.0830
  567TIP3   OH223191   5.048   2.126   6.717  0.1418 -0.3339 -0.1111
  567TIP3    H123192   5.138   2.099   6.730 -0.2294 -3.2499 -2.3298
  567TIP3    H223193   4.996   2.048   6.737 -2.0032  1.4102  1.6509
  568TIP3   OH223194   6.220   0.482   5.647  0.1311  0.2025  0.2059
  568TIP3    H123195   6.286   0.550   5.637 -0.1757  0.4670 -0.0121
  568TIP3    H223196   6.270   0.400   5.647  0.8528  0.5064  3.3926
  569TIP3   OH223197   1.830   1.204   5.759 -0.0973  0.1858  0.0584
  569TIP3    H123198   1.878   1.283   5.734  1.4496 -0.9561 -0.7539
  569TIP3    H223199   1.813   1.159   5.676  0.4185 -1.0876  0.6204
  570TIP3   OH223200   4.748   4.900   5.431  0.1116  0.4809  0.1748
  570TIP3    H123201   4.820   4.895   5.494 -0.6602 -0.2466  1.0336
  570TIP3    H223202   4.721   4.809   5.419  0.2996  0.6037 -1.2956
  571TIP3   OH223203   5.151   4.048   4.750 -0.1623 -0.4774  0.3824
  571TIP3    H123204   5.161   4.132   4.704 -1.2135 -0.5037  0.0939
  571TIP3    H223205   5.152   4.071   4.843  0.2172 -0.2273  0.3203
  572TIP3   OH223206   4.156   5.973  17.286  0.3099 -0.0919 -0.3141
  572TIP3    H123207   4.085   5.943  17.342 -0.1592  3.2715  1.1421
  572TIP3    H223208   4.206   6.034  17.341  2.2914  0.2552 -2.3453
  573TIP3   OH223209   1.545   3.236  11.539  0.2868 -0.4903  0.1564
  573TIP3    H123210   1.532   3.166  11.603  0.4297 -0.5431  0.1285
  573TIP3    H223211   1.540   3.192  11.454 -1.9194 -0.1209  0.0317
  574TIP3   OH223212   2.624   4.113   4.202  0.1251 -0.1343 -0.2212
  574TIP3    H123213   2.584   4.041   4.250 -0.1745 -0.6980 -1.3009
  574TIP3    H223214   2.675   4.160   4.268 -2.0730  0.4784  1.1569
  575TIP3   OH223215   5.923   2.425   3.702  0.2809  0.1345 -0.4819
  575TIP3    H123216   5.915   2.482   3.625 -0.9172 -1.2434 -1.4333
  575TIP3    H223217   6.016   2.425   3.722  0.3692  2.1564 -0.6335
  576TIP3   OH223218   5.841   1.798   5.363  0.2996  0.1992 -0.0878
  576TIP3    H123219   5.836   1.703   5.369  0.9874  0.2054  0.8690
  576TIP3    H223220   5.933   1.819   5.383  0.0496  1.0854  0.1928
  577TIP3   OH223221   3.425   4.799   4.464  0.2850 -0.1100 -0.1886
  577TIP3    H123222   3.360   4.870   4.463 -0.1720 -0.5223 -0.2710
  577TIP3    H223223   3.496   4.833   4.518 -0.7405 -0.2867  1.3292
  578TIP3   OH223224   4.657   2.085  12.324  0.0806 -0.4514  0.5742
  578TIP3    H123225   4.587   2.071  12.388  0.2789  0.7880  1.0936
  578TIP3    H223226   4.636   2.026  12.252 -2.2339  0.7911  0.1164
  579TIP3   OH223227   0.792   1.755   5.688  0.9669  0.1274 -0.4315
  579TIP3    H123228   0.791   1.846   5.720  0.3994 -0.2888  0.8110
  579TIP3    H223229   0.734   1.756   5.612 -1.0974  0.3553  1.0346
  580TIP3   OH223230   6.783   2.133   5.234  0.1166 -0.1821  0.2867
  580TIP3    H123231   6.797   2.206   5.294  1.0524  1.3366 -1.6600
  580TIP3    H223232   6.801   2.169   5.148 -1.0919 -2.2936 -0.9346
  581TIP3   OH223233   0.911   3.327   6.182  0.2282 -0.1437  0.3871
  581TIP3    H123234   0.963   3.284   6.251  0.0053 -0.4410  0.3715
  581TIP3    H223235   0.844   3.263   6.159  0.2693 -0.0246 -0.0728
  582TIP3   OH223236   0.053   1.360   4.053 -0.3291 -0.0330 -0.1735
  582TIP3    H123237   0.033   1.360   4.146  2.5933 -1.3803  0.5526
  582TIP3    H223238   0.058   1.268   4.029 -2.1890  0.2707 -2.0222
  583TIP3   OH223239   3.551   5.318  14.650 -0.0398  0.4488 -0.5328
  583TIP3    H123240   3.544   5.413  14.639  1.9888  0.6199 -0.7396
  583TIP3    H223241   3.465   5.291  14.681 -1.7151  1.8864 -3.5323
  584TIP3   OH223242   3.114   4.870  14.024  0.2820  0.0225 -0.1199
  584TIP3    H123243   3.089   4.926  13.951  1.5300 -0.3071 -0.8266
  584TIP3    H223244   3.210   4.874  14.026  0.2706  1.3829  2.5652
  585TIP3   OH223245   3.302   4.776   0.190  0.2404  0.3414 -0.0913
  585TIP3    H123246   3.317   4.855   0.243 -0.1774 -0.3118  1.0138
  585TIP3    H223247   3.387   4.760   0.148  0.1705  1.7311 -0.8595
  586TIP3   OH223248   4.020   5.849  14.812  0.3970 -0.0442 -0.3387
  586TIP3    H123249   4.025   5.859  14.907 -1.1914 -0.4613 -0.1802
  586TIP3    H223250   3.968   5.925  14.783  0.9617  0.1388 -0.8993
  587TIP3   OH223251   1.945   2.952   3.268  0.1815 -0.5275  0.1532
  587TIP3    H123252   1.918   2.864   3.238 -1.9977 -0.5487  1.9427
  587TIP3    H223253   1.888   3.012   3.219  0.2520 -0.2313  0.4342
  588TIP3   OH223254   0.747   3.661   5.450 -0.2199  0.6549 -0.0931
  588TIP3    H123255   0.784   3.605   5.382 -1.5509 -0.1263 -0.2127
  588TIP3    H223256   0.814   3.661   5.519  0.3291 -0.0816 -0.6070
  589TIP3   OH223257   0.090   6.295  13.562 -0.2182 -0.1387  0.2920
  589TIP3    H123258   0.108   6.202  13.548  0.5673  0.1318 -0.6210
  589TIP3    H223259   0.014   6.297  13.620 -0.7467 -1.3487 -0.3413
  590TIP3   OH223260   5.122   4.429  15.077  0.2481  0.0219 -0.1431
  590TIP3    H123261   5.195   4.411  15.136 -0.8084 -1.2512  0.8513
  590TIP3    H223262   5.108   4.346  15.031  0.0963  0.5683 -1.1045
  591TIP3   OH223263   5.417   0.308   2.255  0.3970  0.2754 -0.0326
  591TIP3    H123264   5.395   0.343   2.342  0.3471  0.5161 -0.1411
  591TIP3    H223265   5.369   0.225   2.250 -0.8087  0.9657 -0.4066
  592TIP3   OH223266   0.212   5.574  13.687  0.1485 -0.3493 -0.1308
  592TIP3    H123267   0.198   5.486  13.721  0.6753  0.0769  1.2710
  592TIP3    H223268   0.296   5.600  13.724 -0.5393  1.1647  0.4442
  593TIP3   OH223269   3.281   5.865  14.677  0.4164 -0.1887  0.2410
  593TIP3    H123270   3.302   5.857  14.770  1.0775  0.8420  0.1974
  593TIP3    H223271   3.364   5.888  14.635 -0.1258  0.6372 -0.4187
  594TIP3   OH223272   2.568   6.651   0.039 -0.8641 -0.2933  0.1806
  594TIP3    H123273   2.602   6.676  -0.047  1.2883 -1.8893  0.4915
  594TIP3    H223274   2.620   6.703   0.101 -1.1069 -0.5150  0.5718
  595TIP3   OH223275   1.224   0.249   3.684  0.1495  0.3162 -0.3967
  595TIP3    H123276   1.312   0.229   3.652  0.3207  1.6222 -0.8214
  595TIP3    H223277   1.238   0.297   3.766 -0.2040 -0.2628  0.0121
  596TIP3   OH223278   3.738   6.143  16.088  0.0962  0.0568  0.0895
  596TIP3    H123279   3.749   6.182  16.001 -0.3533  2.6885  1.1041
  596TIP3    H223280   3.643   6.130  16.096  0.2417 -1.2547 -0.2230
  597TIP3   OH223281   0.840   6.758   4.707 -0.4738 -0.5357  0.5522
  597TIP3    H123282   0.788   6.839   4.707  1.0145  0.4816  1.6306
  597TIP3    H223283   0.909   6.774   4.771  1.4656 -1.6207 -1.1484
  598TIP3   OH223284   6.104   5.423  12.418  0.3179 -0.7554 -0.0938
  598TIP3    H123285   6.194   5.427  12.385  0.1341 -2.8949 -0.9759
  598TIP3    H223286   6.053   5.385  12.346 -1.2472  0.0764  0.5228
  599TIP3   OH223287   6.616   6.631   4.838  0.0182 -0.0143 -0.0377
  599TIP3    H123288   6.540   6.616   4.783  0.3497 -1.3988 -0.1724
  599TIP3    H223289   6.642   6.543   4.867  2.7549  0.1383 -1.6521
  600TIP3   OH223290   3.800   3.567   4.125  0.0065  0.3655  0.1953
  600TIP3    H123291   3.811   3.553   4.219  0.8437  1.1005  0.2223
  600TIP3    H223292   3.748   3.648   4.119 -1.1803 -0.3818  0.0189
  601TIP3   OH223293   0.905   1.106   4.644  0.1979 -0.7904 -0.9672
  601TIP3    H123294   0.922   1.196   4.670 -0.0946 -1.2316  0.9671
  601TIP3    H223295   0.881   1.111   4.552 -1.7637  1.3634 -0.4371
  602TIP3   OH223296   2.302   3.986   3.649 -0.0858  0.0491 -0.1868
  602TIP3    H123297   2.262   3.923   3.588  0.8323  0.8468 -1.6843
  602TIP3    H223298   2.228   4.035   3.686 -0.6072  0.7665 -2.0660
  603TIP3   OH223299   3.286   4.978   5.856  0.6348 -0.0144  0.0896
  603TIP3    H123300   3.201   5.010   5.824  0.0332 -0.1570  1.4739
  603TIP3    H223301   3.310   5.040   5.926  0.1972 -1.6233  1.7483
  604TIP3   OH223302   0.921   4.770   3.453 -0.1481  0.1210  0.1866
  604TIP3    H123303   0.955   4.846   3.406  0.2150 -0.5969 -0.7336
  604TIP3    H223304   0.937   4.696   3.394 -1.8491 -0.4708  0.4163
  605TIP3   OH223305   5.153   3.742  16.600  0.4867 -0.1663 -0.1117
  605TIP3    H123306   5.094   3.684  16.648 -0.1733  0.5129 -0.0940
  605TIP3    H223307   5.100   3.778  16.529  0.5431  1.3066  0.5558
  606TIP3   OH223308   5.072   4.342  13.153  0.1975  0.0231  0.2377
  606TIP3    H123309   4.991   4.356  13.202  0.4427 -1.2590  1.0599
  606TIP3    H223310   5.097   4.429  13.124 -1.4115  0.4636  0.0636
  607TIP3   OH223311   4.541   6.723   2.245 -0.0873 -0.0669 -0.4574
  607TIP3    H123312   4.457   6.728   2.199 -1.0514 -1.9058  0.9542
  607TIP3    H223313   4.543   6.801   2.301 -1.1091 -0.2606 -0.1342
  608TIP3   OH223314   2.410   4.090   1.837  0.0064  0.3252  0.0229
  608TIP3    H123315   2.331   4.096   1.783  0.4801  0.2892 -0.6902
  608TIP3    H223316   2.465   4.028   1.791  1.3695  1.9845 -0.6935
  609TIP3   OH223317   4.640   1.074  11.350 -0.4790 -0.0383 -0.2922
  609TIP3    H123318   4.633   1.159  11.307  1.4373  1.0140  1.2950
  609TIP3    H223319   4.655   1.012  11.278 -1.4930  0.9873 -1.4382
  610TIP3   OH223320   4.867   1.055   2.935  0.0032 -0.3058 -0.2713
  610TIP3    H123321   4.826   0.974   2.963 -0.9068  0.1383 -0.2601
  610TIP3    H223322   4.858   1.055   2.840 -0.3033 -0.0749 -0.2464
  611TIP3   OH223323   0.046   5.258   5.225  0.1782  0.4694  0.6521
  611TIP3    H123324  -0.026   5.303   5.182  0.1274 -0.0064  0.2414
  611TIP3    H223325   0.076   5.193   5.162  0.5899  0.2728  1.0428
  612TIP3   OH223326   0.202   1.958  12.182 -0.0785  0.3539  0.1101
  612TIP3    H123327   0.289   1.918  12.190  0.6897  1.2804 -2.4332
  612TIP3    H223328   0.148   1.889  12.144 -0.2233  0.0661  0.8271
  613TIP3   OH223329   1.254   4.637  13.719 -0.0259 -0.0957 -0.3667
  613TIP3    H123330   1.162   4.617  13.698 -0.2138  0.7453 -0.4078
  613TIP3    H223331   1.273   4.586  13.797 -0.8751  0.5343  0.2714
  614TIP3   OH223332   6.117   4.438  17.012  0.1935 -0.4702 -0.1903
  614TIP3    H123333   6.208   4.415  17.032  0.1064 -0.6007  0.0575
  614TIP3    H223334   6.094   4.502  17.078 -0.3348 -1.4489  0.6011
  615TIP3   OH223335   3.757   1.970  11.846 -0.3618  0.0281 -0.5380
  615TIP3    H123336   3.850   1.993  11.840 -0.2356 -0.8844 -3.3179
  615TIP3    H223337   3.713   2.053  11.866  0.9185  0.7447 -0.5820
  616TIP3   OH223338   4.842   3.248   5.874 -0.3794  0.3227  0.4729
  616TIP3    H123339   4.863   3.317   5.812 -0.0711 -0.9685 -0.9335
  616TIP3    H223340   4.916   3.244   5.934  1.3561 -1.1123 -1.6269
  617TIP3   OH223341   0.230   0.140   1.508 -0.1193 -0.0244 -0.2155
  617TIP3    H123342   0.218   0.066   1.448 -1.3527 -0.2279  0.2455
  617TIP3    H223343   0.274   0.207   1.455  2.0660 -1.4499 -0.3400
  618TIP3   OH223344   4.134   2.686  13.027 -0.1939  0.3642  0.4913
  618TIP3    H123345   4.051   2.650  13.056 -0.1780  0.8002  1.1031
  618TIP3    H223346   4.196   2.664  13.097 -0.2087  1.6473  0.9288
  619TIP3   OH223347   6.425   3.079   4.767  0.3348  0.4495 -0.4579
  619TIP3    H123348   6.463   3.020   4.702 -0.4229  0.9961 -1.4245
  619TIP3    H223349   6.454   3.166   4.740 -0.3667  0.7273 -0.3405
  620TIP3   OH223350   3.093   4.121  15.778  0.0003 -0.3823  0.3707
  620TIP3    H123351   3.173   4.155  15.819 -0.8735  2.5552 -0.0665
  620TIP3    H223352   3.107   4.027  15.771  2.2734 -0.3431  2.7634
  621TIP3   OH223353   3.284   3.977  13.466 -0.2677  0.0423  0.1835
  621TIP3    H123354   3.261   3.919  13.539 -0.5313  0.2722  0.2860
  621TIP3    H223355   3.259   3.929  13.388  2.3592 -1.3197  0.0656
  622TIP3   OH223356   3.962   6.489  13.846  0.3720 -0.0049 -0.2128
  622TIP3    H123357   3.867   6.499  13.853  0.5536  0.9169  1.4242
  622TIP3    H223358   3.975   6.448  13.761 -1.3020  2.9322 -2.0687
  623TIP3   OH223359   2.940   4.202  14.073 -0.5688  0.2994 -0.3315
  623TIP3    H123360   2.883   4.238  14.141 -0.2578 -0.5871  0.4150
  623TIP3    H223361   3.028   4.228  14.099 -0.5634  1.3518 -1.2894
  624TIP3   OH223362   3.496   3.131   0.484  0.4007  0.2653 -0.2629
  624TIP3    H123363   3.438   3.078   0.538  0.5325  1.2126  0.8476
  624TIP3    H223364   3.539   3.191   0.546 -0.1638  2.0587 -1.5075
  625TIP3   OH223365   4.829   2.732   0.269 -0.1433  0.1235 -0.1748
  625TIP3    H123366   4.919   2.728   0.236 -0.2727 -0.7373 -0.4665
  625TIP3    H223367   4.838   2.755   0.361  0.4287 -0.6212 -0.0348
  626TIP3   OH223368   6.413   5.142   0.007 -0.1111 -0.3632 -0.2882
  626TIP3    H123369   6.362   5.179  -0.065 -0.8867 -1.5698 -0.3779
  626TIP3    H223370   6.394   5.049   0.005 -0.6478 -0.3615  1.8450
  627TIP3   OH223371   0.109   4.339   1.625 -0.0631  0.6676  0.5871
  627TIP3    H123372   0.146   4.419   1.587 -0.8507  1.0430  0.5830
  627TIP3    H223373   0.016   4.358   1.634 -0.2967 -0.3353  0.3963
  628TIP3   OH223374   2.905   5.690  16.635 -0.0884  0.1047  0.0559
  628TIP3    H123375   2.850   5.768  16.650  1.8198  1.2433  1.5432
  628TIP3    H223376   2.979   5.722  16.584 -0.8828 -1.4902 -2.2445
  629TIP3   OH223377   1.201   5.463  16.675 -0.1739 -0.2218  0.4097
  629TIP3    H123378   1.292   5.439  16.691 -0.0962  0.9461  1.9321
  629TIP3    H223379   1.174   5.409  16.600  1.9475 -0.1392 -0.4691
  630TIP3   OH223380   2.089   1.316   2.215  0.3131 -0.3909 -0.7045
  630TIP3    H123381   2.178   1.318   2.249  0.8635 -0.2881 -2.0769
  630TIP3    H223382   2.067   1.408   2.200  0.1489 -0.4420 -0.7800
  631TIP3   OH223383   1.712   0.236  12.984 -0.0425  0.0680 -0.0504
  631TIP3    H123384   1.724   0.308  13.046 -0.8216  0.0936  0.0742
  631TIP3    H223385   1.621   0.243  12.955 -0.4754 -1.5371  0.7970
  632TIP3   OH223386   3.254   1.540   2.154  0.2798  0.3540  0.0210
  632TIP3    H123387   3.233   1.447   2.162  1.6213  0.1868  2.3578
  632TIP3    H223388   3.265   1.553   2.060 -2.3199 -1.2385 -0.6268
  633TIP3   OH223389   2.392   3.848  17.019 -0.6930 -0.4410 -0.6675
  633TIP3    H123390   2.380   3.898  17.099  2.8110 -0.9545  0.3607
  633TIP3    H223391   2.464   3.893  16.973  0.6115 -2.8002 -1.1109
  634TIP3   OH223392   3.729   6.013   4.987 -0.0051  0.1510  0.9370
  634TIP3    H123393   3.802   6.062   5.024 -0.7844  0.9702  1.4094
  634TIP3    H223394   3.766   5.927   4.965  0.8155  0.1375  2.2962
  635TIP3   OH223395   2.937   0.948  10.800  0.2346  0.3396 -0.1406
  635TIP3    H123396   2.865   0.958  10.738 -0.1984 -1.0313  0.0905
  635TIP3    H223397   3.015   0.937  10.745 -0.1149 -0.6590 -0.4659
  636TIP3   OH223398   5.789   0.331   1.634 -0.3329 -0.1049 -0.8246
  636TIP3    H123399   5.828   0.287   1.559 -0.4250 -2.0009  0.1814
  636TIP3    H223400   5.718   0.273   1.662  0.3054  0.0569  1.2984
  637TIP3   OH223401   6.713   1.150  15.890  0.5649 -0.2619 -0.0314
  637TIP3    H123402   6.790   1.094  15.881  2.4621  2.4027 -1.6957
  637TIP3    H223403   6.744   1.227  15.939 -0.7718  1.2647 -1.4489
  638TIP3   OH223404   4.299   3.157  15.040  0.2870 -0.2631 -0.0084
  638TIP3    H123405   4.351   3.095  15.091  0.4575 -0.6752 -0.6727
  638TIP3    H223406   4.219   3.109  15.019  0.2361 -0.1101 -0.1646
  639TIP3   OH223407   1.932   4.812   5.781 -0.3745  0.9253  0.3681
  639TIP3    H123408   1.942   4.746   5.713 -0.1597  0.9473  0.3774
  639TIP3    H223409   1.851   4.788   5.826 -0.4532  0.8406  0.1833
  640TIP3   OH223410   5.741   1.149  12.577  0.3184 -0.0952 -0.4273
  640TIP3    H123411   5.773   1.059  12.585 -0.3009 -0.2637  0.2650
  640TIP3    H223412   5.661   1.151  12.630  0.4390  0.9222 -0.2619
  641TIP3   OH223413   4.975   4.656   6.224  0.1124  0.0677 -0.5695
  641TIP3    H123414   4.946   4.734   6.271  0.6400 -0.6152  0.9793
  641TIP3    H223415   4.999   4.594   6.293  0.9944 -0.9848 -1.7606
  642TIP3   OH223416   4.676   3.659   2.583  0.4985 -0.0997 -0.3507
  642TIP3    H123417   4.679   3.575   2.536  0.3377  1.1963 -2.8489
  642TIP3    H223418   4.582   3.677   2.595  0.4769  0.3911 -1.1709
  643TIP3   OH223419   6.105   1.099   3.986  0.7644 -0.1213  0.1920
  643TIP3    H123420   6.054   1.035   3.936  3.1590 -1.1676 -1.0504
  643TIP3    H223421   6.188   1.106   3.939  0.8874  3.4564  0.6501
  644TIP3   OH223422   4.913   0.050   3.393  0.7049  0.4083  0.2177
  644TIP3    H123423   4.915   0.045   3.489 -0.1971  0.2829  0.2434
  644TIP3    H223424   4.865  -0.029   3.366 -0.0256  0.9933 -0.2650
  645TIP3   OH223425   1.459   2.743  16.314 -0.2092 -0.1840 -0.2077
  645TIP3    H123426   1.396   2.742  16.242  0.0156 -0.5585 -0.4032
  645TIP3    H223427   1.425   2.679  16.377 -0.4490  0.2022  0.0625
  646TIP3   OH223428   0.976   1.478  13.695  0.3178  0.0888 -0.2014
  646TIP3    H123429   0.918   1.424  13.749  2.0238  0.2502  1.9463
  646TIP3    H223430   1.010   1.419  13.628 -1.1034 -0.3724 -0.5524
  647TIP3   OH223431   6.309   2.934  16.674  0.1005  0.1904  0.2333
  647TIP3    H123432   6.213   2.936  16.670  0.1263  0.7942 -0.3304
  647TIP3    H223433   6.335   2.878  16.601  0.1231 -2.2199  1.9773
  648TIP3   OH223434   1.439   4.129  12.781  0.4912  0.1655  0.4839
  648TIP3    H123435   1.422   4.189  12.708 -0.8027 -1.9372 -1.0515
  648TIP3    H223436   1.410   4.177  12.859 -2.6189  0.7766 -0.8894
  649TIP3   OH223437   3.739   5.508  15.588 -0.1505  0.1185 -0.4033
  649TIP3    H123438   3.800   5.467  15.527  1.3288  0.9217  0.4824
  649TIP3    H223439   3.657   5.460  15.576  0.7674 -1.2918 -1.2906
  650TIP3   OH223440   1.448   6.421   2.678 -0.1987  0.4768  0.1188
  650TIP3    H123441   1.404   6.412   2.763  0.0973  3.2306  0.6483
  650TIP3    H223442   1.541   6.429   2.700 -0.1152  1.1298 -0.4366
  651TIP3   OH223443   5.875   0.017  14.724 -0.2859  0.2175 -0.1014
  651TIP3    H123444   5.848   0.016  14.632 -0.0037 -0.7234 -0.1871
  651TIP3    H223445   5.968  -0.006  14.721 -0.3787 -0.2550  0.4392
  652TIP3   OH223446   2.205   4.681   3.974  0.0600  0.1673 -0.0274
  652TIP3    H123447   2.220   4.674   3.880  1.4979 -0.9518  0.2480
  652TIP3    H223448   2.114   4.711   3.982 -1.0265 -2.3690 -1.7132
  653TIP3   OH223449   5.427   3.690  13.210 -0.0128 -0.1992 -0.3521
  653TIP3    H123450   5.368   3.641  13.153 -0.1214  0.0210 -0.4301
  653TIP3    H223451   5.512   3.648  13.198 -0.6015 -2.1400  1.6319
  654TIP3   OH223452   5.642   4.410   3.097 -0.7686  0.2826 -0.5360
  654TIP3    H123453   5.593   4.347   3.045  0.2463 -1.0860  0.0844
  654TIP3    H223454   5.714   4.359   3.135 -1.1389  1.3284  1.7425
  655TIP3   OH223455   0.525   5.294   5.035 -0.0580 -0.1070 -0.1923
  655TIP3    H123456   0.520   5.356   4.962  0.8323  0.1661 -0.0348
  655TIP3    H223457   0.616   5.265   5.034 -0.1215 -0.3356  0.6240
  656TIP3   OH223458   3.875   2.564   1.359  0.0609 -0.3659 -0.2719
  656TIP3    H123459   3.795   2.608   1.331  0.8633  0.3514 -1.5146
  656TIP3    H223460   3.872   2.567   1.455 -0.7141  0.9091 -0.3171
  657TIP3   OH223461   5.989   6.455  10.513  0.3145 -0.8733  0.0838
  657TIP3    H123462   6.070   6.488  10.476  0.5538  0.3618  1.5975
  657TIP3    H223463   6.017   6.391  10.579  0.1571  0.1946  1.2366
  658TIP3   OH223464   5.319   0.446  13.834  0.1952  0.7469  0.3711
  658TIP3    H123465   5.312   0.392  13.756 -1.7580 -2.6545  2.6230
  658TIP3    H223466   5.237   0.431  13.881  2.2850  0.3584  4.3358
  659TIP3   OH223467   3.891   1.138   2.576 -0.2399  0.0026 -0.0007
  659TIP3    H123468   3.822   1.191   2.616  0.0538  0.3789  0.0124
  659TIP3    H223469   3.962   1.138   2.640  0.1326  0.3931 -0.4039
  660TIP3   OH223470   6.006   0.240  14.369  0.3295 -0.0276 -0.1225
  660TIP3    H123471   6.089   0.253  14.414 -0.9159 -0.0455  2.3611
  660TIP3    H223472   5.949   0.309  14.403 -0.9638 -0.6170 -0.9892
  661TIP3   OH223473   1.261   1.868   4.805  0.2918 -0.0941 -0.8451
  661TIP3    H123474   1.323   1.929   4.846 -1.0479  0.2822  0.7243
  661TIP3    H223475   1.255   1.796   4.867 -0.8644 -0.1085 -0.9663
  662TIP3   OH223476   5.292   2.477  15.514 -0.4668  0.0430 -0.1310
  662TIP3    H123477   5.266   2.392  15.479  0.3904 -0.6629  0.8955
  662TIP3    H223478   5.377   2.495  15.474 -1.1032  0.9287 -1.1480
  663TIP3   OH223479   1.820   2.800   2.203 -0.0249 -0.4419 -0.6359
  663TIP3    H123480   1.810   2.742   2.128 -2.6199 -0.4157 -0.3985
  663TIP3    H223481   1.846   2.884   2.165 -0.3056 -0.6985 -1.4028
  664TIP3   OH223482   1.635   5.863   6.177  0.0611 -0.2421  0.0743
  664TIP3    H123483   1.655   5.949   6.214  0.8016  0.7845 -2.4498
  664TIP3    H223484   1.684   5.801   6.231 -1.4249  0.7147  2.6819
  665TIP3   OH223485   3.334   5.109   2.896 -0.3370 -0.5843 -0.3703
  665TIP3    H123486   3.382   5.050   2.955  0.0941  0.6454  0.5362
  665TIP3    H223487   3.247   5.069   2.889  0.3387 -2.0557 -0.8744
  666TIP3   OH223488   0.008   0.188   3.012 -0.3420 -0.4179 -0.5436
  666TIP3    H123489   0.084   0.146   3.051 -1.3993 -2.5967 -0.7183
  666TIP3    H223490  -0.023   0.248   3.080  1.4323  0.4654 -0.4415
  667TIP3   OH223491   0.968   6.387   5.252 -0.0155  0.4110  0.3266
  667TIP3    H123492   0.943   6.424   5.337 -0.4510 -2.9971  1.8377
  667TIP3    H223493   0.886   6.375   5.205  0.1510  1.5463 -0.2807
  668TIP3   OH223494   4.850   2.643   5.713 -0.3723 -0.0887  0.3742
  668TIP3    H123495   4.789   2.573   5.689 -0.1760 -0.5557  1.1964
  668TIP3    H223496   4.936   2.611   5.683 -0.3217 -0.0706  0.5015
  669TIP3   OH223497   4.790   4.264   2.126  0.4232  0.6261 -0.0535
  669TIP3    H123498   4.841   4.342   2.150  1.3621 -0.1352  0.5139
  669TIP3    H223499   4.736   4.246   2.202  1.0847  0.0420  0.2879
  670TIP3   OH223500   5.197   0.051  13.716 -0.0461  0.0288 -0.2332
  670TIP3    H123501   5.266   0.115  13.698  0.3112  0.1283  1.3384
  670TIP3    H223502   5.240  -0.034  13.706  0.4732  0.0892  1.1313
  671TIP3   OH223503   5.551   1.307   1.682 -0.2649  0.2791  0.1338
  671TIP3    H123504   5.476   1.278   1.631  0.0821  0.8968 -0.7436
  671TIP3    H223505   5.613   1.234   1.678 -0.3997  0.1721  0.0163
  672TIP3   OH223506   5.004   4.050  16.092 -0.1751 -0.0104 -0.0438
  672TIP3    H123507   4.977   4.007  16.011 -0.5410  0.2042 -0.0382
  672TIP3    H223508   4.923   4.059  16.143  0.4462 -2.8464  1.6762
  673TIP3   OH223509   6.388   1.199   0.137 -0.3940  0.5627 -0.2872
  673TIP3    H123510   6.408   1.289   0.162 -0.2041 -0.2841  3.1602
  673TIP3    H223511   6.474   1.156   0.134 -0.6433 -0.0942  1.0676
  674TIP3   OH223512   2.946   1.962   4.876  0.0072 -0.5123  0.4109
  674TIP3    H123513   2.909   1.964   4.788 -1.4774  1.7194  1.0161
  674TIP3    H223514   3.039   1.985   4.863 -0.3804  0.6508 -0.5330
  675TIP3   OH223515   3.684   5.061   1.264  0.3909  0.3544 -0.6690
  675TIP3    H123516   3.697   5.082   1.172 -1.6007 -0.3704 -1.1714
  675TIP3    H223517   3.635   4.979   1.264 -1.4715  1.3465  0.9396
  676TIP3   OH223518   1.912   6.589   2.837 -0.4764  0.1754 -1.0163
  676TIP3    H123519   1.951   6.671   2.809  0.2962 -0.3812 -1.5930
  676TIP3    H223520   1.978   6.522   2.819  0.2327 -0.2375  2.3189
  677TIP3   OH223521   3.814   2.731   2.125 -0.4447 -0.1074 -0.2905
  677TIP3    H123522   3.871   2.803   2.151  0.4508 -1.3861  1.5239
  677TIP3    H223523   3.731   2.748   2.170  0.2355 -0.9112  1.3415
  678TIP3   OH223524   6.430   0.417   1.479 -0.3604 -0.1708  0.3882
  678TIP3    H123525   6.392   0.462   1.555 -0.5850  0.5730 -0.1533
  678TIP3    H223526   6.432   0.484   1.411  0.9800 -0.4861  0.0958
  679TIP3   OH223527   2.021   3.767  14.513  0.2178 -0.3466  0.2789
  679TIP3    H123528   2.064   3.852  14.500 -0.3466 -0.2351 -0.9310
  679TIP3    H223529   2.002   3.736  14.425  0.2135 -1.6386  0.7180
  680TIP3   OH223530   5.135   2.158   2.907 -1.4677 -0.1247 -0.4419
  680TIP3    H123531   5.153   2.072   2.869 -1.5223  0.5202 -1.9975
  680TIP3    H223532   5.113   2.214   2.832 -0.7720  1.4166  0.4504
  681TIP3   OH223533   2.986   2.221   3.823 -0.1804  0.0996  0.0081
  681TIP3    H123534   3.080   2.236   3.823 -0.0891 -0.3654  1.7498
  681TIP3    H223535   2.954   2.276   3.751  1.2740  1.1899  0.1421
  682TIP3   OH223536   5.772   3.218  16.699  0.3014 -0.1981 -0.4610
  682TIP3    H123537   5.705   3.150  16.697 -0.5031  0.5160  0.7524
  682TIP3    H223538   5.755   3.271  16.622 -2.1175  1.3771  1.0314
  683TIP3   OH223539   1.561   2.601  15.159 -0.3849 -0.2095 -0.0872
  683TIP3    H123540   1.625   2.547  15.113 -1.7986 -1.6493 -0.4406
  683TIP3    H223541   1.557   2.564  15.247 -0.8016 -0.2037 -0.1006
  684TIP3   OH223542   2.820   5.513   1.621  0.1669 -0.0260  0.3979
  684TIP3    H123543   2.778   5.590   1.583 -0.0928 -0.8340 -1.0247
  684TIP3    H223544   2.869   5.474   1.549  1.6263 -0.3078  1.4968
  685TIP3   OH223545   2.009   0.459   0.347  0.0115  0.3302 -0.0262
  685TIP3    H123546   1.954   0.412   0.409 -0.5582  0.9800 -0.0248
  685TIP3    H223547   1.955   0.466   0.268  0.9874 -1.1064 -0.8600
  686TIP3   OH223548   4.195   3.887  13.404  0.4346 -0.4209 -0.1350
  686TIP3    H123549   4.136   3.962  13.404  0.0850 -0.6595  1.3168
  686TIP3    H223550   4.243   3.894  13.487  0.1760 -1.9419  0.1730
  687TIP3   OH223551   0.710   1.327   1.112 -0.1772 -0.4349 -0.5353
  687TIP3    H123552   0.672   1.245   1.081 -2.4882  0.6681 -0.8389
  687TIP3    H223553   0.673   1.394   1.054 -0.3875  1.0777  1.2322
  688TIP3   OH223554   1.426   6.655   2.095  0.1560  0.3132  0.1570
  688TIP3    H123555   1.364   6.705   2.042 -0.7246 -0.3717  0.5177
  688TIP3    H223556   1.422   6.567   2.059 -1.2989 -0.4425  2.0150
  689TIP3   OH223557   4.237   5.860   5.399  0.3733  1.0604  0.3488
  689TIP3    H123558   4.207   5.944   5.364 -2.4043  1.2568  2.8029
  689TIP3    H223559   4.184   5.795   5.353  1.3055  0.7692 -0.3310
  690TIP3   OH223560   1.754   2.575   0.497  0.3864 -0.0998  0.0692
  690TIP3    H123561   1.692   2.563   0.426  1.9251 -0.6115 -1.2551
  690TIP3    H223562   1.837   2.595   0.453  1.0325  1.2643  1.7867
  691TIP3   OH223563   4.179   3.519  12.708  0.3292 -0.0418  0.4150
  691TIP3    H123564   4.188   3.603  12.664 -2.3316  0.0502 -0.1403
  691TIP3    H223565   4.161   3.457  12.637  0.8236 -0.8156  0.9536
  692TIP3   OH223566   5.571   5.110   4.500 -0.1099 -0.0559  0.0131
  692TIP3    H123567   5.659   5.102   4.537 -0.7053 -0.6854  1.3483
  692TIP3    H223568   5.579   5.074   4.412  0.5729 -1.8275  0.7639
  693TIP3   OH223569   1.277   1.342   6.533 -0.3276 -0.5333  0.2858
  693TIP3    H123570   1.321   1.314   6.614  0.1606  0.2798  0.3131
  693TIP3    H223571   1.280   1.437   6.536 -2.3280 -0.4275  0.3938
  694TIP3   OH223572   5.372   6.529   5.881  0.2256  0.3300 -0.3035
  694TIP3    H123573   5.341   6.566   5.964 -0.4210 -0.5229 -0.1503
  694TIP3    H223574   5.301   6.545   5.820  0.2219 -0.0798 -0.4036
  695TIP3   OH223575   4.304   5.565  16.427  0.0987 -0.4149 -0.2964
  695TIP3    H123576   4.389   5.594  16.395  0.4978  0.8848  1.7817
  695TIP3    H223577   4.251   5.644  16.431 -0.3402 -0.7432  0.9553
  696TIP3   OH223578   6.246   2.108  16.637 -0.0702  0.0251 -0.2472
  696TIP3    H123579   6.223   2.033  16.691 -1.5818 -0.0197 -0.8875
  696TIP3    H223580   6.215   2.184  16.687  1.9392  0.3062  0.6500
  697TIP3   OH223581   1.377   0.276  15.351  0.2852 -0.2108  0.1726
  697TIP3    H123582   1.306   0.223  15.388  0.1761 -0.4032 -0.3057
  697TIP3    H223583   1.381   0.353  15.407 -0.7017  0.0873 -0.1516
  698TIP3   OH223584   0.793   4.025   2.647 -0.5420 -0.1821 -0.0871
  698TIP3    H123585   0.749   4.050   2.728  1.2142 -0.0687  0.8884
  698TIP3    H223586   0.819   4.107   2.607  0.0456 -0.2815  0.0862
  699TIP3   OH223587   0.990   4.192  16.632 -0.2294 -0.8166 -0.0639
  699TIP3    H123588   0.913   4.237  16.597  1.4259  1.5383 -0.8856
  699TIP3    H223589   1.051   4.189  16.558  2.1365  1.3713  1.6476
  700TIP3   OH223590   2.490   4.049  12.882 -0.0349  0.0462 -0.4192
  700TIP3    H123591   2.444   4.094  12.953  1.0998 -0.2204  0.5197
  700TIP3    H223592   2.577   4.031  12.917 -0.4903 -3.1700 -0.6105
  701TIP3   OH223593   6.081   3.830   0.831 -0.1320  0.9623  0.7327
  701TIP3    H123594   6.053   3.894   0.897  1.1814 -0.7628  3.1128
  701TIP3    H223595   6.038   3.749   0.857  0.4836  0.2062 -0.5169
  702TIP3   OH223596   2.141   4.811   1.480 -0.5223  0.0380 -0.1137
  702TIP3    H123597   2.087   4.751   1.429  0.5425 -0.3510 -0.8324
  702TIP3    H223598   2.222   4.762   1.495  0.0593  1.0121 -0.0236
  703TIP3   OH223599   2.749   6.774   3.618 -0.7096 -0.0548 -0.5550
  703TIP3    H123600   2.771   6.681   3.620  0.6798  0.2058  3.0807
  703TIP3    H223601   2.662   6.778   3.658 -0.4474  0.2517 -0.0090
  704TIP3   OH223602   0.443   4.921   1.202 -1.3162  0.5329  0.3224
  704TIP3    H123603   0.398   4.841   1.173 -2.2547  1.3558 -0.5448
  704TIP3    H223604   0.472   4.900   1.291  0.2147 -1.4721 -0.5623
  705TIP3   OH223605   6.495   3.065   3.557 -0.2923  0.2267  0.2820
  705TIP3    H123606   6.495   3.107   3.643  0.4456  0.6163  0.1007
  705TIP3    H223607   6.480   3.137   3.496  0.2123  0.1115  0.0202
  706TIP3   OH223608   3.302   1.028   6.040  0.1948  0.1098  0.5824
  706TIP3    H123609   3.344   0.989   5.964 -1.1877 -2.1521  0.8665
  706TIP3    H223610   3.219   1.062   6.007  0.8095  1.7248  0.5980
  707TIP3   OH223611   0.940   2.434  13.909  0.1341  0.6257 -0.1364
  707TIP3    H123612   0.860   2.414  13.957  0.6842  0.1243  0.5949
  707TIP3    H223613   0.919   2.513  13.859  0.2321  2.6482  2.7632
  708TIP3   OH223614   5.027   1.645   0.734  0.7712 -0.0412 -0.3801
  708TIP3    H123615   5.116   1.633   0.701  1.0868 -0.9658  0.7422
  708TIP3    H223616   5.028   1.731   0.777  0.1009  1.6251 -3.4386
  709TIP3   OH223617   5.042   3.515  11.829  0.4022 -0.5558  0.0295
  709TIP3    H123618   5.019   3.540  11.919 -0.8362  0.7033 -0.5979
  709TIP3    H223619   5.090   3.590  11.795  0.8644 -1.0287 -0.3811
  710TIP3   OH223620   6.624   1.003   4.608  0.5528  0.3358  0.8684
  710TIP3    H123621   6.555   0.963   4.661 -1.1745  1.0618 -0.7217
  710TIP3    H223622   6.706   0.966   4.643 -0.6293 -0.7583  2.6422
  711TIP3   OH223623   0.248   0.955  16.680 -0.5393  0.5061  0.1040
  711TIP3    H123624   0.213   0.875  16.641 -0.3938  0.4886  0.0083
  711TIP3    H223625   0.242   1.020  16.610 -0.5039  0.5359  0.1286
  712TIP3   OH223626   4.322   3.290   0.834 -0.2532 -0.7987 -0.0029
  712TIP3    H123627   4.370   3.281   0.752  0.3415 -0.0931  0.2577
  712TIP3    H223628   4.369   3.233   0.895  0.6524  0.3531  0.4122
  713TIP3   OH223629   0.803   6.386  17.050  0.7451 -0.0916 -0.5917
  713TIP3    H123630   0.893   6.370  17.076 -0.0044 -0.6842  1.9060
  713TIP3    H223631   0.809   6.459  16.988  2.9503 -0.4725 -0.9081
  714TIP3   OH223632   2.818   4.349   2.592  0.7564 -0.3024  0.2174
  714TIP3    H123633   2.736   4.398   2.600  1.2681  0.3470  1.8651
  714TIP3    H223634   2.880   4.412   2.555  1.4118  0.3807  2.3269
  715TIP3   OH223635   0.868   3.141   0.203  0.0100  0.1269 -0.1750
  715TIP3    H123636   0.848   3.206   0.271  1.3803  0.4900 -0.1033
  715TIP3    H223637   0.895   3.063   0.252 -1.0881 -0.3353 -0.2743
  716TIP3   OH223638   1.839   5.491   0.303 -0.4436  0.0927 -0.1911
  716TIP3    H123639   1.900   5.503   0.231  1.3880 -3.1540  0.6051
  716TIP3    H223640   1.761   5.453   0.263  0.5789 -1.7361 -0.5338
  717TIP3   OH223641   0.354   5.115   4.907 -0.1881 -0.0245 -0.8714
  717TIP3    H123642   0.408   5.180   4.953  0.1581  0.0122 -1.3200
  717TIP3    H223643   0.415   5.071   4.847  0.1716 -2.5129  1.1525
  718TIP3   OH223644   6.789   6.796   2.866  0.4285 -1.1097  0.3028
  718TIP3    H123645   6.801   6.868   2.928 -0.9922 -2.1352  1.8847
  718TIP3    H223646   6.732   6.833   2.798  1.2965 -0.2032  0.0542
  719TIP3   OH223647   6.085   3.407  10.621 -0.1049 -0.9297  0.0747
  719TIP3    H123648   6.165   3.419  10.571 -0.7629 -0.0896 -0.8090
  719TIP3    H223649   6.084   3.479  10.683 -2.4162  1.9846 -3.0233
  720TIP3   OH223650   2.720   4.044  12.139  0.8650 -0.2460  0.1547
  720TIP3    H123651   2.657   3.977  12.113 -0.2315  0.7595  0.0821
  720TIP3    H223652   2.801   4.020  12.095  0.5032 -1.5199  0.1486
  721TIP3   OH223653   5.176   0.438   1.716 -0.4275  0.3528  0.2329
  721TIP3    H123654   5.248   0.429   1.653 -1.0569  0.8785 -0.5860
  721TIP3    H223655   5.215   0.414   1.800  0.5854  0.1870 -0.2601
  722TIP3   OH223656   2.806   4.795  13.012 -0.0524  0.2606  0.4177
  722TIP3    H123657   2.840   4.708  13.029 -0.4441  0.1832  0.8196
  722TIP3    H223658   2.728   4.802  13.067 -0.0876  0.8223  0.3073
  723TIP3   OH223659   2.162   1.117   1.542  0.1160 -0.0346  0.1023
  723TIP3    H123660   2.161   1.197   1.595 -0.8551  0.3544 -0.4908
  723TIP3    H223661   2.149   1.047   1.605 -3.5482  0.5590  0.2351
  724TIP3   OH223662   3.435   5.517  11.760  0.6259  0.1207  0.8111
  724TIP3    H123663   3.475   5.579  11.699  0.3626 -0.2151  0.2961
  724TIP3    H223664   3.461   5.548  11.846  0.9293  0.6477  0.5299
  725TIP3   OH223665   5.406   1.342   5.734 -0.0665 -0.2201 -0.1116
  725TIP3    H123666   5.451   1.384   5.808 -0.6841 -1.9273  1.3089
  725TIP3    H223667   5.314   1.365   5.746  0.0156  0.8763 -1.3581
  726TIP3   OH223668   4.367   3.970   0.956  0.0723 -0.1740 -0.1274
  726TIP3    H123669   4.414   4.053   0.962  0.1551 -0.3328  1.8727
  726TIP3    H223670   4.393   3.935   0.870  0.7338  1.4229 -0.6256
  727TIP3   OH223671   4.441   2.770   4.609 -0.3267 -0.3743 -0.1632
  727TIP3    H123672   4.435   2.681   4.576 -1.3688 -1.3355  2.3958
  727TIP3    H223673   4.441   2.761   4.704 -2.9797  2.4356  0.2730
  728TIP3   OH223674   4.578   5.790   5.586 -0.1441 -0.2300  0.7756
  728TIP3    H123675   4.571   5.839   5.668  0.4181 -0.2169  0.8183
  728TIP3    H223676   4.575   5.857   5.517 -2.4989 -0.3501  0.6606
  729TIP3   OH223677   3.368   6.689  12.939  0.0246  0.1519  0.3536
  729TIP3    H123678   3.288   6.638  12.932  0.9598 -1.3362  0.0746
  729TIP3    H223679   3.433   6.639  12.889  1.5192  0.4583  1.8908
  730TIP3   OH223680   1.232   1.096   3.526 -0.3358  0.3514 -0.9344
  730TIP3    H123681   1.300   1.118   3.462  0.4705 -2.8843 -1.3291
  730TIP3    H223682   1.158   1.068   3.473 -0.4313 -0.2622 -0.4818
  731TIP3   OH223683   5.557   0.271  12.586 -0.3815 -0.0352  0.3691
  731TIP3    H123684   5.612   0.346  12.562  1.4122 -1.4961 -0.3079
  731TIP3    H223685   5.614   0.217  12.641 -0.9490 -1.8571 -0.7649
  732TIP3   OH223686   3.291   2.477   2.990 -0.1810  0.3372  0.1837
  732TIP3    H123687   3.322   2.389   2.966 -0.4052  0.3639 -0.2208
  732TIP3    H223688   3.368   2.522   3.024 -0.5245 -0.7674  2.6379
  733TIP3   OH223689   1.473   6.137   5.988  0.0680  0.0110 -0.1929
  733TIP3    H123690   1.495   6.142   6.081 -1.2891  1.4151  0.1018
  733TIP3    H223691   1.456   6.228   5.963  1.2815 -0.2332 -2.0666
  734TIP3   OH223692   4.403   5.558  11.777 -0.1354  0.2355 -0.3322
  734TIP3    H123693   4.329   5.498  11.767 -0.2437  0.2604  0.3001
  734TIP3    H223694   4.464   5.532  11.708  0.9473 -2.2462  1.4114
  735TIP3   OH223695   3.848   6.416   4.777 -0.7115  0.4608  0.0388
  735TIP3    H123696   3.788   6.372   4.838  0.0941  0.8282  1.1390
  735TIP3    H223697   3.793   6.442   4.703 -2.0278  1.2356  1.2376
  736TIP3   OH223698   3.948   2.919   4.907  0.1250  0.3465 -0.3907
  736TIP3    H123699   3.918   2.853   4.970 -0.1370 -0.5699 -1.4306
  736TIP3    H223700   4.035   2.944   4.937  0.3652 -0.7339 -0.1595
  737TIP3   OH223701   5.764   4.216  16.548  0.0276 -0.3211  0.2749
  737TIP3    H123702   5.673   4.188  16.560 -0.4185  1.0252  0.2108
  737TIP3    H223703   5.760   4.312  16.549  1.5232 -0.2427  0.7681
  738TIP3   OH223704   5.385   0.569  16.669 -0.0916 -0.4156 -0.1764
  738TIP3    H123705   5.429   0.599  16.749  0.7305 -0.5338 -0.5677
  738TIP3    H223706   5.373   0.648  16.617 -0.0589 -0.4233 -0.1960
  739TIP3   OH223707   5.928   2.625  16.176 -0.1547  0.0094  0.5967
  739TIP3    H123708   6.009   2.625  16.125 -0.8193 -0.6342 -0.4934
  739TIP3    H223709   5.927   2.539  16.218 -1.5770 -1.1450 -1.6090
  740TIP3   OH223710   3.826   5.730  14.600 -0.1119 -0.1524  0.6451
  740TIP3    H123711   3.884   5.669  14.645  1.0605  0.2369 -0.2957
  740TIP3    H223712   3.873   5.814  14.601 -0.6537  0.1758 -0.1243
  741TIP3   OH223713   5.803   0.673   4.910  0.1989  0.0519 -0.0610
  741TIP3    H123714   5.786   0.736   4.840  0.0657 -0.5224 -0.5598
  741TIP3    H223715   5.716   0.638   4.931  0.2435  0.2017  0.3747
  742TIP3   OH223716   1.014   0.561   6.418  0.1034 -0.0257  0.2071
  742TIP3    H123717   0.999   0.470   6.443 -1.9493  0.1197 -0.3044
  742TIP3    H223718   0.927   0.601   6.421  0.9285  1.8794  0.2120
  743TIP3   OH223719   5.520   3.597   1.458 -0.4069 -0.2197 -0.1044
  743TIP3    H123720   5.460   3.540   1.410 -0.9439 -0.3629  0.7074
  743TIP3    H223721   5.520   3.679   1.410  0.0513 -0.7591 -1.0559
  744TIP3   OH223722   0.984   1.761   3.870 -0.5752 -0.7059  0.6423
  744TIP3    H123723   1.014   1.679   3.830 -0.3137 -0.2826 -0.0444
  744TIP3    H223724   0.941   1.809   3.799  1.5297  0.8743  0.3010
  745TIP3   OH223725   2.988   2.992   0.395 -0.3889  0.4823 -0.3175
  745TIP3    H123726   3.007   2.943   0.315  0.3942  0.9073 -0.4079
  745TIP3    H223727   2.922   3.056   0.368  0.1044  0.8347 -0.7095
  746TIP3   OH223728   4.002   4.444   3.703  0.5481  0.0173 -0.3790
  746TIP3    H123729   4.006   4.495   3.783  0.1646 -0.1206 -0.2733
  746TIP3    H223730   4.067   4.485   3.645  0.1748  0.6859 -0.3314
  747TIP3   OH223731   3.753   4.666  12.608  0.1324  0.0984 -0.4489
  747TIP3    H123732   3.723   4.577  12.625 -0.0027  0.3041  0.4231
  747TIP3    H223733   3.717   4.687  12.521  0.5612 -0.8517 -0.8725
  748TIP3   OH223734   0.921   4.686  14.807  0.1240  0.0416 -0.0768
  748TIP3    H123735   0.935   4.703  14.900  1.8780 -0.3861 -0.2400
  748TIP3    H223736   0.895   4.771  14.772  0.7490  0.5154  0.5724
  749TIP3   OH223737   5.388   6.633   3.655  0.1236 -0.1550  0.1103
  749TIP3    H123738   5.382   6.670   3.567 -0.1985  0.9979  0.5983
  749TIP3    H223739   5.407   6.708   3.712  1.8643 -1.1023  0.8550
  750TIP3   OH223740   6.329   4.741  13.507  0.0030  0.1728 -0.0969
  750TIP3    H123741   6.242   4.771  13.532  0.6175  2.4222 -0.4329
  750TIP3    H223742   6.314   4.656  13.467 -2.1830  0.8962 -0.9853
  751TIP3   OH223743   1.939   0.487   0.818 -0.5579  0.1285 -0.0283
  751TIP3    H123744   1.879   0.416   0.840 -2.1131  0.6307 -2.2451
  751TIP3    H223745   2.025   0.446   0.810 -1.1234 -1.1724  0.4095
  752TIP3   OH223746   2.113   0.651   2.700 -0.7791 -0.0352 -0.6312
  752TIP3    H123747   2.092   0.654   2.793 -1.7474  0.3615 -0.8576
  752TIP3    H223748   2.145   0.739   2.679 -2.3577  0.4600 -1.0734
  753TIP3   OH223749   1.195   3.470   4.756  0.5863 -0.4231  0.2428
  753TIP3    H123750   1.199   3.563   4.778  0.5989 -0.5534  0.8131
  753TIP3    H223751   1.266   3.430   4.807 -0.8033 -1.0791  1.7665
  754TIP3   OH223752   1.148   1.427  14.934 -0.4023 -0.0668 -0.5184
  754TIP3    H123753   1.159   1.456  15.025 -2.4152 -0.2756 -0.1626
  754TIP3    H223754   1.170   1.334  14.935 -0.8514 -0.1745 -0.1275
  755TIP3   OH223755   0.700   5.900   1.378  0.4672  0.1042  0.1561
  755TIP3    H123756   0.784   5.945   1.379  0.2650  0.4746  0.6706
  755TIP3    H223757   0.704   5.838   1.450  0.4749 -0.2022 -0.1082
  756TIP3   OH223758   5.165   3.790  12.774 -0.0024  0.3064  0.2887
  756TIP3    H123759   5.071   3.806  12.764  0.2304  2.4348  1.0395
  756TIP3    H223760   5.206   3.875  12.756  1.9226 -0.8671 -1.3482
  757TIP3   OH223761   0.401   1.436   2.579 -0.5923  0.5158 -0.2299
  757TIP3    H123762   0.449   1.396   2.652 -0.6356  1.1937  0.1803
  757TIP3    H223763   0.314   1.454   2.615 -1.1150 -0.5447 -0.9147
  758TIP3   OH223764   6.650   6.090  13.640  0.3671  0.1913 -0.0440
  758TIP3    H123765   6.687   6.163  13.688  2.3444 -0.3618 -0.6438
  758TIP3    H223766   6.557   6.092  13.662  0.6189  1.9907  1.0775
  759TIP3   OH223767   3.666   6.497  16.390  0.2113  0.7524 -0.0017
  759TIP3    H123768   3.754   6.531  16.408  0.1673  0.9278 -0.1173
  759TIP3    H223769   3.665   6.411  16.431  0.6669  0.4629 -0.5992
  760TIP3   OH223770   5.762   0.469   3.811  0.1556 -0.0849  0.4406
  760TIP3    H123771   5.672   0.438   3.798 -0.1386  1.0183 -0.4154
  760TIP3    H223772   5.756   0.530   3.884  0.0421  0.5376 -0.0716
  761TIP3   OH223773   4.952   3.502   4.456  0.0848  0.2148 -0.0809
  761TIP3    H123774   4.857   3.502   4.461  0.1201 -0.4340  1.0967
  761TIP3    H223775   4.974   3.420   4.412  0.1033  0.1601  0.0289
  762TIP3   OH223776   5.857   0.436  12.095 -0.0522 -0.7592 -0.2124
  762TIP3    H123777   5.884   0.368  12.158 -2.5111 -1.9864 -0.3606
  762TIP3    H223778   5.854   0.391  12.011 -0.3148 -0.0808 -0.5726
  763TIP3   OH223779   6.768   2.746   4.620  0.4139 -0.3275 -0.0608
  763TIP3    H123780   6.733   2.794   4.545  0.4504  2.5999  1.6759
  763TIP3    H223781   6.706   2.674   4.633 -1.9131  1.4817 -0.4482
  764TIP3   OH223782   3.052   6.502   2.004  0.8380 -0.2613 -0.3709
  764TIP3    H123783   2.989   6.471   1.939 -0.2555  0.0995  0.4939
  764TIP3    H223784   3.135   6.462   1.978 -0.0870 -2.1839 -0.5365
  765TIP3   OH223785   2.534   0.588  13.677 -0.3576 -0.4699  0.0874
  765TIP3    H123786   2.566   0.603  13.588  1.2265 -0.8744  0.5497
  765TIP3    H223787   2.481   0.665  13.697  1.8019  1.1874 -0.1087
  766TIP3   OH223788   4.518   3.003   0.551 -0.5312  0.3324 -0.0155
  766TIP3    H123789   4.605   3.030   0.520 -0.8371  0.7925 -0.4873
  766TIP3    H223790   4.474   2.972   0.472 -0.3938 -1.0067  0.4198
  767TIP3   OH223791   5.566   1.156   2.632  0.1874 -0.4367 -0.2649
  767TIP3    H123792   5.527   1.120   2.712 -1.5893  0.3643 -0.7254
  767TIP3    H223793   5.491   1.189   2.582  1.2919 -0.6196 -2.1189
  768TIP3   OH223794   0.594   5.706  13.736  0.4283  0.4836  0.0757
  768TIP3    H123795   0.655   5.730  13.666  2.1751 -1.0037  1.0161
  768TIP3    H223796   0.645   5.650  13.794 -1.5691  0.0197  1.4676
  769TIP3   OH223797   6.475   5.421   3.884 -0.6661 -0.2854  0.2697
  769TIP3    H123798   6.449   5.513   3.888  0.0730 -0.0714  0.2377
  769TIP3    H223799   6.392   5.374   3.871 -1.0999  0.3323  0.7365
  770TIP3   OH223800   6.416   0.334   3.582 -0.6118  0.2560 -0.0497
  770TIP3    H123801   6.335   0.320   3.630 -0.0717 -1.3602  0.4666
  770TIP3    H223802   6.439   0.425   3.600 -0.4031 -0.2576  2.8999
  771TIP3   OH223803   2.206   3.466   4.040  0.3489  0.3347  0.7510
  771TIP3    H123804   2.269   3.429   3.978  2.9664  3.0392  1.5489
  771TIP3    H223805   2.219   3.416   4.121 -1.2631 -1.5160 -0.0590
  772TIP3   OH223806   2.476   5.228  15.302  0.2436  0.0467 -0.2190
  772TIP3    H123807   2.548   5.292  15.305  1.2295 -0.7260 -3.2696
  772TIP3    H223808   2.448   5.228  15.210  0.2411 -3.7957 -0.3836
  773TIP3   OH223809   0.888   1.834  13.087  0.3593  0.4311  0.3814
  773TIP3    H123810   0.897   1.768  13.155 -3.0553  0.3546  0.9444
  773TIP3    H223811   0.949   1.903  13.112 -0.7632  0.4079  3.6000
  774TIP3   OH223812   0.857   0.404   2.086 -0.1926  0.4122 -0.8374
  774TIP3    H123813   0.812   0.461   2.024  0.4259  0.9430 -0.8073
  774TIP3    H223814   0.885   0.462   2.157  0.3938  0.0714 -0.7802
  775TIP3   OH223815   5.477   6.662   3.009 -0.4225 -0.3545  0.3986
  775TIP3    H123816   5.524   6.734   3.051 -1.7507 -0.4840  2.2448
  775TIP3    H223817   5.542   6.620   2.953  0.8144  1.2838  0.5163
  776TIP3   OH223818   3.041   4.401  11.054  0.2903  0.6066  0.0988
  776TIP3    H123819   3.037   4.363  10.967 -1.1287  0.7585  0.0680
  776TIP3    H223820   3.071   4.330  11.111  1.5219  0.5914 -0.5310
  777TIP3   OH223821   5.739   0.847   4.357  0.1234 -0.5862  0.0549
  777TIP3    H123822   5.734   0.762   4.313  2.3485 -0.4824 -0.4901
  777TIP3    H223823   5.828   0.877   4.342 -0.1783  1.1976  1.4829
  778TIP3   OH223824   0.547   2.817   4.403  0.1926 -0.3252 -0.6919
  778TIP3    H123825   0.490   2.823   4.479  0.2651  0.8010 -0.7119
  778TIP3    H223826   0.556   2.723   4.387 -0.3517 -0.5551  0.2841
  779TIP3   OH223827   0.752   2.098  12.305 -0.3998  0.2384 -0.4861
  779TIP3    H123828   0.731   2.064  12.218 -1.8459  0.9435 -0.4276
  779TIP3    H223829   0.766   2.020  12.359 -0.3915 -0.2121 -1.1353
  780TIP3   OH223830   3.611   4.433  12.646  0.0080 -0.3507 -0.1706
  780TIP3    H123831   3.644   4.353  12.604 -1.4347 -0.8472 -0.4197
  780TIP3    H223832   3.548   4.402  12.711 -0.8335  0.5816 -0.5107
  781TIP3   OH223833   0.523   1.742   2.946  0.2301  0.4922  0.7610
  781TIP3    H123834   0.499   1.652   2.968  2.6566 -0.4471 -0.0910
  781TIP3    H223835   0.527   1.788   3.030 -0.4441 -0.3405  1.2546
  782TIP3   OH223836   0.750   3.961   4.968  0.3170 -0.0798 -0.1407
  782TIP3    H123837   0.689   4.014   5.019  0.0713 -0.2865 -0.2144
  782TIP3    H223838   0.724   3.975   4.877  0.9276  0.4970 -0.2276
  783TIP3   OH223839   2.229   6.201  14.602 -0.2988 -0.2027  0.4350
  783TIP3    H123840   2.282   6.272  14.566 -0.0632  0.5309  2.1293
  783TIP3    H223841   2.144   6.212  14.560  0.2662 -0.0988 -0.7365
  784TIP3   OH223842   2.760   4.289  10.946 -0.4712  0.1283 -0.0876
  784TIP3    H123843   2.668   4.287  10.919 -0.0621 -2.3273 -1.6615
  784TIP3    H223844   2.809   4.266  10.867  1.4620  0.6601  0.8843
  785TIP3   OH223845   1.730   3.360  11.197 -0.5986  0.1293  0.1680
  785TIP3    H123846   1.781   3.302  11.253 -1.1420  0.4598  1.0267
  785TIP3    H223847   1.758   3.339  11.108  0.6577 -0.0547  0.5847
  786TIP3   OH223848   0.508   2.681  11.211  0.0362  0.1022  0.3421
  786TIP3    H123849   0.501   2.765  11.165  0.6022 -0.5258 -0.9614
  786TIP3    H223850   0.420   2.664  11.245 -0.5899  0.2872 -1.1124
  787TIP3   OH223851   0.583   1.094  15.043 -0.2184  0.8771 -0.1599
  787TIP3    H123852   0.585   1.140  14.959 -1.5459  0.7011 -0.3228
  787TIP3    H223853   0.489   1.085  15.062  0.0553  1.0553  1.4174
  788TIP3   OH223854   6.243   1.811  16.371  0.4060 -0.6601  0.0773
  788TIP3    H123855   6.278   1.881  16.425  2.1936 -1.4080 -0.0480
  788TIP3    H223856   6.187   1.855  16.307  0.7008  0.5354  0.6164
  789TIP3   OH223857   0.149   5.805  16.601  0.1085  0.6738  0.5732
  789TIP3    H123858   0.080   5.871  16.602  0.7581  1.3804  0.2031
  789TIP3    H223859   0.219   5.842  16.656  0.6982  0.5513 -0.0756
  790TIP3   OH223860   5.663   4.723   5.015  0.2701  0.4385  0.8192
  790TIP3    H123861   5.603   4.797   5.009  1.0085  1.2647  2.6822
  790TIP3    H223862   5.663   4.701   5.108  0.0454 -1.9603  0.3095
  791TIP3   OH223863   0.830   2.150  11.274  0.6638 -0.3619 -0.4569
  791TIP3    H123864   0.815   2.095  11.198  1.9552 -0.9095 -0.3586
  791TIP3    H223865   0.755   2.134  11.331  0.8295 -1.7530 -0.5960
  792TIP3   OH223866   6.249   2.309  15.576  0.1139  0.4254 -0.1748
  792TIP3    H123867   6.328   2.325  15.627  2.0022 -0.2474 -2.6955
  792TIP3    H223868   6.183   2.286  15.641  2.2853 -0.1794  1.9503
  793TIP3   OH223869   3.638   4.201   3.464 -0.1990  0.4305  0.1988
  793TIP3    H123870   3.722   4.222   3.505 -0.2511 -4.4302  3.5441
  793TIP3    H223871   3.574   4.210   3.535 -1.9204  0.3783 -1.2770
  794TIP3   OH223872   1.317   4.512  14.308  0.6812 -0.2129 -0.0523
  794TIP3    H123873   1.353   4.474  14.228 -0.0901  0.0358 -0.5400
  794TIP3    H223874   1.248   4.451  14.335  1.3784 -0.6326  0.8044
  795TIP3   OH223875   6.692   3.587   4.440  0.3731  0.0760  0.0501
  795TIP3    H123876   6.775   3.634   4.442  0.6505 -0.4151  0.9407
  795TIP3    H223877   6.635   3.635   4.500  0.5506 -0.4885  0.6992
  796TIP3   OH223878   5.404   5.419  13.730  0.4070  0.0293 -0.4218
  796TIP3    H123879   5.468   5.443  13.796  0.9392 -1.4555 -0.3515
  796TIP3    H223880   5.356   5.500  13.711 -2.1747 -0.0909  4.2885
  797TIP3   OH223881   4.723   5.720  15.684 -0.0447  0.3206  0.0227
  797TIP3    H123882   4.719   5.676  15.599  0.6387  2.2495 -1.0623
  797TIP3    H223883   4.786   5.668  15.735  0.6856 -0.0051 -1.1841
  798TIP3   OH223884   6.133   2.315  16.774 -0.1659 -0.4119 -0.0708
  798TIP3    H123885   6.040   2.328  16.795 -0.0559 -1.4108  1.1188
  798TIP3    H223886   6.174   2.398  16.799 -0.5161 -0.5103  0.8907
  799TIP3   OH223887   0.529   5.242  15.735  0.4029 -0.0940  0.1167
  799TIP3    H123888   0.436   5.222  15.724  0.7983 -2.1815  0.0983
  799TIP3    H223889   0.534   5.337  15.731 -1.2376  0.0006 -3.7943
  800TIP3   OH223890   4.717   2.008  11.570 -0.1670  0.4325 -0.3994
  800TIP3    H123891   4.723   1.980  11.661 -0.5906  0.9201 -0.2128
  800TIP3    H223892   4.683   1.932  11.523 -1.4005  0.6366  0.1137
  801TIP3   OH223893   6.652   5.720   4.006 -0.1638  0.4446  0.3079
  801TIP3    H123894   6.566   5.706   3.966 -0.4741 -0.9912  1.4059
  801TIP3    H223895   6.707   5.651   3.968  0.1044  0.4182  0.7422
  802TIP3   OH223896   2.583   6.386   5.428 -0.2444 -0.8266 -0.3812
  802TIP3    H123897   2.530   6.395   5.507  0.1974  0.3263 -0.1981
  802TIP3    H223898   2.593   6.292   5.417 -2.2584 -1.0892 -0.3851
  803TIP3   OH223899   0.821   2.123  14.086  0.2441 -0.2338 -0.5891
  803TIP3    H123900   0.913   2.113  14.111 -0.0649 -1.8456  0.0092
  803TIP3    H223901   0.797   2.038  14.050 -0.5948  0.6624 -2.2359
  804TIP3   OH223902   3.073   4.537  12.551 -0.8358  0.2943 -0.3735
  804TIP3    H123903   2.983   4.503  12.549 -0.9575  0.6494 -1.8106
  804TIP3    H223904   3.101   4.525  12.642 -2.2290 -0.1026  0.0282
  805TIP3   OH223905   2.809   5.875  13.439 -0.0345 -0.2842 -0.4626
  805TIP3    H123906   2.761   5.824  13.374  0.3801 -1.1338 -0.1176
  805TIP3    H223907   2.900   5.872  13.410  0.1104 -0.4213  0.0014
  806TIP3   OH223908   6.383   1.910   2.142  0.2901 -0.1720  0.2501
  806TIP3    H123909   6.451   1.978   2.135  0.6660 -0.4604  0.9529
  806TIP3    H223910   6.429   1.828   2.121 -0.0928 -0.2453 -0.3096
  807TIP3   OH223911   4.783   6.552   4.309  0.4746 -0.0364  0.6827
  807TIP3    H123912   4.818   6.631   4.351 -0.9058  0.8197  0.3009
  807TIP3    H223913   4.693   6.575   4.287  0.2354 -1.5237 -0.0001
  808TIP3   OH223914   4.882   4.322  12.550 -0.2616 -0.5243 -0.1361
  808TIP3    H123915   4.829   4.368  12.485  1.6113  0.0160 -1.3454
  808TIP3    H223916   4.927   4.392  12.598  0.7005 -1.0057 -0.3152
  809TIP3   OH223917   0.744   6.308   5.120  0.0863  0.2437 -0.2391
  809TIP3    H123918   0.720   6.262   5.040  0.3654  1.0410 -0.7998
  809TIP3    H223919   0.665   6.306   5.174 -0.6539  1.1675 -1.2471
  810TIP3   OH223920   3.551   3.094   1.035 -0.1406  0.1874  0.9050
  810TIP3    H123921   3.513   3.146   1.106 -0.3639  0.3326  0.6796
  810TIP3    H223922   3.476   3.063   0.985 -0.0397 -0.7873  1.3414
  811TIP3   OH223923   5.831   4.943  13.694  0.0807 -0.0397 -0.2437
  811TIP3    H123924   5.872   4.913  13.776  0.0069  3.0467  1.0511
  811TIP3    H223925   5.890   5.011  13.662  0.7904 -2.0259 -3.5814
  812TIP3   OH223926   5.345   2.505  12.566  0.1617 -0.3433 -0.0064
  812TIP3    H123927   5.308   2.564  12.500  1.4366  0.1969 -0.2600
  812TIP3    H223928   5.304   2.421  12.548 -1.5621  0.3776  0.2433
  813TIP3   OH223929   2.389   5.342  14.153 -0.4170 -0.2375 -0.2612
  813TIP3    H123930   2.384   5.259  14.107 -2.4494 -1.4682  1.9436
  813TIP3    H223931   2.461   5.331  14.216  0.5189  0.4060 -1.1830
  814TIP3   OH223932   3.303   5.050  14.844 -0.5871 -0.6514 -0.0746
  814TIP3    H123933   3.377   5.089  14.889  0.7606 -2.7167 -0.3900
  814TIP3    H223934   3.266   5.122  14.793  1.5353  0.3104 -0.3628
  815TIP3   OH223935   2.132   5.534  11.652 -0.1661  0.7082 -0.9008
  815TIP3    H123936   2.148   5.484  11.572  0.7675 -0.9737  0.2742
  815TIP3    H223937   2.198   5.604  11.651  2.9158 -1.9233  0.4410
  816TIP3   OH223938   5.686   3.770   1.108 -0.1762  0.3754  0.4077
  816TIP3    H123939   5.610   3.812   1.149 -0.1329  2.1957 -1.2036
  816TIP3    H223940   5.758   3.784   1.170 -0.6159  0.9107  0.8019
  817TIP3   OH223941   6.244   0.552   4.318  0.2040 -0.0800  0.0425
  817TIP3    H123942   6.288   0.616   4.263 -0.4639  1.5475  1.3315
  817TIP3    H223943   6.151   0.571   4.308  0.0651  0.2273  1.6707
  818TIP3   OH223944   4.351   6.628   2.706 -0.5535  0.0238 -0.4607
  818TIP3    H123945   4.381   6.629   2.615 -0.7752  1.2571 -0.5359
  818TIP3    H223946   4.400   6.557   2.746  0.7583  0.5093 -1.1460
  819TIP3   OH223947   0.062   1.122  11.860  0.7320  0.1484  0.0133
  819TIP3    H123948   0.157   1.115  11.853  0.8253  0.9596  0.3009
  819TIP3    H223949   0.044   1.216  11.851 -0.2691 -0.2039 -2.4151
  820TIP3   OH223950   1.188   3.644  11.343  0.5891 -0.3337  0.0679
  820TIP3    H123951   1.135   3.564  11.345  0.9019 -0.5986 -1.3334
  820TIP3    H223952   1.129   3.711  11.310  0.1930  0.1552  1.6729
  821TIP3   OH223953   6.062   5.520  10.628 -0.0186  0.4230 -0.0070
  821TIP3    H123954   5.981   5.474  10.606  0.7806 -0.6206 -0.8679
  821TIP3    H223955   6.106   5.461  10.690  0.1662  0.8940  0.3089
  822TIP3   OH223956   6.776   3.900   0.345 -0.8250 -0.0512  0.4414
  822TIP3    H123957   6.724   3.907   0.425 -1.3880 -2.9352  0.4333
  822TIP3    H223958   6.867   3.911   0.374 -0.9851 -1.5527  1.5900
  823TIP3   OH223959   3.940   3.152   3.965 -0.2438 -0.3909  0.3731
  823TIP3    H123960   3.948   3.108   3.881 -0.3736 -0.0873  0.2037
  823TIP3    H223961   4.023   3.132   4.010  0.6222  0.9617 -0.5422
  824TIP3   OH223962   6.328   2.647  13.621 -0.2559 -0.4734  0.3235
  824TIP3    H123963   6.265   2.719  13.622 -0.1461 -0.3095 -1.3576
  824TIP3    H223964   6.328   2.614  13.711 -1.1578  0.8769  0.8559
  825TIP3   OH223965   0.240   3.154   2.339 -0.0380  0.1960 -0.9437
  825TIP3    H123966   0.270   3.242   2.363 -0.9735  0.9463 -2.3667
  825TIP3    H223967   0.320   3.108   2.315  0.5716  0.3425  0.6724
  826TIP3   OH223968   2.494   3.652   2.503  0.6039 -0.5315  0.3692
  826TIP3    H123969   2.453   3.611   2.427 -0.4906 -1.1266  1.2489
  826TIP3    H223970   2.583   3.672   2.474 -0.1103  0.2992 -1.4292
  827TIP3   OH223971   0.834   2.167   0.404  0.1000 -0.0669 -0.9850
  827TIP3    H123972   0.901   2.109   0.371 -0.7083 -1.4379 -0.3259
  827TIP3    H223973   0.864   2.192   0.492  1.2851  1.9743 -1.9009
  828TIP3   OH223974   1.332   0.131   1.885  0.0083  0.0395 -0.4316
  828TIP3    H123975   1.357   0.170   1.801  0.6678 -1.5107 -0.9802
  828TIP3    H223976   1.271   0.062   1.862  0.2016 -0.4041  0.3612
  829TIP3   OH223977   1.122   5.837  12.113 -0.6802  0.5586 -0.0108
  829TIP3    H123978   1.104   5.775  12.184 -0.4307 -0.8673 -1.1490
  829TIP3    H223979   1.213   5.821  12.089 -0.6829  1.2167 -0.4894
  830TIP3   OH223980   2.857   6.824   3.359 -0.9752 -0.1761  0.0600
  830TIP3    H123981   2.861   6.818   3.455 -0.9379 -2.0482 -0.0310
  830TIP3    H223982   2.764   6.819   3.339 -1.0870  1.4106  0.0174
  831TIP3   OH223983   4.738   5.111   5.642  0.0056 -0.4438 -0.0162
  831TIP3    H123984   4.725   5.056   5.565 -0.8181  0.7510 -0.7663
  831TIP3    H223985   4.831   5.135   5.640  0.2952 -1.5220  0.1400
  832TIP3   OH223986   4.851   2.107   3.055 -0.1399  0.1434 -0.4407
  832TIP3    H123987   4.844   2.202   3.047  0.4329  0.3902  1.4880
  832TIP3    H223988   4.944   2.088   3.040  0.6134  0.4319  3.0475
  833TIP3   OH223989   0.213   4.138   1.021  0.2582 -0.5284  0.5884
  833TIP3    H123990   0.284   4.137   1.085  0.4534  4.8510  0.9850
  833TIP3    H223991   0.256   4.145   0.936  0.2846  1.0172  0.6957
  834TIP3   OH223992   2.446   0.586  14.699  0.0711  0.2768 -0.1365
  834TIP3    H123993   2.467   0.495  14.678 -1.4730 -0.4068  1.0471
  834TIP3    H223994   2.366   0.604  14.650  0.3006  0.9544 -0.2697
  835TIP3   OH223995   5.091   5.167  12.372  1.1115 -0.0780  0.0288
  835TIP3    H123996   5.161   5.218  12.333  1.6834 -1.7033 -1.1963
  835TIP3    H223997   5.065   5.105  12.304 -1.4198  0.3408  0.5079
  836TIP3   OH223998   0.283   4.898   3.989  0.0606  0.6399 -0.8414
  836TIP3    H123999   0.268   4.985   4.028 -0.9279  0.3709 -0.5854
  836TIP3    H224000   0.253   4.907   3.899  3.3331  1.5670 -1.9698
  837TIP3   OH224001   0.030   2.697   1.785  0.1142  0.0869 -0.5455
  837TIP3    H124002   0.106   2.747   1.754 -0.6612  0.4790 -1.9197
  837TIP3    H224003  -0.033   2.764   1.814 -0.8199 -0.0374 -2.1359
  838TIP3   OH224004   0.538   5.665   0.554 -0.1809  0.5440  0.2879
  838TIP3    H124005   0.475   5.643   0.623 -1.0677 -0.9376 -0.9335
  838TIP3    H224006   0.542   5.761   0.555 -2.2015  0.6691  0.6433
  839TIP3   OH224007   2.723   4.927   5.819 -1.2916  0.3676  0.0042
  839TIP3    H124008   2.765   5.006   5.853 -2.0497  0.5422  0.5518
  839TIP3    H224009   2.691   4.952   5.732 -0.9414  0.4617 -0.0983
  840TIP3   OH224010   5.022   2.250   2.440  0.4206 -0.1277 -0.0179
  840TIP3    H124011   5.087   2.203   2.388  0.5516 -0.2870  0.2873
  840TIP3    H224012   5.062   2.258   2.526  1.2926  2.3462 -0.5813
  841TIP3   OH224013   3.128   2.320   4.413  0.5388  0.5407 -0.4303
  841TIP3    H124014   3.071   2.397   4.408  1.2488  1.1163 -0.0614
  841TIP3    H224015   3.207   2.347   4.364  1.3331  0.5575  0.8186
  842TIP3   OH224016   0.593   1.328   3.430  0.1521 -0.0357  0.4842
  842TIP3    H124017   0.584   1.316   3.524 -1.6575 -0.2004  0.3202
  842TIP3    H224018   0.661   1.395   3.421  1.4628 -1.1195  1.8272
  843TIP3   OH224019   2.559   5.398   2.222 -0.2143  0.4040 -0.5251
  843TIP3    H124020   2.591   5.423   2.308 -0.0457  1.9209 -0.9954
  843TIP3    H224021   2.618   5.327   2.194  1.5176  1.7837 -0.5339
  844TIP3   OH224022   1.841   4.772  10.838  0.1482 -0.4120  0.1519
  844TIP3    H124023   1.765   4.726  10.800 -0.3372  0.7551 -0.3552
  844TIP3    H224024   1.916   4.716  10.818 -0.4174 -0.9529 -0.4977
  845TIP3   OH224025   2.015   2.929  12.428  0.6825  0.4927  0.0358
  845TIP3    H124026   2.104   2.926  12.393  1.0633  1.0922  0.8943
  845TIP3    H224027   2.018   2.875  12.507  0.1180  0.0099 -0.2657
  846TIP3   OH224028   4.085   3.719   2.099  0.0156 -0.1946  0.4174
  846TIP3    H124029   4.037   3.799   2.078 -0.4817 -0.2917  1.1802
  846TIP3    H224030   4.118   3.689   2.014  1.3435  1.5165  0.2689
  847TIP3   OH224031   4.938   0.112  15.764  0.2987 -0.3274  0.0606
  847TIP3    H124032   4.937   0.025  15.804 -1.0155 -0.0591  0.6392
  847TIP3    H224033   5.028   0.122  15.733  0.4302 -1.9564 -0.1742
  848TIP3   OH224034   4.387   0.697   4.198 -0.4964 -0.3805  0.2942
  848TIP3    H124035   4.425   0.610   4.207  0.4483 -0.0186 -0.0546
  848TIP3    H224036   4.374   0.727   4.288  1.6690  0.1476  0.4981
  849TIP3   OH224037   5.528   3.020   0.966  0.2800 -0.1122  0.6515
  849TIP3    H124038   5.499   2.948   0.910  1.8326 -0.6185  0.4479
  849TIP3    H224039   5.609   2.988   1.006 -0.9717  0.0382  3.5734
  850TIP3   OH224040   1.305   5.135  10.836 -0.3726  0.0437  0.2425
  850TIP3    H124041   1.398   5.145  10.858  0.3344 -0.8976 -2.0770
  850TIP3    H224042   1.286   5.209  10.779 -0.9668  0.0136  0.3933
  851TIP3   OH224043   3.886   1.136  14.992 -0.1621  0.3042 -0.3880
  851TIP3    H124044   3.904   1.204  14.927  1.8104 -0.4710 -0.7260
  851TIP3    H224045   3.847   1.064  14.942  0.7434 -0.0337 -0.6347
  852TIP3   OH224046   5.128   5.249   0.195  0.1311 -0.5363 -0.2325
  852TIP3    H124047   5.196   5.249   0.262 -1.7610 -2.2041  1.8124
  852TIP3    H224048   5.046   5.242   0.243 -1.3883 -1.0047 -2.7030
  853TIP3   OH224049   2.358   2.528  12.420  0.0367 -0.2973 -0.4903
  853TIP3    H124050   2.305   2.485  12.353  0.9503 -1.6004 -0.4150
  853TIP3    H224051   2.386   2.457  12.478 -0.4223  0.7504  1.0733
  854TIP3   OH224052   4.539   0.404  14.765  0.0819 -0.3163 -0.9744
  854TIP3    H124053   4.487   0.335  14.725 -0.0363  0.8116 -2.8815
  854TIP3    H224054   4.529   0.479  14.707  0.7019  1.1345  0.7020
  855TIP3   OH224055   4.048   5.873  14.048 -0.2496 -0.3339 -0.0577
  855TIP3    H124056   4.128   5.891  14.098  0.6787 -0.2153 -1.5058
  855TIP3    H224057   4.078   5.820  13.974 -1.7266 -1.2843  0.0060
  856TIP3   OH224058   0.316   3.596   3.969  0.0343 -0.4413  0.1763
  856TIP3    H124059   0.282   3.510   3.995  1.9337 -1.1612  0.4419
  856TIP3    H224060   0.258   3.659   4.012 -0.3275 -1.5982  1.4484
  857TIP3   OH224061   3.911   3.675  15.259 -0.1363 -0.2695 -0.3890
  857TIP3    H124062   4.005   3.671  15.279 -0.1406 -0.2789 -0.3699
  857TIP3    H224063   3.906   3.719  15.174 -0.1596  0.3623 -0.0664
  858TIP3   OH224064   1.118   5.543   4.475 -0.0415  0.5709 -0.1009
  858TIP3    H124065   1.186   5.576   4.415  1.5344 -3.3691 -0.7983
  858TIP3    H224066   1.045   5.521   4.418  0.3535 -0.4770 -0.2328
  859TIP3   OH224067   3.460   1.169   0.245 -0.0365  0.1315 -0.4140
  859TIP3    H124068   3.379   1.146   0.200  1.3328 -0.0739 -2.9753
  859TIP3    H224069   3.448   1.136   0.334 -1.7725 -2.2489 -1.4112
  860TIP3   OH224070   1.290   0.303   0.440  0.1446 -0.2285 -0.5283
  860TIP3    H124071   1.237   0.344   0.508 -2.2058 -0.7283 -1.9447
  860TIP3    H224072   1.295   0.370   0.371 -0.6941 -1.0412 -1.3903
  861TIP3   OH224073   6.400   4.199   4.793 -0.1781  0.0365  0.1189
  861TIP3    H124074   6.377   4.124   4.739 -0.0594 -0.2864  0.5100
  861TIP3    H224075   6.494   4.191   4.806 -0.1564  0.2823  0.1213
  862TIP3   OH224076   4.731   0.550  16.497 -0.8974 -0.1082 -0.3692
  862TIP3    H124077   4.755   0.640  16.519 -0.1010 -0.5740  0.7300
  862TIP3    H224078   4.706   0.555  16.405  1.1535  0.8672 -0.9415
  863TIP3   OH224079   4.850   5.782   1.786 -0.4620  0.5888  0.1169
  863TIP3    H124080   4.807   5.698   1.798 -0.7346  0.9978  2.3464
  863TIP3    H224081   4.778   5.844   1.771 -0.4634  0.8269  1.0697
  864TIP3   OH224082   4.923   1.254  12.914 -0.1549 -0.5344 -0.0772
  864TIP3    H124083   4.939   1.189  12.983 -2.6530 -0.3130  0.7911
  864TIP3    H224084   5.000   1.311  12.917  1.7616 -2.9335 -0.3450
  865TIP3   OH224085   2.660   3.391  16.119  0.3631  0.3167  0.3994
  865TIP3    H124086   2.623   3.471  16.084  0.1699  0.1979  0.3300
  865TIP3    H224087   2.711   3.419  16.196  0.5034  0.5330  0.2294
  866TIP3   OH224088   3.433   2.776   4.490 -0.5250  0.5349 -0.2329
  866TIP3    H124089   3.437   2.868   4.463 -0.0569  0.1821 -1.4142
  866TIP3    H224090   3.477   2.775   4.576 -0.2820  1.3644 -0.3320
  867TIP3   OH224091   1.139   4.894   3.117 -0.3503 -0.5024 -0.7233
  867TIP3    H124092   1.188   4.954   3.060 -0.8413  1.1442  0.5060
  867TIP3    H224093   1.199   4.821   3.133  1.6182  1.2597  0.4371
  868TIP3   OH224094   1.014   3.699  17.148 -0.4038  0.5077 -0.2135
  868TIP3    H124095   1.029   3.728  17.057 -0.6508 -0.4352 -0.5697
  868TIP3    H224096   1.094   3.726  17.194 -0.1452  0.7431 -0.7766
  869TIP3   OH224097   0.553   5.493   1.853 -0.0639 -0.0393  0.6063
  869TIP3    H124098   0.627   5.531   1.806  2.4844 -1.5858  3.0598
  869TIP3    H224099   0.534   5.556   1.922 -0.0079 -0.3659  0.9202
  870TIP3   OH224100   6.598   4.568  17.233  0.2057 -0.1238  0.3823
  870TIP3    H124101   6.565   4.570  17.323 -0.1040 -1.8776  0.3387
  870TIP3    H224102   6.582   4.656  17.200 -0.3427  0.3405  1.8021
  871TIP3   OH224103   6.380   0.992   4.081  0.0210 -0.0431  0.4290
  871TIP3    H124104   6.422   0.982   4.166  0.1215 -0.0697  0.3770
  871TIP3    H224105   6.404   1.081   4.054 -0.1638  0.0311  0.5109
  872TIP3   OH224106   0.076   1.204   3.124 -0.0742 -0.4682 -0.1290
  872TIP3    H124107  -0.016   1.177   3.128  0.0567 -0.9440 -0.2744
  872TIP3    H224108   0.072   1.299   3.108 -0.5423 -0.6072 -0.9108
  873TIP3   OH224109   3.167   2.537  13.370 -0.1573 -0.1317  0.1835
  873TIP3    H124110   3.136   2.450  13.345  0.3816 -0.9505  2.1992
  873TIP3    H224111   3.129   2.595  13.304  1.2250 -2.0762 -2.5090
  874TIP3   OH224112   1.433   5.210  13.775  0.5113 -0.1892 -0.1829
  874TIP3    H124113   1.501   5.158  13.817  1.6759  0.2068 -1.5050
  874TIP3    H224114   1.388   5.149  13.716 -1.0354 -0.7124  1.4625
  875TIP3   OH224115   1.245   0.899   5.778 -0.0387 -0.7616  0.1688
  875TIP3    H124116   1.205   0.978   5.815 -2.2243 -1.1593 -1.1800
  875TIP3    H224117   1.293   0.860   5.852 -3.3501 -0.9966  2.4182
  876TIP3   OH224118   0.606   4.690   4.591 -0.2137  0.2014 -0.3798
  876TIP3    H124119   0.526   4.715   4.637  0.5656  2.2517 -0.0300
  876TIP3    H224120   0.645   4.622   4.646 -1.2219 -0.1385 -0.0634
  877TIP3   OH224121   6.743   4.695  13.377 -0.0886  0.1016 -0.8614
  877TIP3    H124122   6.749   4.622  13.315  1.0673  0.7302 -1.5250
  877TIP3    H224123   6.815   4.753  13.353  0.3057  0.4451  0.9809
  878TIP3   OH224124   4.440   0.587  14.576  0.7452 -0.5360  0.2312
  878TIP3    H124125   4.462   0.549  14.491  0.6375  0.2934 -0.1797
  878TIP3    H224126   4.345   0.575  14.584  0.6877 -0.2229  0.0329
  879TIP3   OH224127   4.733   3.244   5.591  0.5486  0.4261 -0.1411
  879TIP3    H124128   4.807   3.217   5.645  0.3034 -1.1840 -0.5479
  879TIP3    H224129   4.749   3.337   5.572  0.3189  1.2441  3.1391
  880TIP3   OH224130   2.835   0.552   5.821  0.6580  0.0434  0.0279
  880TIP3    H124131   2.757   0.498   5.803 -0.1624  0.5937  1.6940
  880TIP3    H224132   2.904   0.511   5.770 -0.6975 -0.5293 -1.4353
  881TIP3   OH224133   1.832   4.324  11.501 -0.0659 -0.4553 -0.0950
  881TIP3    H124134   1.885   4.344  11.424 -2.5161  0.4820 -1.6819
  881TIP3    H224135   1.861   4.386  11.568  1.0311 -0.2058 -0.7770
  882TIP3   OH224136   6.590   4.998   1.670  0.2575 -0.0023 -0.0472
  882TIP3    H124137   6.581   5.093   1.679  1.2594  0.0508  0.5149
  882TIP3    H224138   6.563   4.980   1.580 -1.7289  0.5728  0.3764
  883TIP3   OH224139   0.936   2.094   6.561  0.1243  0.5730  0.0701
  883TIP3    H124140   0.937   2.058   6.650 -2.9384 -0.7293 -0.2884
  883TIP3    H224141   0.846   2.082   6.532  0.7451  2.0761 -2.8085
  884TIP3   OH224142   3.799   2.182   3.749 -0.1528 -0.9870 -0.1005
  884TIP3    H124143   3.763   2.148   3.831  0.2409 -0.7503  0.1743
  884TIP3    H224144   3.894   2.184   3.763 -0.1392 -0.1470 -0.2494
  885TIP3   OH224145   6.676   1.189   5.146 -0.4609  0.6649  0.3756
  885TIP3    H124146   6.715   1.273   5.120  1.3396 -0.4596 -0.7868
  885TIP3    H224147   6.723   1.163   5.225  0.4672 -0.1951 -0.4304
  886TIP3   OH224148   3.124   0.109   3.104  0.4152 -0.3132 -0.1903
  886TIP3    H124149   3.131   0.158   3.022 -1.9560 -1.5288 -1.2056
  886TIP3    H224150   3.137   0.018   3.079 -0.8613 -0.7578  0.6556
  887TIP3   OH224151   2.496   0.282  16.960 -0.3374 -0.2789 -0.8194
  887TIP3    H124152   2.546   0.330  16.894  0.1997  0.6653  0.2341
  887TIP3    H224153   2.513   0.329  17.041 -1.8293 -0.7678 -0.1821
  888TIP3   OH224154   0.333   0.618   5.807 -0.1910  0.3564 -0.0684
  888TIP3    H124155   0.260   0.610   5.869  0.6987  1.2582  1.1290
  888TIP3    H224156   0.293   0.656   5.728 -1.2941 -0.5929  0.0165
  889TIP3   OH224157   3.556   4.937  15.860  0.4963  0.2028  0.0027
  889TIP3    H124158   3.481   4.986  15.825  2.2982  0.9984 -3.0581
  889TIP3    H224159   3.532   4.845  15.848  0.0225  0.4432 -1.0255
  890TIP3   OH224160   5.661   2.121   2.330  0.1400 -0.0657 -0.4042
  890TIP3    H124161   5.744   2.132   2.377  0.5252 -1.1437 -0.8095
  890TIP3    H224162   5.610   2.062   2.385  0.9874 -2.1775 -1.7463
  891TIP3   OH224163   0.760   5.302   1.270  0.3347 -0.3263  0.2785
  891TIP3    H124164   0.762   5.243   1.345 -0.9966 -1.5550 -0.6091
  891TIP3    H224165   0.694   5.265   1.212  1.4739  0.4680 -1.6035
  892TIP3   OH224166   3.762   3.773   5.083  0.0608 -0.6276  0.0325
  892TIP3    H124167   3.799   3.813   5.004 -0.2286  1.3553  0.8448
  892TIP3    H224168   3.815   3.808   5.155  0.5599 -2.6893  0.7529
  893TIP3   OH224169   3.121   1.117  12.364 -0.0917  0.1679 -0.1727
  893TIP3    H124170   3.030   1.090  12.371 -0.4808  0.7713 -2.2214
  893TIP3    H224171   3.117   1.208  12.335  1.1840  0.4357  0.3942
  894TIP3   OH224172   5.638   2.670   5.264  0.6909  0.3842  0.5160
  894TIP3    H124173   5.669   2.733   5.329  1.0120  0.7131  0.0465
  894TIP3    H224174   5.702   2.674   5.193  1.7259 -1.7724  1.2420
  895TIP3   OH224175   4.973   0.781  15.290  0.2775  0.2792  0.2186
  895TIP3    H124176   4.919   0.750  15.362  1.4979  0.1842  1.1195
  895TIP3    H224177   4.929   0.859  15.258 -1.3801 -0.8250 -0.3009
  896TIP3   OH224178   2.952   2.010  16.364  0.1252 -0.2201  0.1975
  896TIP3    H124179   3.010   2.000  16.439 -0.9146  1.9276  1.3932
  896TIP3    H224180   2.999   2.068  16.305  0.4266 -0.9145 -0.2555
  897TIP3   OH224181   6.302   4.721  15.329 -0.6570  0.1686 -0.2781
  897TIP3    H124182   6.327   4.651  15.390 -1.1854 -3.1407 -3.5142
  897TIP3    H224183   6.384   4.767  15.310  0.0380 -0.6139  0.7357
  898TIP3   OH224184   6.337   0.474   1.944  0.2841 -0.4816 -0.4923
  898TIP3    H124185   6.356   0.383   1.965  1.8787 -0.0852 -0.0405
  898TIP3    H224186   6.277   0.503   2.013  2.1346 -0.3800  1.1611
  899TIP3   OH224187   5.630   3.273  13.266 -0.2768  0.3382  0.1381
  899TIP3    H124188   5.657   3.363  13.248  0.8307  0.0139  0.1306
  899TIP3    H224189   5.687   3.245  13.338  1.0216 -1.1310 -1.4098
  900TIP3   OH224190   5.479   4.942   4.983 -0.2550  0.2639 -0.6698
  900TIP3    H124191   5.457   4.919   4.893  0.7742  1.3553 -1.2174
  900TIP3    H224192   5.477   5.037   4.985  2.5197  0.4017 -0.3291
  901TIP3   OH224193   4.508   1.822   4.789  0.0330  1.1178 -0.3106
  901TIP3    H124194   4.435   1.870   4.749 -0.8661 -0.7662 -1.0182
  901TIP3    H224195   4.565   1.799   4.715 -0.2537 -0.0650 -0.1743
  902TIP3   OH224196   5.449   2.283  11.849  0.0899 -0.0742 -0.1813
  902TIP3    H124197   5.411   2.296  11.936 -1.9832 -1.2261 -0.8625
  902TIP3    H224198   5.542   2.303  11.861  0.1164 -1.3999  2.5807
  903TIP3   OH224199   3.846   5.152  16.487 -0.0964  0.7253 -0.7988
  903TIP3    H124200   3.881   5.132  16.573  0.2548  0.4933 -0.9926
  903TIP3    H224201   3.814   5.068  16.453 -0.3700  0.8421 -0.8341
  904TIP3   OH224202   6.522   3.027   5.731  0.0444 -0.1255  0.0936
  904TIP3    H124203   6.590   3.050   5.794  0.2815 -0.4410 -0.0441
  904TIP3    H224204   6.569   2.981   5.661 -0.3238 -0.4063  0.0315
  905TIP3   OH224205   4.153   5.357  15.715  0.0904  0.6795  0.0066
  905TIP3    H124206   4.236   5.388  15.752  0.4156  1.7290 -1.4758
  905TIP3    H224207   4.104   5.437  15.697  0.0957  0.2866 -2.0355
  906TIP3   OH224208   6.020   3.309  13.036  0.2560  0.0024 -0.6906
  906TIP3    H124209   5.949   3.289  13.098  1.4574  0.0664  0.7810
  906TIP3    H224210   6.091   3.339  13.092  1.9040 -1.3387 -1.9886
  907TIP3   OH224211   4.768   0.509   2.927  0.1623 -0.1219  0.4132
  907TIP3    H124212   4.688   0.529   2.879 -0.1690 -0.5931  0.7560
  907TIP3    H224213   4.749   0.427   2.973 -0.4383  1.5172  3.3234
  908TIP3   OH224214   6.817   5.996  16.083 -0.8772 -0.1427 -0.2872
  908TIP3    H124215   6.763   5.982  16.006 -2.1698  2.8841 -0.0638
  908TIP3    H224216   6.756   5.992  16.156 -0.2923  0.4150  0.2459
  909TIP3   OH224217   6.202   2.552   3.349  0.0314  0.1849  0.5138
  909TIP3    H124218   6.197   2.529   3.257  1.3674  0.7741  0.2746
  909TIP3    H224219   6.111   2.551   3.379 -0.7252  2.5601 -1.4441
  910TIP3   OH224220   5.362   4.305   2.704 -0.0993  0.0498  0.0909
  910TIP3    H124221   5.383   4.257   2.624 -2.1447  0.2425 -0.6371
  910TIP3    H224222   5.399   4.392   2.690 -1.8680  0.6342 -1.4895
  911TIP3   OH224223   5.218   5.254  14.199  0.0473 -0.2903  0.1513
  911TIP3    H124224   5.245   5.302  14.120  0.1060  0.8261  0.8296
  911TIP3    H224225   5.134   5.292  14.223  0.6145  0.2639  1.3338
  912TIP3   OH224226   6.246   4.546  11.872 -0.1110 -0.9277  0.3217
  912TIP3    H124227   6.278   4.626  11.831  0.4362 -1.1085  0.3832
  912TIP3    H224228   6.204   4.574  11.953 -0.7873 -0.6122 -0.1262
  913TIP3   OH224229   2.149   4.726  13.801  0.4464 -0.0982 -0.4055
  913TIP3    H124230   2.183   4.810  13.772  1.3757 -0.4139 -0.2665
  913TIP3    H224231   2.131   4.678  13.720  0.9082 -0.1525 -0.4761
  914TIP3   OH224232   2.728   0.378  15.539 -0.0969 -0.4011  0.1684
  914TIP3    H124233   2.817   0.342  15.544 -0.0327 -0.6812 -1.9261
  914TIP3    H224234   2.725   0.445  15.607  1.7522 -0.3386  0.2429
  915TIP3   OH224235   3.836   0.743  12.501  0.0571 -0.3558 -0.1635
  915TIP3    H124236   3.901   0.755  12.570  1.0221  0.8666 -1.2355
  915TIP3    H224237   3.753   0.772  12.540  0.7486  1.1852  0.1940
  916TIP3   OH224238   6.715   0.626  12.883  0.2764  0.5062  0.3177
  916TIP3    H124239   6.643   0.588  12.832  2.0373 -2.0552 -0.4447
  916TIP3    H224240   6.742   0.703  12.832 -2.6353  2.3383  1.2859
  917TIP3   OH224241   5.591   3.423   1.949 -0.5080  0.2272 -0.1715
  917TIP3    H124242   5.530   3.486   1.988  0.7203  2.4411 -1.5991
  917TIP3    H224243   5.673   3.438   1.995 -0.4742 -1.1535  0.2287
  918TIP3   OH224244   6.175   4.500  11.208  0.1837 -0.1336 -0.4664
  918TIP3    H124245   6.222   4.478  11.289  1.6987  0.5374 -1.1127
  918TIP3    H224246   6.140   4.588  11.224 -0.0276 -0.2451 -0.3204
  919TIP3   OH224247   0.065   2.013   7.002  0.4777  0.5642 -0.2182
  919TIP3    H124248   0.145   2.002   6.951  1.4496  1.6918  0.9990
  919TIP3    H224249   0.011   2.072   6.949  0.4403 -0.1986 -1.0442
  920TIP3   OH224250   2.330   2.946   5.277  0.1846  0.1670  0.6994
  920TIP3    H124251   2.366   3.025   5.317  0.0757 -0.5210  2.2105
  920TIP3    H224252   2.237   2.946   5.300 -0.0618  0.1560 -0.2406
  921TIP3   OH224253   3.718   3.413  13.633 -0.2397 -0.8197 -0.4531
  921TIP3    H124254   3.635   3.445  13.597  0.1128 -0.6145 -1.1043
  921TIP3    H224255   3.725   3.323  13.602 -0.4378 -0.9808 -0.0201
  922TIP3   OH224256   5.696   3.549   4.967 -0.0383  0.7505  0.6744
  922TIP3    H124257   5.669   3.458   4.980  1.7682  0.1239  0.4155
  922TIP3    H224258   5.788   3.550   4.992  0.4152  2.1439 -0.8397
  923TIP3   OH224259   2.227   2.639  14.047 -0.3120  0.3647  0.0822
  923TIP3    H124260   2.133   2.632  14.059 -0.2943 -0.1380 -0.0724
  923TIP3    H224261   2.261   2.553  14.071  0.1539  0.6831  0.5833
  924TIP3   OH224262   3.448   3.910   5.174 -0.2318  0.4608 -0.7322
  924TIP3    H124263   3.358   3.876   5.176 -0.3178  0.6642  2.3908
  924TIP3    H224264   3.474   3.915   5.265  3.2238 -0.1248 -1.5592
  925TIP3   OH224265   2.899   2.445  13.242 -0.0433 -0.0811 -0.5620
  925TIP3    H124266   2.869   2.366  13.197  0.3126 -0.9124  0.6240
  925TIP3    H224267   2.862   2.517  13.191  0.2292 -0.9872 -2.0821
  926TIP3   OH224268   3.862   4.817  17.269  0.3251 -0.0724 -0.1417
  926TIP3    H124269   3.800   4.748  17.247 -2.5528  1.5871  2.0254
  926TIP3    H224270   3.855   4.880  17.197  0.7832 -0.6698 -0.7158
  927TIP3   OH224271   4.809   6.748   0.296 -0.3541 -0.7284  0.2262
  927TIP3    H124272   4.866   6.723   0.369 -0.2096  1.2835  0.8432
  927TIP3    H224273   4.724   6.709   0.317 -0.2898 -0.2455  1.4160
  928TIP3   OH224274   5.589   3.792  16.153 -0.2783  0.1736 -0.5098
  928TIP3    H124275   5.626   3.759  16.071  0.3619  0.6309 -0.4093
  928TIP3    H224276   5.600   3.720  16.215 -2.2396 -0.7985 -1.2120
  929TIP3   OH224277   2.198   4.953  15.243 -0.1997  0.1917 -0.2282
  929TIP3    H124278   2.146   4.877  15.268  2.0252 -2.2273 -2.3529
  929TIP3    H224279   2.261   4.963  15.315 -0.3982 -0.1119 -0.0101
  930TIP3   OH224280   3.030   5.983   2.960 -0.2304 -0.6380 -0.0297
  930TIP3    H124281   2.982   6.012   2.882  1.9399 -1.1037 -1.6479
  930TIP3    H224282   3.121   5.976   2.930  0.5886 -1.4033  2.4257
  931TIP3   OH224283   1.011   2.693  12.505 -0.1572  0.3288  0.4022
  931TIP3    H124284   0.922   2.675  12.538 -0.2770 -0.0344 -0.1096
  931TIP3    H224285   1.061   2.714  12.584 -1.0253  1.9627  0.5614
  932TIP3   OH224286   2.561   4.433  13.039  0.0507 -0.1153  0.2018
  932TIP3    H124287   2.517   4.509  13.001  0.3441 -0.4355 -0.7991
  932TIP3    H224288   2.493   4.365  13.043  0.2608 -0.3815 -0.6605
  933TIP3   OH224289   6.373   3.803   0.830 -0.0233  0.3118  0.6172
  933TIP3    H124290   6.392   3.896   0.837  0.3234  0.2871  0.0599
  933TIP3    H224291   6.278   3.798   0.832 -0.1120  0.8284 -0.9680
  934TIP3   OH224292   4.201   0.893   0.894  0.4297  0.8762  0.0356
  934TIP3    H124293   4.281   0.926   0.934 -0.5148  2.5424  0.6532
  934TIP3    H224294   4.135   0.902   0.963 -0.2202 -0.8610 -0.3217
  935TIP3   OH224295   3.193   4.306  14.122 -0.0334 -0.2133  0.2374
  935TIP3    H124296   3.274   4.295  14.172  0.3275 -0.7838 -0.4492
  935TIP3    H224297   3.193   4.399  14.097  0.2669 -0.1472  0.4824
  936TIP3   OH224298   3.335   5.493  16.911  0.4845 -0.5698 -0.1954
  936TIP3    H124299   3.365   5.565  16.855  1.8927 -1.1820 -0.2611
  936TIP3    H224300   3.246   5.517  16.934  0.0389 -0.0363 -2.2620
  937TIP3   OH224301   3.947   6.337  10.940 -0.4135  0.0674  0.2369
  937TIP3    H124302   4.007   6.387  10.995 -1.3451 -0.2072  1.5374
  937TIP3    H224303   3.919   6.399  10.872 -0.2019  0.7793  0.7910
  938TIP3   OH224304   3.621   1.606  16.161 -0.3966 -0.0714 -0.1886
  938TIP3    H124305   3.645   1.523  16.202 -0.9145  0.5914  1.5146
  938TIP3    H224306   3.534   1.627  16.195  0.0660  1.5726  0.0967
  939TIP3   OH224307   2.677   3.328   4.156 -0.3481 -0.0761  0.1181
  939TIP3    H124308   2.599   3.361   4.112  0.9633  1.3246 -1.2920
  939TIP3    H224309   2.703   3.251   4.105  0.1551  0.4926 -0.5047
  940TIP3   OH224310   4.410   5.643   1.780 -0.2061  0.2794 -0.3845
  940TIP3    H124311   4.420   5.567   1.837 -3.3558 -0.5516 -0.7440
  940TIP3    H224312   4.425   5.718   1.838 -0.4058 -0.5869  0.8403
  941TIP3   OH224313   3.605   1.222   3.704  0.0375  0.6906  0.1844
  941TIP3    H124314   3.639   1.195   3.790  1.2960  1.7994  0.0665
  941TIP3    H224315   3.651   1.165   3.642 -1.4718 -0.6776  0.2424
  942TIP3   OH224316   2.682   5.724  15.828  0.3804  0.0530  0.4040
  942TIP3    H124317   2.663   5.813  15.797 -0.9392 -0.6064 -0.7867
  942TIP3    H224318   2.749   5.736  15.896  0.8354  1.8756 -0.3051
  943TIP3   OH224319   5.298   4.711   4.660 -0.7239 -0.3005  0.2663
  943TIP3    H124320   5.383   4.672   4.681  0.2251  0.7393 -1.4391
  943TIP3    H224321   5.243   4.636   4.638 -0.1309 -0.9620  0.9815
  944TIP3   OH224322   2.376   0.725  16.730  0.1784  0.5854 -0.4865
  944TIP3    H124323   2.441   0.678  16.678  0.9366 -1.1686  1.8155
  944TIP3    H224324   2.305   0.746  16.669  0.9770 -1.3567 -2.1851
  945TIP3   OH224325   1.366   0.710  13.130  0.1913 -0.1675  0.3204
  945TIP3    H124326   1.334   0.742  13.046 -0.7022 -3.0174 -0.5355
  945TIP3    H224327   1.338   0.776  13.193  1.9372  2.6681 -1.6551
  946TIP3   OH224328   5.529   0.163   1.049  0.7941  0.2013 -0.4066
  946TIP3    H124329   5.583   0.227   1.004 -0.9761  1.7484 -0.4136
  946TIP3    H224330   5.455   0.212   1.082  0.5589 -1.4176  1.6921
  947TIP3   OH224331   1.791   6.638   0.188  0.2850  0.2884  0.7547
  947TIP3    H124332   1.796   6.622   0.094  0.8885 -0.4275  0.9040
  947TIP3    H224333   1.786   6.551   0.228  0.1299  0.5812  1.3952
  948TIP3   OH224334   1.200   4.293  14.612 -0.3419  0.1236 -0.5618
  948TIP3    H124335   1.292   4.299  14.638 -0.5622 -0.2763  0.3553
  948TIP3    H224336   1.156   4.256  14.688 -1.1675 -0.2814 -1.2218
  949TIP3   OH224337   1.257   6.813  15.766 -0.4146  0.0739  0.0116
  949TIP3    H124338   1.214   6.897  15.751 -0.8761  0.3630  2.4716
  949TIP3    H224339   1.185   6.751  15.782 -0.1264  0.3747  3.2619
  950TIP3   OH224340   5.163   2.097  11.778  0.3838 -0.3636  0.3448
  950TIP3    H124341   5.097   2.166  11.787 -0.4925 -0.9341 -1.3839
  950TIP3    H224342   5.215   2.123  11.702  1.1942 -0.7155  0.7633
  951TIP3   OH224343   6.769   5.847  12.215 -1.0565 -0.0599  0.0851
  951TIP3    H124344   6.706   5.824  12.148 -1.1627 -1.6373  0.6846
  951TIP3    H224345   6.826   5.771  12.222 -0.2688  0.5744  0.9021
  952TIP3   OH224346   0.226   5.962   6.564  0.5595  0.1782  0.2380
  952TIP3    H124347   0.260   5.917   6.641  0.2429 -2.5007 -1.0791
  952TIP3    H224348   0.273   5.923   6.490  0.8698  2.6744 -0.9945
  953TIP3   OH224349   6.333   1.322   5.655 -0.2024 -0.4265  0.2267
  953TIP3    H124350   6.331   1.227   5.668 -3.6616 -0.2512  2.0473
  953TIP3    H224351   6.328   1.358   5.744 -0.1539  1.4684 -0.4923
  954TIP3   OH224352   2.053   2.043   3.540  0.0323  0.1274  0.4963
  954TIP3    H124353   2.070   1.950   3.526 -0.9734 -0.1286  0.9166
  954TIP3    H224354   2.071   2.083   3.454  0.1646 -0.4923  0.2283
  955TIP3   OH224355   6.105   0.756  13.557  0.2695  0.5930  0.0672
  955TIP3    H124356   6.101   0.788  13.647 -2.2248 -0.2943  0.3552
  955TIP3    H224357   6.070   0.667  13.561 -1.1397  0.9805 -1.9084
  956TIP3   OH224358   6.402   5.061  16.849 -0.5395  0.3832 -0.0509
  956TIP3    H124359   6.424   4.994  16.785 -0.5424 -0.0572  0.3993
  956TIP3    H224360   6.345   5.017  16.912  0.9211  0.2899  1.2764
  957TIP3   OH224361   2.900   0.818  15.104 -0.3127  0.0420 -0.2937
  957TIP3    H124362   2.941   0.788  15.023 -0.8213  1.0154 -0.9376
  957TIP3    H224363   2.947   0.771  15.174  0.2103 -0.7237 -1.1360
  958TIP3   OH224364   6.683   0.147   4.563  0.1834 -0.2235  0.2111
  958TIP3    H124365   6.673   0.226   4.511  1.0284  0.1250  0.5497
  958TIP3    H224366   6.753   0.098   4.520 -1.2968 -1.4975 -0.8243
  959TIP3   OH224367   2.877   4.219   0.532 -0.5021  0.0996  0.0169
  959TIP3    H124368   2.792   4.199   0.493 -0.6008 -1.1102  0.8144
  959TIP3    H224369   2.858   4.284   0.600 -0.1754  3.2018 -2.5926
  960TIP3   OH224370   6.061   6.012  16.733 -0.3063  0.2688  0.1712
  960TIP3    H124371   6.112   6.094  16.736 -1.0977  0.8099 -0.6803
  960TIP3    H224372   6.057   5.990  16.640 -2.1509  0.5786  0.1477
  961TIP3   OH224373   5.467   2.220  11.237 -0.0492  0.1123  0.0651
  961TIP3    H124374   5.480   2.140  11.185 -0.2804 -0.0097  0.1929
  961TIP3    H224375   5.493   2.291  11.178 -2.0234  0.1203 -0.9075
  962TIP3   OH224376   6.532   0.253   3.050  0.4399 -0.2419  0.1461
  962TIP3    H124377   6.527   0.271   3.144 -0.3859 -0.5381  0.1662
  962TIP3    H224378   6.579   0.170   3.044 -2.5650 -2.1041  0.5484
  963TIP3   OH224379   6.298   6.229  15.186  0.1047  0.1801 -0.2394
  963TIP3    H124380   6.362   6.171  15.145  0.1473  0.0464  0.0129
  963TIP3    H224381   6.320   6.316  15.153 -2.4389 -0.3282 -3.8533
  964TIP3   OH224382   0.093   0.704   3.428 -0.5154  0.1892 -0.0573
  964TIP3    H124383   0.143   0.786   3.428 -0.9770  0.4920  1.3429
  964TIP3    H224384   0.141   0.648   3.367  1.9450  0.2647  1.6184
  965TIP3   OH224385   2.634   6.135  11.526  0.0171 -0.6592 -0.2986
  965TIP3    H124386   2.625   6.040  11.522  0.7362 -0.7943  0.9317
  965TIP3    H224387   2.691   6.157  11.453 -0.7208 -1.0771 -1.0230
  966TIP3   OH224388   3.487   4.295  15.211 -0.0864 -0.4210 -0.0444
  966TIP3    H124389   3.529   4.255  15.286 -0.7178 -1.1750 -0.0781
  966TIP3    H224390   3.486   4.226  15.144  0.4491  0.2264 -0.7488
  967TIP3   OH224391   3.509   1.960   1.455 -0.5552 -0.0551  1.0171
  967TIP3    H124392   3.486   1.983   1.365  0.2000  1.6350  1.2090
  967TIP3    H224393   3.453   2.016   1.509 -1.2234 -1.2842  1.6188
  968TIP3   OH224394   0.759   6.503  14.633 -0.3513  0.4409  0.3962
  968TIP3    H124395   0.663   6.506  14.640 -0.4079  0.4452 -0.2982
  968TIP3    H224396   0.776   6.515  14.540  0.3994  1.8629  0.7010
  969TIP3   OH224397   6.273   1.906   4.931 -0.2428  0.2158  0.2057
  969TIP3    H124398   6.364   1.878   4.919 -0.1782  0.3277  0.4266
  969TIP3    H224399   6.234   1.901   4.843 -0.0088  0.2190  0.1020
  970TIP3   OH224400   4.472   5.280  13.801 -0.3534  0.3420  0.6237
  970TIP3    H124401   4.453   5.231  13.881  3.0557 -0.7813  0.9456
  970TIP3    H224402   4.498   5.367  13.831  0.7996 -0.0406  0.8079
  971TIP3   OH224403   3.661   6.276   1.965  0.5362  0.5466 -0.1483
  971TIP3    H124404   3.713   6.322   2.032 -0.6491 -0.4726  1.5324
  971TIP3    H224405   3.663   6.184   1.991 -1.9305  0.4379 -0.1100
  972TIP3   OH224406   2.496   2.712  13.951  0.7418  0.0198 -0.1129
  972TIP3    H124407   2.430   2.691  14.017  2.5012 -0.5313  1.5907
  972TIP3    H224408   2.451   2.705  13.868 -1.5300  0.4855  0.9999
  973TIP3   OH224409   1.896   5.595   4.602 -0.1442 -0.2055  0.5355
  973TIP3    H124410   1.818   5.599   4.659  0.0006 -0.7378  0.7764
  973TIP3    H224411   1.883   5.666   4.540 -0.6684 -0.0792  0.7770
  974TIP3   OH224412   6.359   3.295   0.267 -0.7357  0.3558  0.3479
  974TIP3    H124413   6.400   3.342   0.339 -1.3905 -0.4935  1.3051
  974TIP3    H224414   6.366   3.203   0.292 -2.3369  0.1356  0.0743
  975TIP3   OH224415   4.236   2.365   4.171 -0.0687  0.1812 -0.2222
  975TIP3    H124416   4.223   2.438   4.232  1.3446 -0.8241  1.3737
  975TIP3    H224417   4.166   2.375   4.107  0.0782  2.9211 -0.0724
  976TIP3   OH224418   3.259   2.200  13.144  0.2595  0.6684  0.2379
  976TIP3    H124419   3.319   2.134  13.181  0.1590  1.6277  2.2658
  976TIP3    H224420   3.188   2.204  13.207  0.0191  2.3619 -0.1069
  977TIP3   OH224421   4.304   1.818  11.800 -0.3043 -0.1184 -0.4302
  977TIP3    H124422   4.252   1.834  11.721  0.5993  1.3140 -0.7733
  977TIP3    H224423   4.352   1.900  11.814 -0.0330 -0.5392  1.3018
  978TIP3   OH224424   6.396   0.599  11.636 -0.6376  0.1469 -0.5873
  978TIP3    H124425   6.417   0.626  11.546  1.3284  1.4392  0.1870
  978TIP3    H224426   6.387   0.681  11.684 -0.2363 -0.5316  0.6966
  979TIP3   OH224427   2.389   2.873  15.357 -0.0825 -0.3200 -0.3227
  979TIP3    H124428   2.360   2.827  15.278  1.4335  1.5942 -2.0778
  979TIP3    H224429   2.482   2.888  15.344  0.9040 -2.2760  3.1076
  980TIP3   OH224430   4.140   1.938   2.683 -0.2684 -0.2076 -0.5843
  980TIP3    H124431   4.219   1.896   2.650  0.4395  0.9792 -0.4653
  980TIP3    H224432   4.168   1.985   2.761 -0.4778  2.3256 -1.9242
  981TIP3   OH224433   3.928   4.149   4.857 -0.5459 -0.1757  0.7020
  981TIP3    H124434   3.903   4.235   4.890 -1.7418 -0.4795  0.6611
  981TIP3    H224435   4.010   4.129   4.901 -0.0289  1.1537  0.3856
  982TIP3   OH224436   3.557   5.842  16.550 -0.0869 -0.2172 -0.4331
  982TIP3    H124437   3.603   5.833  16.467 -1.4107 -1.9254 -1.0394
  982TIP3    H224438   3.537   5.936  16.556  1.4884  0.2064 -1.1875
  983TIP3   OH224439   5.594   1.333  13.504  0.2419 -0.0795  0.4133
  983TIP3    H124440   5.564   1.406  13.449  0.5631 -0.3969 -0.1968
  983TIP3    H224441   5.517   1.278  13.516  0.5074 -0.7934 -0.9886
  984TIP3   OH224442   2.559   3.724  10.926 -0.0109  0.0683  0.1414
  984TIP3    H124443   2.515   3.795  10.880 -0.6351 -1.0567 -1.0624
  984TIP3    H224444   2.492   3.688  10.985  0.5271  0.9420  1.3122
  985TIP3   OH224445   6.141   5.081  15.994 -0.4526 -0.3021  0.2513
  985TIP3    H124446   6.121   5.066  15.901  0.1510 -1.9189  0.3393
  985TIP3    H224447   6.196   5.006  16.018 -0.2896  0.2939  1.8274
  986TIP3   OH224448   3.725   3.155   2.456  0.7866 -0.2697  0.0292
  986TIP3    H124449   3.748   3.246   2.437  0.5060 -0.2799 -0.3708
  986TIP3    H224450   3.785   3.129   2.526  0.5078  0.3924  0.5225
  987TIP3   OH224451   5.868   3.198  12.112 -0.0602  0.1759 -0.5310
  987TIP3    H124452   5.793   3.255  12.095 -0.4635  0.9525  2.9756
  987TIP3    H224453   5.929   3.254  12.162  0.7100 -1.7034  0.7338
  988TIP3   OH224454   0.638   3.104  13.065 -0.1225 -0.3431 -0.1852
  988TIP3    H124455   0.667   3.112  13.156 -3.2643 -1.4944  1.0363
  988TIP3    H224456   0.631   3.194  13.034 -0.4430  0.1428  1.2409
  989TIP3   OH224457   6.415   0.698  14.951 -0.6357  0.0949 -0.6473
  989TIP3    H124458   6.336   0.676  15.000  0.0438 -0.3215  0.2958
  989TIP3    H224459   6.483   0.709  15.018 -0.2330  2.0458 -1.3127
  990TIP3   OH224460   2.443   5.583   3.921  0.3394  0.0135 -0.2170
  990TIP3    H124461   2.464   5.514   3.858 -0.0422  1.4486 -2.0235
  990TIP3    H224462   2.525   5.633   3.929  0.8148 -0.9972  1.6079
  991TIP3   OH224463   6.403   4.563   0.153  0.0236  0.1825 -0.8405
  991TIP3    H124464   6.356   4.645   0.167 -1.1962 -0.6678  0.4089
  991TIP3    H224465   6.473   4.564   0.219 -1.1829 -0.5730  0.5285
  992TIP3   OH224466   5.535   5.371  14.090 -0.0689  0.8029  0.1456
  992TIP3    H124467   5.486   5.412  14.161  0.7784  2.2169 -0.0487
  992TIP3    H224468   5.620   5.415  14.090  1.6101 -2.1167  1.0096
  993TIP3   OH224469   2.040   3.030  11.181  0.2778 -0.2650  0.0813
  993TIP3    H124470   1.993   3.047  11.099 -0.8969 -0.2416  0.7354
  993TIP3    H224471   2.123   2.992  11.154  1.0470  2.1514 -1.2430
  994TIP3   OH224472   0.389   1.654  14.523 -0.0047 -0.3752 -0.0341
  994TIP3    H124473   0.463   1.611  14.481 -0.2297  0.8386 -1.7727
  994TIP3    H224474   0.428   1.700  14.597  1.1752  0.8790 -1.3659
  995TIP3   OH224475   2.381   0.079  14.842  0.2789 -0.2139  0.5395
  995TIP3    H124476   2.372   0.133  14.920  0.6088  0.3614  0.1851
  995TIP3    H224477   2.309   0.106  14.786 -1.0386 -1.8801  1.3578
  996TIP3   OH224478   4.065   2.523  13.576  0.1111  0.0481  0.0674
  996TIP3    H124479   4.087   2.615  13.559 -0.4302 -0.4091 -4.0787
  996TIP3    H224480   4.150   2.481  13.592  0.5391  0.9161  0.1818
  997TIP3   OH224481   4.271   5.635   3.530  0.3395 -0.6907  0.2233
  997TIP3    H124482   4.236   5.707   3.478  2.3784  1.0548  1.1037
  997TIP3    H224483   4.240   5.556   3.486 -2.0104  0.6948 -0.7662
  998TIP3   OH224484   4.708   6.489   0.035 -0.1599  0.0003  0.0495
  998TIP3    H124485   4.758   6.569   0.053 -0.6189  0.2321  0.3299
  998TIP3    H224486   4.632   6.519  -0.014 -0.2026 -0.3004 -0.0682
  999TIP3   OH224487   5.558   6.563   4.406  0.5352 -0.1188  0.0962
  999TIP3    H124488   5.616   6.629   4.446 -0.8828  1.3426 -0.1452
  999TIP3    H224489   5.541   6.500   4.476  1.6067 -0.0329  0.4547
 1000TIP3   OH224490   0.152   2.194   3.163 -0.1653  0.1936  0.1934
 1000TIP3    H124491   0.224   2.243   3.203  1.8569 -1.4970 -1.1654
 1000TIP3    H224492   0.125   2.248   3.089  1.7446 -0.4446 -1.0336
 1001TIP3   OH224493   5.072   3.236  15.052  0.0589  0.1633  0.3307
 1001TIP3    H124494   5.127   3.163  15.081 -1.2503 -1.5912 -1.3498
 1001TIP3    H224495   5.113   3.266  14.971  0.1767  0.8266  0.6299
 1002TIP3   OH224496   4.967   6.098  11.762  0.1397 -0.4336 -0.0759
 1002TIP3    H124497   4.884   6.088  11.809 -0.5390  1.7654 -0.7151
 1002TIP3    H224498   4.969   6.023  11.702 -0.8916 -1.0553  0.6272
 1003TIP3   OH224499   6.620   5.477  15.945 -0.2520  0.4043  0.0690
 1003TIP3    H124500   6.558   5.520  15.886 -0.2196  0.6237  0.1916
 1003TIP3    H224501   6.567   5.412  15.991 -0.4895  0.8779  0.4757
 1004TIP3   OH224502   5.137   2.430  15.752 -0.3593  0.5025  0.3701
 1004TIP3    H124503   5.217   2.395  15.792 -0.6973 -0.7371  0.0194
 1004TIP3    H224504   5.162   2.452  15.663 -0.9693 -2.3820 -0.6031
 1005TIP3   OH224505   3.792   3.323   0.257  0.6499 -0.2277  0.1353
 1005TIP3    H124506   3.748   3.265   0.319 -0.0750 -0.7319 -0.8099
 1005TIP3    H224507   3.745   3.308   0.174  0.5057  1.6228 -0.1573
 1006TIP3   OH224508   1.314   3.765  13.381 -0.1779 -0.5079  0.1666
 1006TIP3    H124509   1.225   3.779  13.350 -0.2996 -1.4517  0.0617
 1006TIP3    H224510   1.369   3.808  13.315 -0.4665 -1.8817 -1.0365
 1007TIP3   OH224511   5.950   3.561   0.858  0.1440  0.1805  0.4553
 1007TIP3    H124512   5.950   3.496   0.787  2.9203 -0.1972  0.6962
 1007TIP3    H224513   5.912   3.514   0.932  0.3894 -0.5732  0.1221
 1008TIP3   OH224514   5.232   4.191  16.074  0.4334  0.0853 -0.5675
 1008TIP3    H124515   5.170   4.124  16.103  0.2243  0.8307  0.7826
 1008TIP3    H224516   5.235   4.254  16.146  0.1333  1.8818 -2.0443
 1009TIP3   OH224517   0.916   5.297   0.674  0.0681  0.1433 -0.3109
 1009TIP3    H124518   0.911   5.385   0.637  2.2158  0.3762 -0.1983
 1009TIP3    H224519   0.915   5.238   0.598 -0.0966  0.3526 -0.4688
 1010TIP3   OH224520   1.369   5.766  14.952  0.4787  0.6229  0.6991
 1010TIP3    H124521   1.333   5.848  14.918  0.4879  0.8431  1.2133
 1010TIP3    H224522   1.307   5.699  14.923  1.5268  0.5028 -1.5262
 1011TIP3   OH224523   0.167   1.602  15.117  0.6565  0.4160 -0.0319
 1011TIP3    H124524   0.165   1.662  15.192  0.9685  0.3565  0.0240
 1011TIP3    H224525   0.082   1.614  15.075  0.5781  0.6354  0.1871
 1012TIP3   OH224526   3.455   6.627   0.920 -0.5531  0.0524  0.2989
 1012TIP3    H124527   3.377   6.651   0.970 -0.1853 -1.3809  1.6335
 1012TIP3    H224528   3.421   6.584   0.841 -1.1228  1.4930 -0.2634
 1013TIP3   OH224529   4.069   3.518  16.008  1.1854  0.1911 -0.2797
 1013TIP3    H124530   4.071   3.547  16.099  1.2107 -0.3596 -0.0979
 1013TIP3    H224531   4.059   3.598  15.956 -0.7123  0.3902  0.2983
 1014TIP3   OH224532   4.616   3.459   1.118  0.1791 -0.2223  0.1538
 1014TIP3    H124533   4.623   3.472   1.023  1.3368  1.2165  0.3820
 1014TIP3    H224534   4.700   3.423   1.144 -0.2093 -0.8171  0.6149
 1015TIP3   OH224535   3.269   6.381   4.319 -0.2335  1.0955 -0.1947
 1015TIP3    H124536   3.254   6.305   4.376 -1.0523  0.6194 -1.0075
 1015TIP3    H224537   3.190   6.435   4.331 -0.4167  0.9873 -0.8580
 1016TIP3   OH224538   1.242   3.018  12.561 -0.4173 -0.1949  0.0909
 1016TIP3    H124539   1.305   3.076  12.604 -2.0014  0.9609  0.9869
 1016TIP3    H224540   1.194   3.077  12.502 -2.9140 -0.2312  1.9410
 1017TIP3   OH224541   2.747   3.982  17.215  0.0933  0.4772 -0.2101
 1017TIP3    H124542   2.705   4.065  17.192  1.1968  0.7100 -1.4963
 1017TIP3    H224543   2.800   4.003  17.292  1.5150  1.3688 -1.3803
 1018TIP3   OH224544   0.426   6.151   6.008 -0.3212  0.2582 -0.7456
 1018TIP3    H124545   0.480   6.100   5.948  0.2865  0.7015 -0.5949
 1018TIP3    H224546   0.405   6.090   6.079  1.4910  0.5290  0.0918
 1019TIP3   OH224547   6.369   1.221  13.666 -0.7828  0.5251  0.0532
 1019TIP3    H124548   6.278   1.194  13.679 -0.7570  0.2846 -0.2768
 1019TIP3    H224549   6.411   1.203  13.751 -0.9277  0.1678  0.0539
 1020TIP3   OH224550   5.384   1.011   1.733 -0.5991  0.0144 -0.4024
 1020TIP3    H124551   5.370   0.966   1.650  0.4545 -0.3283 -0.4028
 1020TIP3    H224552   5.369   1.103   1.713 -1.7028 -0.2042 -0.6493
 1021TIP3   OH224553   6.209   2.320   2.817 -0.2606 -0.2958 -0.0561
 1021TIP3    H124554   6.268   2.254   2.852 -1.1476 -0.8931  0.3275
 1021TIP3    H224555   6.147   2.271   2.762 -0.5607  0.2846 -0.2470
 1022TIP3   OH224556   6.216   4.949  17.181 -0.3279  0.1532 -0.1698
 1022TIP3    H124557   6.186   4.942  17.090  1.2607  1.5552 -0.8569
 1022TIP3    H224558   6.152   5.006  17.223 -2.2900 -2.1886  0.2467
 1023TIP3   OH224559   4.449   2.555   0.969 -0.0725  0.3184  0.2309
 1023TIP3    H124560   4.465   2.495   1.042  0.7009 -0.7559 -0.7801
 1023TIP3    H224561   4.402   2.629   1.008 -0.4989 -0.6536  1.6269
 1024TIP3   OH224562   1.749   4.565  15.232  0.3642  0.0908 -0.2904
 1024TIP3    H124563   1.754   4.486  15.286  1.5725  0.5891  0.3633
 1024TIP3    H224564   1.752   4.637  15.294  0.0877  0.6593 -0.9284
 1025TIP3   OH224565   1.940   3.261   1.679  0.2410 -0.4096 -0.6279
 1025TIP3    H124566   1.963   3.273   1.771 -0.5299 -0.9960 -0.3499
 1025TIP3    H224567   1.957   3.169   1.661 -1.7518 -0.8547 -0.4241
 1026TIP3   OH224568   6.420   5.558  11.374 -0.3988  0.1175 -0.0106
 1026TIP3    H124569   6.363   5.630  11.349 -1.7648 -0.9161  0.0051
 1026TIP3    H224570   6.499   5.600  11.408 -1.1860  1.5934  0.0576
 1027TIP3   OH224571   6.393   4.471  17.079  0.0116 -0.4141  0.3346
 1027TIP3    H124572   6.461   4.478  17.012  0.9335 -2.0642  1.0288
 1027TIP3    H224573   6.440   4.479  17.162 -1.0389  1.0458  0.8305
 1028TIP3   OH224574   3.571   2.190   6.619  0.1041 -0.0384 -0.3412
 1028TIP3    H124575   3.617   2.154   6.544 -1.4586 -0.2394 -1.2586
 1028TIP3    H224576   3.637   2.195   6.689  1.8415  1.0718 -1.9689
 1029TIP3   OH224577   0.712   5.774  12.188 -0.2855 -0.3877  0.8687
 1029TIP3    H124578   0.766   5.725  12.125  1.2489  1.8854  0.2921
 1029TIP3    H224579   0.648   5.820  12.135 -0.6368 -0.4692  1.2193
 1030TIP3   OH224580   2.821   0.064   3.859  0.3074  0.0799 -0.5374
 1030TIP3    H124581   2.821   0.047   3.765 -1.4837  0.3072 -0.6192
 1030TIP3    H224582   2.898   0.018   3.892 -0.9009 -2.9908 -1.6247
 1031TIP3   OH224583   3.008   5.958  15.077 -0.1319 -0.0917  0.7945
 1031TIP3    H124584   2.974   5.873  15.051 -1.0902  0.3568  0.5587
 1031TIP3    H224585   2.948   6.021  15.038  0.8648  0.7164  0.5192
 1032TIP3   OH224586   5.665   3.702   4.052  0.1245  0.0997  0.0222
 1032TIP3    H124587   5.717   3.740   4.123  1.8422  0.0099 -1.1487
 1032TIP3    H224588   5.666   3.608   4.069 -0.7503  0.1916  0.6851
 1033TIP3   OH224589   1.243   4.006  16.373  0.3740 -0.2964 -0.3686
 1033TIP3    H124590   1.313   4.071  16.374 -0.7137  0.8983  0.0516
 1033TIP3    H224591   1.265   3.944  16.443  1.5823 -0.5851 -0.9838
 1034TIP3   OH224592   0.609   4.119  15.521 -0.3822  0.5014 -0.1384
 1034TIP3    H124593   0.678   4.139  15.584  0.5212 -2.6582  0.0116
 1034TIP3    H224594   0.654   4.113  15.437 -0.4224 -1.5579 -0.0475
 1035TIP3   OH224595   6.444   6.162  14.269 -0.6503 -0.2441  0.4783
 1035TIP3    H124596   6.450   6.073  14.232 -0.2063  0.5554 -1.5402
 1035TIP3    H224597   6.409   6.214  14.197 -1.1445  1.1956  1.7209
 1036TIP3   OH224598   2.887   6.751   1.040  0.7788  0.3679  0.6479
 1036TIP3    H124599   2.929   6.685   0.986  0.7916  0.8753  0.0271
 1036TIP3    H224600   2.928   6.834   1.014 -1.6887  1.1395 -1.1794
 1037TIP3   OH224601   5.062   0.269  12.492 -0.6269 -0.0031  0.5695
 1037TIP3    H124602   5.143   0.277  12.440 -0.6522 -0.8872  0.3807
 1037TIP3    H224603   5.005   0.337  12.457  0.7121  1.9609  2.0136
 1038TIP3   OH224604   6.557   1.630  10.844  0.1970  0.5526  0.1302
 1038TIP3    H124605   6.466   1.608  10.824  0.4275 -1.2286  0.8824
 1038TIP3    H224606   6.551   1.716  10.886 -1.1719  0.3617  0.4044
 1039TIP3   OH224607   5.992   2.599   5.272  0.4355  0.4353 -0.8696
 1039TIP3    H124608   5.908   2.565   5.240  0.5238  0.0443 -0.6884
 1039TIP3    H224609   5.997   2.688   5.236 -1.5024  1.7068  1.6768
 1040TIP3   OH224610   4.877   1.905  14.728 -0.3391 -0.0235 -0.4031
 1040TIP3    H124611   4.782   1.894  14.733 -0.2406 -1.2770 -0.8208
 1040TIP3    H224612   4.903   1.849  14.655  0.9765 -1.5567  1.1512
 1041TIP3   OH224613   5.129   3.446   4.807 -0.0230 -0.2026  0.4586
 1041TIP3    H124614   5.108   3.369   4.754 -0.5870  0.1812  0.1104
 1041TIP3    H224615   5.044   3.477   4.838  0.2012  0.2730  0.6017
 1042TIP3   OH224616   3.545   0.284  11.963  0.1630  0.3392 -0.2678
 1042TIP3    H124617   3.560   0.378  11.955  0.1393  0.5201  1.5719
 1042TIP3    H224618   3.468   0.276  12.020  0.0605 -0.7981 -0.5276
 1043TIP3   OH224619   2.308   4.083   2.777 -0.4120 -0.0494  0.3282
 1043TIP3    H124620   2.330   4.050   2.690  0.1146  1.9460 -0.3339
 1043TIP3    H224621   2.319   4.178   2.771 -2.2253  0.3388  2.0474
 1044TIP3   OH224622   0.478   1.693  16.799  0.1484  0.3002 -0.4378
 1044TIP3    H124623   0.542   1.710  16.867 -0.0319 -1.7039  0.3055
 1044TIP3    H224624   0.480   1.771  16.743  4.2389 -0.1692 -1.2841
 1045TIP3   OH224625   1.518   4.432  15.439  0.2516 -0.3887  0.5983
 1045TIP3    H124626   1.551   4.520  15.458  1.6116 -0.2533 -1.9447
 1045TIP3    H224627   1.596   4.383  15.411 -0.7851 -1.8528  0.1696
 1046TIP3   OH224628   4.636   3.091   2.657 -0.1253  0.0136 -0.2800
 1046TIP3    H124629   4.618   3.006   2.615 -0.8346  1.4670 -3.1670
 1046TIP3    H224630   4.720   3.118   2.620 -0.3918  1.0224 -0.1612
 1047TIP3   OH224631   2.571   1.209   3.896  0.2726  0.0882  0.2596
 1047TIP3    H124632   2.484   1.171   3.888  0.2775  0.2571 -0.7477
 1047TIP3    H224633   2.562   1.298   3.862  0.3799  0.8596  2.1100
 1048TIP3   OH224634   4.974   3.925  10.925  0.3701  0.5289 -0.0559
 1048TIP3    H124635   4.983   3.834  10.896 -0.3424  0.2990  0.3985
 1048TIP3    H224636   5.062   3.951  10.952  0.7442  0.2582 -0.9829
 1049TIP3   OH224637   6.431   4.311  15.254 -0.0649  0.5239  0.3893
 1049TIP3    H124638   6.453   4.229  15.212  0.2104 -0.1652  1.8234
 1049TIP3    H224639   6.478   4.378  15.203  1.1542 -0.3801  0.2881
 1050TIP3   OH224640   0.286   4.948  16.431 -0.6370  0.1708 -0.5873
 1050TIP3    H124641   0.284   5.001  16.511 -0.4236  0.1685 -0.5795
 1050TIP3    H224642   0.209   4.892  16.437 -0.2335 -0.3364 -0.0374
 1051TIP3   OH224643   3.324   0.134   3.710  0.4819  0.2374 -0.0229
 1051TIP3    H124644   3.313   0.224   3.678  1.2300  0.0506 -0.8350
 1051TIP3    H224645   3.277   0.133   3.793 -0.6148  1.0324 -0.6025
 1052TIP3   OH224646   1.967   4.359  15.881  0.3046 -0.0083 -0.1315
 1052TIP3    H124647   2.046   4.392  15.839  0.5574  0.6354  0.8089
 1052TIP3    H224648   1.895   4.403  15.835  0.4795 -0.6174 -1.0079
 1053TIP3   OH224649   0.299   1.026   1.407  0.1335  0.2076 -0.1205
 1053TIP3    H124650   0.353   0.958   1.446  0.1684 -0.2877 -0.9953
 1053TIP3    H224651   0.282   0.995   1.318 -0.8569  0.7768 -0.1472
 1054TIP3   OH224652   5.277   4.510  15.947 -0.0423  0.4426  0.1254
 1054TIP3    H124653   5.206   4.519  16.011 -0.8724  0.9995 -0.8406
 1054TIP3    H224654   5.333   4.586  15.963 -0.4361  0.7673 -0.0422
 1055TIP3   OH224655   6.004   1.234   0.448  0.0067  0.5509  0.1385
 1055TIP3    H124656   6.069   1.200   0.385  0.2385  0.5895  0.3535
 1055TIP3    H224657   6.025   1.189   0.530 -1.1981 -0.5821 -0.1383
 1056TIP3   OH224658   0.449   4.283  11.527 -1.1821 -0.8869  0.1818
 1056TIP3    H124659   0.371   4.229  11.541 -1.7207 -0.4430 -0.8926
 1056TIP3    H224660   0.483   4.254  11.442  0.1638 -1.4580  0.9041
 1057TIP3   OH224661   2.653   2.726  14.745  0.1860  0.1584 -0.0917
 1057TIP3    H124662   2.718   2.794  14.761 -1.5598  1.6230  1.2154
 1057TIP3    H224663   2.677   2.690  14.659 -0.1249  4.0404 -2.0138
 1058TIP3   OH224664   2.858   4.859   2.064  0.6716  0.3855 -0.0846
 1058TIP3    H124665   2.818   4.901   1.988 -1.4341  0.9464  1.2404
 1058TIP3    H224666   2.936   4.816   2.030 -1.3527 -1.3104 -2.9963
 1059TIP3   OH224667   0.180   0.263  17.127 -0.0965 -0.9650 -0.1198
 1059TIP3    H124668   0.243   0.335  17.135  0.5780 -1.7125  2.0164
 1059TIP3    H224669   0.209   0.213  17.051 -0.3389  0.7501 -1.4023
 1060TIP3   OH224670   0.947   6.014  12.022  0.3218  0.7871  0.1424
 1060TIP3    H124671   0.939   6.073  12.097 -0.1023 -0.8968  1.4690
 1060TIP3    H224672   1.022   5.958  12.042 -0.1192 -0.0382 -0.4216
 1061TIP3   OH224673   3.405   0.469  15.518 -0.1186 -1.0569 -0.4895
 1061TIP3    H124674   3.472   0.519  15.565 -0.4112 -1.1889  0.0790
 1061TIP3    H224675   3.395   0.515  15.435 -0.9313  0.3045  0.3223
 1062TIP3   OH224676   2.772   4.960  15.338  0.0142 -0.1090  0.5570
 1062TIP3    H124677   2.852   4.944  15.387 -0.5565 -0.9330  1.2564
 1062TIP3    H224678   2.765   4.885  15.279 -0.3260 -0.1284  0.6208
 1063TIP3   OH224679   5.209   2.252   0.786  0.2611  0.8460  0.3844
 1063TIP3    H124680   5.249   2.204   0.713  2.3898  1.7831  0.8527
 1063TIP3    H224681   5.115   2.243   0.772  0.6109 -0.9566 -1.1602
 1064TIP3   OH224682   1.196   0.909  14.821 -0.2136  0.5836 -0.4098
 1064TIP3    H124683   1.141   0.837  14.852 -1.4649  2.2164  1.3962
 1064TIP3    H224684   1.151   0.943  14.744  0.7055 -0.8954 -1.6407
 1065TIP3   OH224685   6.801   0.759   5.381  0.1652 -0.0156 -0.5423
 1065TIP3    H124686   6.891   0.792   5.385 -0.5349  1.9145  0.6833
 1065TIP3    H224687   6.776   0.745   5.472 -1.3761  1.3520 -0.7046
 1066TIP3   OH224688   0.118   3.198  12.654 -0.2208 -0.4230  0.0293
 1066TIP3    H124689   0.126   3.271  12.714 -2.3616 -0.2256  0.1702
 1066TIP3    H224690   0.075   3.129  12.705  2.9235 -2.3462  0.2996
 1067TIP3   OH224691   6.464   2.736   2.917  0.3758 -0.2981  0.0934
 1067TIP3    H124692   6.399   2.798   2.885 -0.5964 -0.0628  2.3289
 1067TIP3    H224693   6.493   2.689   2.839 -1.0857  0.8847 -1.2240
 1068TIP3   OH224694   6.041   2.126  12.123  0.0232  0.1621 -0.2960
 1068TIP3    H124695   5.969   2.167  12.075  0.8681  1.6067 -0.3924
 1068TIP3    H224696   6.017   2.134  12.215 -0.8430 -1.1720 -0.3679
 1069TIP3   OH224697   0.445   2.932  15.829  0.3388  0.1075  0.1218
 1069TIP3    H124698   0.417   2.901  15.744  0.4992 -0.1685  0.1686
 1069TIP3    H224699   0.521   2.987  15.811  0.4716 -0.0822  0.1010
 1070TIP3   OH224700   6.029   4.284   0.674  0.0239 -0.1183 -0.5156
 1070TIP3    H124701   5.985   4.244   0.749 -0.0753  1.0485  0.0663
 1070TIP3    H224702   5.970   4.268   0.601 -1.1506  0.9733  0.1535
 1071TIP3   OH224703   1.760   4.222   1.639 -0.1348  0.4945 -1.0134
 1071TIP3    H124704   1.692   4.273   1.596  0.3287  1.9084 -0.1553
 1071TIP3    H224705   1.751   4.134   1.603 -2.5474  0.5787 -0.7431
 1072TIP3   OH224706   2.648   1.615   4.527 -0.3879 -0.0607  0.2517
 1072TIP3    H124707   2.573   1.556   4.520 -1.8733  1.8622 -1.0838
 1072TIP3    H224708   2.621   1.695   4.481  0.9496  2.2884  3.1700
 1073TIP3   OH224709   4.143   5.438   3.411  0.2047  0.3441  0.8129
 1073TIP3    H124710   4.178   5.360   3.453 -1.2514  0.3518  2.1352
 1073TIP3    H224711   4.050   5.438   3.433 -0.8147  0.1399 -2.7771
 1074TIP3   OH224712   0.486   0.786  12.115 -0.3135 -0.1618 -0.0603
 1074TIP3    H124713   0.501   0.778  12.209  0.5291 -0.9295 -0.2350
 1074TIP3    H224714   0.488   0.880  12.098 -0.0313 -0.0340  0.6288
 1075TIP3   OH224715   4.829   0.456   5.876  0.1197  0.0660  0.0093
 1075TIP3    H124716   4.847   0.362   5.880 -3.3368 -0.7442 -0.2225
 1075TIP3    H224717   4.870   0.484   5.794 -1.9074 -2.1653 -1.9543
 1076TIP3   OH224718   4.300   2.910  12.974 -0.4556 -0.0611  0.1782
 1076TIP3    H124719   4.368   2.859  12.930 -1.3953  0.3569 -1.9462
 1076TIP3    H224720   4.238   2.844  13.006 -0.3142 -0.3720 -0.1731
 1077TIP3   OH224721   0.633   4.908  13.842  0.6634 -0.0782  0.4334
 1077TIP3    H124722   0.589   4.902  13.927 -0.2226  0.3174  0.0197
 1077TIP3    H224723   0.620   4.821  13.803  0.6372 -0.1062  0.5036
 1078TIP3   OH224724   1.343   3.325   3.939  0.0052 -0.1916  0.4342
 1078TIP3    H124725   1.406   3.382   3.983  0.5520  0.0296 -0.6090
 1078TIP3    H224726   1.383   3.238   3.942 -0.8183 -0.5660  2.0057
 1079TIP3   OH224727   3.308   2.790  16.090 -0.1011 -0.4772  0.2849
 1079TIP3    H124728   3.225   2.816  16.130 -0.0321  0.6787 -0.2987
 1079TIP3    H224729   3.296   2.807  15.997  0.5411 -0.9944  0.1025
 1080TIP3   OH224730   1.078   1.559  14.667  0.5248 -0.4355  0.1597
 1080TIP3    H124731   1.167   1.595  14.662  0.0639  0.8108  0.6388
 1080TIP3    H224732   1.088   1.479  14.719  1.1045  0.6313  1.7398
 1081TIP3   OH224733   2.745   6.460   3.362 -0.0937  0.4832  0.3199
 1081TIP3    H124734   2.833   6.429   3.342 -0.2538 -1.4071  2.2104
 1081TIP3    H224735   2.745   6.472   3.457 -2.6119 -2.4012  0.8448
 1082TIP3   OH224736   6.645   5.802  14.224  0.3851 -0.0411  0.8112
 1082TIP3    H124737   6.691   5.817  14.306 -0.7948  0.6630  1.3720
 1082TIP3    H224738   6.584   5.731  14.244 -0.3056  0.5195  0.7089
 1083TIP3   OH224739   5.667   2.417  14.970 -0.1051  0.1451 -0.0223
 1083TIP3    H124740   5.724   2.456  15.036 -0.4117 -1.6333  1.3658
 1083TIP3    H224741   5.582   2.459  14.983 -0.7286 -1.5708  2.1894
 1084TIP3   OH224742   6.543   0.598   6.329 -0.1427 -0.3903 -0.2808
 1084TIP3    H124743   6.572   0.533   6.392 -0.6939 -0.3837 -0.0207
 1084TIP3    H224744   6.449   0.585   6.322 -1.2724  3.4709  3.4632
 1085TIP3   OH224745   4.892   4.371   1.678 -0.2850 -0.3827  0.5978
 1085TIP3    H124746   4.884   4.276   1.677  4.2658 -1.0088 -0.5955
 1085TIP3    H224747   4.848   4.400   1.598 -2.1010 -1.3677  1.1940
 1086TIP3   OH224748   0.948   5.811  15.949  0.3353  0.2642 -0.8515
 1086TIP3    H124749   0.871   5.787  15.897  0.1637 -0.2491 -0.3647
 1086TIP3    H224750   1.015   5.749  15.922 -0.0311 -0.6192  0.2160
 1087TIP3   OH224751   4.752   1.710  12.244  0.4460  0.1869  0.5165
 1087TIP3    H124752   4.810   1.634  12.241  0.8974  0.4582  1.6341
 1087TIP3    H224753   4.687   1.688  12.311 -0.2173  0.2575 -0.0880
 1088TIP3   OH224754   1.642   6.702  13.364  0.9124 -0.0829 -0.5247
 1088TIP3    H124755   1.599   6.626  13.403 -0.4276  0.8844 -0.0600
 1088TIP3    H224756   1.728   6.705  13.407  0.5214 -0.6389  0.3154
 1089TIP3   OH224757   6.399   6.710  17.026  0.1058  0.2040  0.4324
 1089TIP3    H124758   6.424   6.762  17.102  2.6755 -2.1779  1.4010
 1089TIP3    H224759   6.320   6.664  17.053  1.4996 -1.3319  2.1456
 1090TIP3   OH224760   5.320   2.053   2.141 -0.3969  0.2414  0.4648
 1090TIP3    H124761   5.250   2.119   2.138  2.2776  3.4291  1.3863
 1090TIP3    H224762   5.335   2.037   2.234  1.5028  1.4221  0.4253
 1091TIP3   OH224763   2.391   0.074   0.174  0.6133  0.2747 -0.2091
 1091TIP3    H124764   2.376   0.104   0.084 -0.0818  0.5549 -0.0004
 1091TIP3    H224765   2.474   0.117   0.199 -0.6473  2.5872  0.2958
 1092TIP3   OH224766   5.004   2.727  12.138 -0.6879 -0.2886 -0.4506
 1092TIP3    H124767   5.018   2.719  12.043  1.8594 -1.1510 -0.0831
 1092TIP3    H224768   4.926   2.674  12.155 -1.6861  0.5609 -2.1551
 1093TIP3   OH224769   3.473   2.986   5.179 -0.5379  0.3627  0.1564
 1093TIP3    H124770   3.558   2.994   5.135 -1.0202  0.2098 -0.8061
 1093TIP3    H224771   3.495   2.951   5.266  0.2904 -0.6712 -0.4475
 1094TIP3   OH224772   6.385   0.740  15.597 -0.2589 -0.5703  0.3751
 1094TIP3    H124773   6.356   0.696  15.517 -0.4071 -1.2260  0.7830
 1094TIP3    H224774   6.475   0.768  15.578 -0.8211  0.6810 -0.5781
 1095TIP3   OH224775   2.037   6.124  14.872 -0.3294 -0.4879 -0.2552
 1095TIP3    H124776   2.128   6.100  14.859 -0.3734 -1.1762  0.6225
 1095TIP3    H224777   1.998   6.047  14.914 -0.8353  0.5501  1.2269
 1096TIP3   OH224778   6.807   1.086   0.404  0.0985 -0.2186  0.0691
 1096TIP3    H124779   6.814   1.125   0.491  1.4783 -2.0054  0.8181
 1096TIP3    H224780   6.881   1.123   0.355 -1.3277  1.6779 -0.7967
 1097TIP3   OH224781   0.989   3.447   3.540 -0.0564  0.2658  0.3824
 1097TIP3    H124782   0.918   3.461   3.603 -1.8372 -1.3179 -1.1623
 1097TIP3    H224783   1.066   3.428   3.594 -1.0719  0.8168  2.0884
 1098TIP3   OH224784   5.172   6.463   5.202 -0.0279 -0.1244  0.2082
 1098TIP3    H124785   5.171   6.431   5.112 -1.8934  0.9445 -0.2074
 1098TIP3    H224786   5.251   6.425   5.240  2.2374  1.3580 -2.5989
 1099TIP3   OH224787   6.687   4.022   0.115  0.1498  0.3193  0.3394
 1099TIP3    H124788   6.722   3.969   0.187  0.1616 -0.6951 -0.3876
 1099TIP3    H224789   6.632   3.962   0.066 -0.3466  1.1656 -0.1541
 1100TIP3   OH224790   3.067   1.101   4.119 -0.1478  0.3830 -0.5425
 1100TIP3    H124791   2.985   1.104   4.070 -0.0711  0.7695 -0.6477
 1100TIP3    H224792   3.122   1.166   4.077  0.6954 -0.7803 -1.3131
 1101TIP3   OH224793   1.953   2.515   3.456 -0.4912  0.1546 -0.3039
 1101TIP3    H124794   1.923   2.563   3.379  1.6355  1.1902 -0.5659
 1101TIP3    H224795   1.987   2.582   3.514  3.2339 -0.8873 -0.9605
 1102TIP3   OH224796   6.490   5.200   1.220  0.0828  0.0593  0.2042
 1102TIP3    H124797   6.417   5.246   1.179 -0.1426 -0.6626 -0.2269
 1102TIP3    H224798   6.448   5.141   1.283  0.3447  0.2392  0.5439
 1103TIP3   OH224799   4.662   0.693  17.039 -0.2790  0.4822 -0.3053
 1103TIP3    H124800   4.749   0.723  17.068 -0.0166  0.0125 -0.5852
 1103TIP3    H224801   4.605   0.768  17.054  0.4061  1.2159 -1.2025
 1104TIP3   OH224802   1.225   5.181   3.741 -0.2399 -0.7695 -0.3903
 1104TIP3    H124803   1.191   5.247   3.801 -1.4627 -2.0966  0.4368
 1104TIP3    H224804   1.155   5.116   3.736  0.5774 -1.5705 -1.8690
 1105TIP3   OH224805   0.825   2.172  16.769  0.0460 -0.1245  0.6144
 1105TIP3    H124806   0.802   2.081  16.748  2.6518 -0.9905  1.1472
 1105TIP3    H224807   0.876   2.166  16.850 -0.7292  1.9876  1.3340
 1106TIP3   OH224808   1.616   0.245   6.851 -0.0522 -0.1622  0.7147
 1106TIP3    H124809   1.536   0.299   6.846  0.3591  0.3799 -0.1571
 1106TIP3    H224810   1.687   0.309   6.854  0.5311 -0.6327 -1.6099
 1107TIP3   OH224811   0.394   6.095   3.065 -0.5318  0.0946 -0.0504
 1107TIP3    H124812   0.364   6.004   3.055 -0.6799  0.2339 -0.9163
 1107TIP3    H224813   0.353   6.142   2.993 -0.1277  0.7767  0.1564
 1108TIP3   OH224814   3.657   6.734  12.019 -0.1322 -0.0366 -0.1891
 1108TIP3    H124815   3.589   6.771  12.074 -0.7897  0.3226 -1.2082
 1108TIP3    H224816   3.626   6.647  11.996  1.0968 -1.0189  1.6464
 1109TIP3   OH224817   0.598   4.493  13.729  0.4475 -0.8665 -0.3686
 1109TIP3    H124818   0.636   4.422  13.780 -0.9733 -0.9976  0.5442
 1109TIP3    H224819   0.571   4.558  13.794  0.3292 -0.1738 -1.0917
 1110TIP3   OH224820   3.145   3.845  13.222 -0.3175 -0.0861 -0.2243
 1110TIP3    H124821   3.075   3.791  13.184 -1.3880 -0.3051  1.9021
 1110TIP3    H224822   3.170   3.904  13.151 -1.1755 -1.4148 -1.7024
 1111TIP3   OH224823   1.647   5.175  11.149  0.0410  0.1519  0.3160
 1111TIP3    H124824   1.668   5.188  11.057  0.8903  1.4480  0.6515
 1111TIP3    H224825   1.640   5.264  11.184 -0.1693 -0.3188  1.5170
 1112TIP3   OH224826   2.954   1.971  15.820 -0.9773 -0.0210  0.8300
 1112TIP3    H124827   2.873   2.020  15.806 -0.9759 -0.6262 -2.0023
 1112TIP3    H224828   2.945   1.895  15.762  1.1025 -0.7579  1.4019
 1113TIP3   OH224829   5.923   4.554   3.318 -0.0172  0.1920 -0.0263
 1113TIP3    H124830   5.937   4.475   3.369 -1.2903  0.1496  0.3071
 1113TIP3    H224831   5.982   4.546   3.244 -0.5257 -1.3465 -0.2998
 1114TIP3   OH224832   0.534   3.352  15.836 -0.3064  0.5560 -0.2069
 1114TIP3    H124833   0.536   3.273  15.782 -0.8732  0.0407  0.5127
 1114TIP3    H224834   0.449   3.349  15.880  1.0517 -0.2763  2.5493
 1115TIP3   OH224835   2.438   3.697  12.474 -0.2618  0.4680 -0.3363
 1115TIP3    H124836   2.368   3.757  12.500  1.1030  1.4603  1.2076
 1115TIP3    H224837   2.500   3.753  12.426  0.4639  0.0637  0.1127
 1116TIP3   OH224838   2.908   0.777  16.185 -0.0886  0.2015 -0.3052
 1116TIP3    H124839   2.932   0.853  16.238 -0.0621 -0.6781  0.9837
 1116TIP3    H224840   2.829   0.804  16.139 -1.2303  0.3596  1.6516
 1117TIP3   OH224841   3.269   2.175   1.709  0.1295 -0.7626 -0.1550
 1117TIP3    H124842   3.217   2.095   1.696  0.0333 -1.0911  1.8962
 1117TIP3    H224843   3.356   2.142   1.732 -0.2179 -0.3484  1.9211
 1118TIP3   OH224844   4.968   4.740   3.706  0.5106  0.1086  0.0549
 1118TIP3    H124845   4.988   4.798   3.779  1.7931 -0.2586  0.0110
 1118TIP3    H224846   4.993   4.653   3.736 -0.3149 -0.2690 -0.3030
 1119TIP3   OH224847   1.286   4.169   2.945  0.1471  0.1004  0.3703
 1119TIP3    H124848   1.208   4.150   2.997  0.1972 -2.0346 -0.2249
 1119TIP3    H224849   1.255   4.173   2.855  0.7054 -0.9339  0.1112
 1120TIP3   OH224850   4.931   4.761   4.754 -0.3799  0.1904  0.1057
 1120TIP3    H124851   4.838   4.739   4.760 -0.3448  0.3851  2.2810
 1120TIP3    H224852   4.946   4.779   4.662 -2.8885  1.8315 -0.0695
 1121TIP3   OH224853   0.746   5.008  13.426 -0.0598 -0.5481 -0.4329
 1121TIP3    H124854   0.785   5.092  13.399 -2.5194  1.0797  0.6805
 1121TIP3    H224855   0.652   5.026  13.429 -0.7100 -3.5272 -0.5605
 1122TIP3   OH224856   4.313   4.827  13.597  0.2408 -0.3503  0.3703
 1122TIP3    H124857   4.376   4.827  13.670 -1.0118  0.9324  1.4999
 1122TIP3    H224858   4.352   4.768  13.532  3.2537  1.3285  0.4667
 1123TIP3   OH224859   0.175   6.540  13.231 -0.4411 -0.6384  0.0029
 1123TIP3    H124860   0.170   6.447  13.209 -0.3976 -0.3240 -1.3854
 1123TIP3    H224861   0.269   6.559  13.230 -0.4993 -0.3672 -0.6710
 1124TIP3   OH224862   2.708   1.618   6.641 -0.3938  0.2366  0.3987
 1124TIP3    H124863   2.680   1.705   6.614  1.4218  0.7015 -0.1581
 1124TIP3    H224864   2.668   1.559   6.578  2.9280  1.2150 -3.0254
 1125TIP3   OH224865   1.065   6.252  11.630  0.3817 -0.8344 -0.4413
 1125TIP3    H124866   1.096   6.165  11.657  4.8537  1.2310  2.1388
 1125TIP3    H224867   1.122   6.277  11.558 -1.5589 -0.2639 -1.8861
 1126TIP3   OH224868   3.623   0.742   0.856 -0.1845  0.5107  0.0508
 1126TIP3    H124869   3.699   0.712   0.907 -0.1352  1.9633  0.8985
 1126TIP3    H224870   3.649   0.732   0.765  0.0901 -1.2768  0.2974
 1127TIP3   OH224871   0.928   0.579   5.194  0.0338 -0.0007 -0.0465
 1127TIP3    H124872   0.952   0.648   5.255 -2.1871 -1.3882  2.5719
 1127TIP3    H224873   0.991   0.509   5.210  0.4176  0.2309 -0.5162
 1128TIP3   OH224874   6.631   1.588  12.522  0.2323 -0.1498  0.1975
 1128TIP3    H124875   6.695   1.623  12.583 -0.9831  1.5051  0.6025
 1128TIP3    H224876   6.550   1.581  12.573 -0.6676  0.7618 -1.0327
 1129TIP3   OH224877   3.413   1.797  16.405 -0.4403 -0.1884  0.3828
 1129TIP3    H124878   3.444   1.774  16.493 -0.2469 -0.4112  0.2575
 1129TIP3    H224879   3.387   1.714  16.366  0.3586 -0.2217 -0.1135
 1130TIP3   OH224880   6.106   1.961   0.675  0.2168 -0.0044  0.3457
 1130TIP3    H124881   6.056   1.888   0.710 -0.0119  0.4863  1.0876
 1130TIP3    H224882   6.100   2.029   0.743 -0.8884  1.2906 -0.9717
 1131TIP3   OH224883   6.502   1.693   1.991  0.3464  0.0688  0.2496
 1131TIP3    H124884   6.509   1.678   1.897  0.2840 -0.4432  0.3207
 1131TIP3    H224885   6.450   1.619   2.023  0.1376  0.3850  0.6459
 1132TIP3   OH224886   5.259   0.347   6.188  0.4918  0.0400 -0.1965
 1132TIP3    H124887   5.315   0.348   6.266 -0.2335 -1.1144  0.3668
 1132TIP3    H224888   5.187   0.289   6.211 -0.3450  0.5906 -1.3298
 1133TIP3   OH224889   6.134   0.216   2.136  0.2599  0.6661  0.3136
 1133TIP3    H124890   6.086   0.294   2.108  1.8717  1.2846 -0.9244
 1133TIP3    H224891   6.204   0.250   2.192  1.1212  0.1596 -0.4357
 1134TIP3   OH224892   0.343   5.507   5.542 -0.6468  0.4465 -0.3948
 1134TIP3    H124893   0.270   5.446   5.551 -0.3482  0.2358  0.6477
 1134TIP3    H224894   0.407   5.479   5.606  0.9990 -0.2462 -2.2254
 1135TIP3   OH224895   0.843   1.773  16.444 -0.2403  0.1882  0.0701
 1135TIP3    H124896   0.808   1.703  16.389  2.2501 -1.8314  0.8600
 1135TIP3    H224897   0.906   1.818  16.388 -0.9469  1.0771 -0.0448
 1136TIP3   OH224898   6.065   6.312  15.329  0.2322 -0.0154  0.7032
 1136TIP3    H124899   6.058   6.239  15.390 -1.0774 -0.5833 -0.0721
 1136TIP3    H224900   6.135   6.286  15.269 -0.2446 -0.6609  0.4155
 1137TIP3   OH224901   0.152   3.685  13.795  0.3171 -0.1870  0.3723
 1137TIP3    H124902   0.174   3.593  13.808  0.3271 -0.3399 -0.6861
 1137TIP3    H224903   0.237   3.728  13.784  0.2844 -0.1475  0.2736
 1138TIP3   OH224904   2.627   5.939   0.670  0.2164 -0.5024 -0.1005
 1138TIP3    H124905   2.561   5.929   0.601 -0.1490  0.6450  0.0598
 1138TIP3    H224906   2.710   5.921   0.625  0.0780  1.1545 -1.1113
 1139TIP3   OH224907   0.214   0.735  14.703  0.4004  0.2415  0.4687
 1139TIP3    H124908   0.201   0.640  14.708 -0.3668  0.3115 -0.0647
 1139TIP3    H224909   0.226   0.752  14.610  0.6547  0.6625  0.5761
 1140TIP3   OH224910   5.769   3.490   1.047 -0.2288  0.1424 -0.0601
 1140TIP3    H124911   5.733   3.575   1.073 -0.0694  0.3672 -0.5593
 1140TIP3    H224912   5.696   3.445   1.006 -0.4120 -0.1099  0.5459
 1141TIP3   OH224913   3.454   4.658  16.293  0.0799 -0.5620 -0.3010
 1141TIP3    H124914   3.374   4.687  16.336 -0.6426 -1.7785 -0.7738
 1141TIP3    H224915   3.523   4.672  16.358 -0.6692 -0.4136  0.4717
 1142TIP3   OH224916   3.333   1.899  13.585  0.3282  0.2971 -0.6798
 1142TIP3    H124917   3.384   1.824  13.616 -1.3090  0.0595  1.6944
 1142TIP3    H224918   3.372   1.975  13.629 -0.5606  0.2741  0.1710
 1143TIP3   OH224919   2.002   1.646   0.442  0.1454 -0.3897  0.0512
 1143TIP3    H124920   1.995   1.617   0.533  1.0665  0.3695  0.3735
 1143TIP3    H224921   2.084   1.608   0.411  2.3479  3.1139  1.0118
 1144TIP3   OH224922   0.205   6.290   6.076  0.2371 -0.4369  0.5014
 1144TIP3    H124923   0.282   6.236   6.057 -0.3990 -0.8179 -1.1975
 1144TIP3    H224924   0.238   6.380   6.071  0.5842 -0.5949 -0.2576
 1145TIP3   OH224925   1.787   0.887   4.445  0.6081  0.2525  0.0560
 1145TIP3    H124926   1.759   0.827   4.375 -1.7079  1.1484  0.1068
 1145TIP3    H224927   1.823   0.963   4.399  0.7459  0.0874 -0.1103
 1146TIP3   OH224928   0.169   2.797  15.899 -0.3127 -0.1367  0.1448
 1146TIP3    H124929   0.197   2.876  15.945  0.5864 -0.6680  0.5227
 1146TIP3    H224930   0.159   2.825  15.807  0.2216  0.3534  0.2328
 1147TIP3   OH224931   1.199   3.478  14.904 -0.2548  0.1620  0.3400
 1147TIP3    H124932   1.280   3.459  14.952  0.2993  3.0247  0.7414
 1147TIP3    H224933   1.225   3.474  14.812 -0.8388 -3.3479  0.2065
 1148TIP3   OH224934   1.926   0.611   1.535 -0.0701 -0.2454  0.1786
 1148TIP3    H124935   1.974   0.535   1.565  0.7917  0.5618  0.9055
 1148TIP3    H224936   1.863   0.629   1.605  0.1211  0.0395  0.2827
 1149TIP3   OH224937   0.437   6.208  11.929 -0.2641 -0.0063 -0.2129
 1149TIP3    H124938   0.452   6.148  11.857 -0.6053  1.5295 -1.6279
 1149TIP3    H224939   0.361   6.259  11.903  0.3361  1.4101  0.6614
 1150TIP3   OH224940   3.124   1.468   1.582  0.0265 -0.2483 -0.3249
 1150TIP3    H124941   3.179   1.449   1.507 -0.3538  2.1277 -1.2714
 1150TIP3    H224942   3.110   1.562   1.580 -1.1920 -0.2925  1.9102
 1151TIP3   OH224943   4.752   0.456  16.962  0.1497  0.3669 -0.3052
 1151TIP3    H124944   4.696   0.531  16.984 -2.3964 -1.1005 -1.3076
 1151TIP3    H224945   4.721   0.386  17.019  1.8399 -0.2039 -0.0551
 1152TIP3   OH224946   5.514   3.658   2.130  0.2483  0.4371 -0.2446
 1152TIP3    H124947   5.602   3.681   2.161  0.4419 -1.9483  1.2251
 1152TIP3    H224948   5.480   3.600   2.198 -1.4733 -0.7464 -2.0276
 1153TIP3   OH224949   5.931   2.500  12.627 -0.3554  0.2868  0.2236
 1153TIP3    H124950   5.973   2.521  12.710  1.7026  0.0364 -0.6736
 1153TIP3    H224951   5.920   2.405  12.629  0.8737  0.1093 -0.2498
 1154TIP3   OH224952   6.213   2.967   0.188 -0.2522  0.4443 -0.6396
 1154TIP3    H124953   6.283   3.030   0.174  0.9552 -0.8437 -0.5715
 1154TIP3    H224954   6.167   2.962   0.104 -0.4046  1.4457 -0.6229
 1155TIP3   OH224955   5.843   4.940  15.865  0.0187  0.3252  0.2275
 1155TIP3    H124956   5.912   4.874  15.862  0.5080  0.8548 -1.4852
 1155TIP3    H224957   5.872   5.001  15.933 -0.2799 -0.9909  1.6029
 1156TIP3   OH224958   3.107   6.663  11.556  0.2323  0.7020  0.6297
 1156TIP3    H124959   3.085   6.650  11.463 -0.9963 -0.3542  1.0352
 1156TIP3    H224960   3.107   6.758  11.567 -1.7249  0.8248 -0.0072
 1157TIP3   OH224961   6.562   4.325   5.028  0.0910 -0.0728 -0.7621
 1157TIP3    H124962   6.508   4.281   4.962 -0.7521  0.3933 -0.3985
 1157TIP3    H224963   6.549   4.418   5.012  0.7853  0.0481 -0.6537
 1158TIP3   OH224964   2.752   5.841  11.602  0.2038  0.3727 -0.0177
 1158TIP3    H124965   2.796   5.811  11.682  1.4746 -1.3808 -1.3032
 1158TIP3    H224966   2.818   5.894  11.558  1.2882 -2.4806 -2.0875
 1159TIP3   OH224967   4.121   1.343   3.332 -0.6634  0.9390  0.3128
 1159TIP3    H124968   4.105   1.249   3.318  2.7375  0.4142 -1.1238
 1159TIP3    H224969   4.115   1.381   3.244 -2.6282  2.2830  0.9564
 1160TIP3   OH224970   3.942   5.366   2.865  0.1112  0.6559  0.3591
 1160TIP3    H124971   3.934   5.311   2.943  0.1098 -1.3569 -0.9793
 1160TIP3    H224972   3.950   5.303   2.792 -0.4727  2.4431 -1.3321
 1161TIP3   OH224973   4.312   4.645   2.380 -0.3676 -0.1681  0.1895
 1161TIP3    H124974   4.235   4.654   2.437  0.2360 -0.7285  1.1195
 1161TIP3    H224975   4.369   4.717   2.407 -0.0373 -0.4964  0.3679
 1162TIP3   OH224976   6.189   3.964   3.899  0.4325 -0.0311  0.8150
 1162TIP3    H124977   6.132   3.892   3.925 -1.1581  1.2067  0.9697
 1162TIP3    H224978   6.129   4.038   3.887  2.0468  1.3888  1.1330
 1163TIP3   OH224979   6.645   4.693  15.705  0.0120  0.3909 -0.0739
 1163TIP3    H124980   6.627   4.604  15.673 -0.5836  0.5923 -0.3019
 1163TIP3    H224981   6.568   4.744  15.680 -0.1750  0.7093  1.0734
 1164TIP3   OH224982   4.966   5.182  11.100  0.4292 -0.0800  0.2229
 1164TIP3    H124983   4.985   5.089  11.090  1.9870 -0.0314  1.9737
 1164TIP3    H224984   4.925   5.189  11.186  0.5376  0.8677  0.2104
 1165TIP3   OH224985   6.539   2.141  11.416  0.0977 -0.4248  0.5464
 1165TIP3    H124986   6.568   2.055  11.384 -0.7030 -0.5674  0.1813
 1165TIP3    H224987   6.591   2.155  11.495 -0.4459 -1.6986  1.1703
 1166TIP3   OH224988   1.347   2.134   0.174 -0.3245 -0.6279  0.1593
 1166TIP3    H124989   1.434   2.141   0.136 -0.7630 -1.4309 -1.0713
 1166TIP3    H224990   1.360   2.144   0.268  0.8110  1.3699 -0.1681
 1167TIP3   OH224991   1.340   2.919  11.089 -0.0197  0.5200 -0.3494
 1167TIP3    H124992   1.394   2.875  11.023  0.5232  0.7925 -0.0915
 1167TIP3    H224993   1.316   3.002  11.048  1.4336  1.2775  0.3011
 1168TIP3   OH224994   4.571   4.125   1.725  0.4055 -0.1116 -0.2544
 1168TIP3    H124995   4.649   4.121   1.781  0.2539  0.0577 -0.0313
 1168TIP3    H224996   4.606   4.134   1.636  0.6539  2.0681  0.0026
 1169TIP3   OH224997   3.283   6.320   1.958  0.0375 -0.4588 -0.6203
 1169TIP3    H124998   3.329   6.247   1.916 -0.9044 -0.6280 -1.4037
 1169TIP3    H224999   3.224   6.279   2.021  2.0730 -0.1694  1.6283
 1170TIP3   OH225000   2.186   5.135   1.612 -0.2408  0.1430 -0.4281
 1170TIP3    H125001   2.164   5.098   1.697  2.5903 -0.8814 -0.0249
 1170TIP3    H225002   2.114   5.194   1.592 -0.2263  1.8145  3.5321
 1171TIP3   OH225003   3.099   5.526  15.557 -0.5475 -0.7088  0.4118
 1171TIP3    H125004   3.125   5.514  15.648 -1.8120  1.1964  1.0705
 1171TIP3    H225005   3.130   5.614  15.534  1.0575 -1.6925 -1.5036
 1172TIP3   OH225006   0.977   1.780   0.598 -0.5504  0.3726  0.0312
 1172TIP3    H125007   0.893   1.813   0.631 -0.9629 -1.2819  0.7375
 1172TIP3    H225008   1.039   1.795   0.669 -0.5894  0.1847  0.1031
 1173TIP3   OH225009   1.539   6.487  13.506 -0.0277  0.0692 -0.0549
 1173TIP3    H125010   1.493   6.507  13.588 -0.2946 -1.4120  0.1821
 1173TIP3    H225011   1.488   6.417  13.466  1.0642 -0.4259 -0.6296
 1174TIP3   OH225012   2.366   1.098   6.379 -0.3273  0.3261  0.2250
 1174TIP3    H125013   2.389   1.173   6.433 -0.2574  0.8850 -0.5516
 1174TIP3    H225014   2.425   1.105   6.303 -0.3155 -0.5178  0.1512
 1175TIP3   OH225015   4.243   1.604  15.576  0.3702  0.0375 -0.1284
 1175TIP3    H125016   4.316   1.667  15.573  0.3944  0.1249  1.2560
 1175TIP3    H225017   4.276   1.533  15.630 -0.8677  0.5153  1.3311
 1176TIP3   OH225018   3.941   5.162  15.499  0.6097 -0.0694  0.0027
 1176TIP3    H125019   3.915   5.176  15.590 -0.6695  0.4312 -0.4095
 1176TIP3    H225020   3.953   5.250  15.464  1.3799 -0.2660 -0.2497
 1177TIP3   OH225021   0.871   5.738  13.338  0.5120  0.2193 -0.0557
 1177TIP3    H125022   0.893   5.821  13.379 -1.0963  0.2381  0.8500
 1177TIP3    H225023   0.778   5.747  13.314  0.4248 -1.1620 -0.3228
 1178TIP3   OH225024   2.216   1.439  16.458  0.1515 -0.0277 -0.4035
 1178TIP3    H125025   2.222   1.344  16.455 -0.3053 -0.3015  3.0276
 1178TIP3    H225026   2.303   1.470  16.435  0.9055 -1.4140  0.4726
 1179TIP3   OH225027   5.855   0.099   2.257 -0.3047  0.0900 -0.5270
 1179TIP3    H125028   5.942   0.135   2.238  0.1447 -0.8101 -0.2145
 1179TIP3    H225029   5.846   0.106   2.352  0.1160 -1.3053 -0.3601
 1180TIP3   OH225030   3.150   5.546   6.967  0.4927  0.2084  0.1883
 1180TIP3    H125031   3.062   5.581   6.954  0.7833  1.0310  0.4372
 1180TIP3    H225032   3.206   5.623   6.972  1.5814 -0.3179 -2.3573
 1181TIP3   OH225033   6.529   6.240   0.949 -0.1065  0.1264 -0.2020
 1181TIP3    H125034   6.585   6.187   1.006  0.5301  1.5884  0.5983
 1181TIP3    H225035   6.590   6.289   0.894 -0.5769  1.6786  0.6161
 1182TIP3   OH225036   6.305   5.154   0.882 -0.0589 -0.2188 -0.7482
 1182TIP3    H125037   6.283   5.210   0.957 -0.1226 -1.4612  0.1879
 1182TIP3    H225038   6.248   5.186   0.812 -0.6864  0.3589 -0.0007
 1183TIP3   OH225039   4.363   4.635   2.736 -0.0413  0.1894  0.4057
 1183TIP3    H125040   4.311   4.712   2.713  1.0690  0.4496 -1.4651
 1183TIP3    H225041   4.300   4.573   2.771 -1.6151  0.5427 -1.6482
 1184TIP3   OH225042   2.747   4.322  11.212 -0.3796 -0.4081 -0.3877
 1184TIP3    H125043   2.660   4.288  11.194 -0.6327 -0.0419  0.1079
 1184TIP3    H225044   2.785   4.341  11.126 -2.4736  3.6851 -0.6554
 1185TIP3   OH225045   2.899   4.826  17.169  0.3138 -0.3892  0.0958
 1185TIP3    H125046   2.920   4.919  17.167 -1.1369  0.0890  2.5062
 1185TIP3    H225047   2.975   4.784  17.209  0.4817 -0.0779  0.0994
 1186TIP3   OH225048   3.530   0.130   2.563  0.3329 -0.2989  0.2662
 1186TIP3    H125049   3.519   0.209   2.615 -0.0730 -0.6910  0.7857
 1186TIP3    H225050   3.622   0.131   2.536 -0.1441  1.4580 -1.5551
 1187TIP3   OH225051   5.954   2.680  15.450  0.1756  0.6439 -0.2027
 1187TIP3    H125052   5.901   2.735  15.392 -2.2991 -2.2169 -0.8549
 1187TIP3    H225053   5.920   2.696  15.538  1.1657  1.9313 -0.0257
 1188TIP3   OH225054   5.472   1.781   5.963  0.4168  0.5528  0.0726
 1188TIP3    H125055   5.504   1.719   6.029  0.0416 -0.9942 -1.1251
 1188TIP3    H225056   5.514   1.753   5.881  0.7199  2.2924 -0.4065
 1189TIP3   OH225057   5.736   4.829   6.126  0.0192 -0.0730 -0.0378
 1189TIP3    H125058   5.724   4.769   6.053 -0.7583  0.0595 -0.0193
 1189TIP3    H225059   5.701   4.913   6.094  2.6278  0.8791 -0.7147
 1190TIP3   OH225060   0.570   0.972  11.089 -0.1362 -0.0674  0.3683
 1190TIP3    H125061   0.537   0.979  11.000  0.9300  1.1472  0.0262
 1190TIP3    H225062   0.661   0.943  11.078 -0.6288 -2.0991  1.2072
 1191TIP3   OH225063   5.720   0.131  15.104 -0.2342 -0.2720  0.2943
 1191TIP3    H125064   5.711   0.052  15.158 -0.4148 -0.5379 -0.1162
 1191TIP3    H225065   5.680   0.107  15.021  0.2453  0.0546 -0.0350
 1192TIP3   OH225066   3.781   0.401   1.394 -0.0107 -0.0197 -0.6355
 1192TIP3    H125067   3.740   0.468   1.448 -0.6319 -1.5971  0.9423
 1192TIP3    H225068   3.858   0.444   1.355 -1.3802  2.0864 -1.1487
 1193TIP3   OH225069   0.964   2.888  11.082 -0.2100  0.3001 -0.5788
 1193TIP3    H125070   0.975   2.942  11.004 -0.8789  0.0375 -0.8651
 1193TIP3    H225071   0.950   2.800  11.049  1.4864 -0.1823 -0.0958
 1194TIP3   OH225072   2.931   5.447  11.649  0.3061 -0.5174 -0.0784
 1194TIP3    H125073   2.935   5.493  11.565 -0.4173  3.1101  1.6759
 1194TIP3    H225074   3.012   5.472  11.694 -0.6179 -0.0130  1.3653
 1195TIP3   OH225075   4.222   0.714   1.773 -0.2093  0.1311 -0.6010
 1195TIP3    H125076   4.237   0.628   1.812  0.3302  0.5192  0.0653
 1195TIP3    H225077   4.230   0.775   1.846 -1.0014  0.7207 -0.9908
 1196TIP3   OH225078   6.656   0.449  11.701  0.4148 -0.0123  0.8915
 1196TIP3    H125079   6.699   0.447  11.615 -1.4333  1.1262 -0.1131
 1196TIP3    H225080   6.569   0.485  11.684 -1.2313 -2.7283  2.7315
 1197TIP3   OH225081   6.656   0.604   1.277  0.4285 -0.0562 -0.3857
 1197TIP3    H125082   6.665   0.509   1.270 -0.4374 -0.0906 -1.1512
 1197TIP3    H225083   6.564   0.621   1.258  0.1986  0.8045  1.2956
 1198TIP3   OH225084   3.475   2.484  11.905  0.1851  0.2741  0.3562
 1198TIP3    H125085   3.401   2.534  11.938 -0.3239 -0.5639  0.5072
 1198TIP3    H225086   3.521   2.545  11.847 -0.5156  0.8613  0.4045
 1199TIP3   OH225087   2.923   3.666   1.196  0.1012 -0.6950  0.1268
 1199TIP3    H125088   2.994   3.632   1.140 -2.6609 -3.0559 -2.2985
 1199TIP3    H225089   2.896   3.748   1.153  0.3324 -0.6273  0.1099
 1200TIP3   OH225090   4.202   5.447  11.476  0.5575  0.1762 -0.0303
 1200TIP3    H125091   4.220   5.450  11.382  0.0675 -0.1821 -0.1374
 1200TIP3    H225092   4.117   5.490  11.486 -0.3826 -1.6146 -0.0126
 1201TIP3   OH225093   6.400   5.929  15.714  0.3265 -0.3884  0.5301
 1201TIP3    H125094   6.382   6.022  15.700  0.0811 -0.6148 -0.8245
 1201TIP3    H225095   6.360   5.908  15.798 -0.7841  0.4163  0.2118
 1202TIP3   OH225096   0.986   5.973  16.828  0.1844  0.1122 -0.3431
 1202TIP3    H125097   0.936   5.894  16.844  2.0221 -1.6923 -2.7129
 1202TIP3    H225098   0.931   6.044  16.860 -1.8579 -2.0422  1.1986
 1203TIP3   OH225099   2.370   0.347  12.060 -1.0632 -0.1743  0.2464
 1203TIP3    H125100   2.334   0.345  12.149 -0.0869  0.5965  0.6801
 1203TIP3    H225101   2.460   0.316  12.070 -0.5994  0.9568 -0.2852
 1204TIP3   OH225102   3.235   4.532   4.354 -0.2507 -0.0395 -0.1380
 1204TIP3    H125103   3.254   4.505   4.264  0.0204 -0.5168  0.0581
 1204TIP3    H225104   3.317   4.521   4.401 -0.3306  0.4361  0.1196
 1205TIP3   OH225105   4.622   3.723  16.679  0.6510  0.2799 -0.0923
 1205TIP3    H125106   4.575   3.803  16.653 -0.1125  0.4216  1.5709
 1205TIP3    H225107   4.610   3.663  16.605 -1.6188  0.5601 -0.0210
 1206TIP3   OH225108   0.919   6.408  15.835 -0.2764  0.8995 -0.3397
 1206TIP3    H125109   0.963   6.412  15.920 -1.2001 -0.4576  0.2259
 1206TIP3    H225110   0.991   6.394  15.773  0.3144  1.0076  0.2996
 1207TIP3   OH225111   5.418   1.555   0.837 -0.0045 -0.1286 -0.4075
 1207TIP3    H125112   5.355   1.608   0.789 -0.7345 -0.9046 -0.3290
 1207TIP3    H225113   5.429   1.600   0.921 -1.3483 -0.5808  0.0384
 1208TIP3   OH225114   4.150   5.105  12.037 -0.2962  0.4996 -0.1881
 1208TIP3    H125115   4.209   5.127  12.109 -0.4445  0.8181 -0.1600
 1208TIP3    H225116   4.203   5.116  11.958 -0.8795  2.9912 -0.3385
 1209TIP3   OH225117   1.189   0.681  12.426  0.1378  0.1609  0.1822
 1209TIP3    H125118   1.253   0.751  12.413  0.9922 -0.4513  0.8748
 1209TIP3    H225119   1.123   0.718  12.485  0.2397  0.5824  0.0309
 1210TIP3   OH225120   2.945   0.349   2.649 -0.1252  0.5555  0.5269
 1210TIP3    H125121   2.851   0.356   2.663 -0.1933 -1.3004  1.2018
 1210TIP3    H225122   2.971   0.436   2.615 -2.0247  1.1296  0.4523
 1211TIP3   OH225123   5.543   6.094   6.588  0.1196  0.1877 -0.0819
 1211TIP3    H125124   5.637   6.095   6.571  0.1852 -1.5975 -0.0345
 1211TIP3    H225125   5.518   6.186   6.594  1.7843  0.6905 -0.5015
 1212TIP3   OH225126   6.723   4.962  11.440  0.0511  0.4227  0.0472
 1212TIP3    H125127   6.695   4.872  11.420 -0.8025  0.9482 -1.1980
 1212TIP3    H225128   6.800   4.975  11.384  0.7072  0.1870  0.8734
 1213TIP3   OH225129   2.681   5.203  14.125  0.4758 -0.6290  0.1049
 1213TIP3    H125130   2.741   5.243  14.061 -0.2402  1.6308  0.7424
 1213TIP3    H225131   2.708   5.111  14.128  2.4355 -0.1897 -1.2654
 1214TIP3   OH225132   3.022   5.065  17.100 -0.2780 -0.2311 -1.1349
 1214TIP3    H125133   3.077   5.012  17.043 -0.6672  0.2683 -1.9951
 1214TIP3    H225134   3.015   5.149  17.056  0.5231  0.6417  0.3215
 1215TIP3   OH225135   6.742   2.275   0.602 -0.2651 -0.0349 -0.4223
 1215TIP3    H125136   6.700   2.336   0.542  0.4854 -0.9046 -1.9170
 1215TIP3    H225137   6.688   2.196   0.597 -1.1388  0.4110  1.3681
 1216TIP3   OH225138   2.548   5.145   6.667  0.2651  0.9983 -0.1954
 1216TIP3    H125139   2.454   5.150   6.648  0.5338  2.7906 -1.3620
 1216TIP3    H225140   2.553   5.125   6.760 -1.2820  0.8877 -0.1100
 1217TIP3   OH225141   4.554   4.941  12.155 -0.0832  0.1233  0.3208
 1217TIP3    H125142   4.615   4.897  12.215 -0.6548  1.1960  1.7453
 1217TIP3    H225143   4.467   4.913  12.184 -0.3905  1.0081  0.2927
 1218TIP3   OH225144   1.394   6.472   4.032 -0.1588 -0.1854 -0.2793
 1218TIP3    H125145   1.479   6.460   3.991 -1.1790 -0.1550 -2.5708
 1218TIP3    H225146   1.413   6.503   4.120  2.1624  0.9169 -1.1175
 1219TIP3   OH225147   1.546   1.343   5.508 -0.4698 -0.0460  0.1090
 1219TIP3    H125148   1.483   1.360   5.439  1.3205 -1.1244 -1.9190
 1219TIP3    H225149   1.630   1.335   5.463  0.6771 -1.5884  2.3075
 1220TIP3   OH225150   4.588   2.004  14.248  0.3878  0.3293  0.0344
 1220TIP3    H125151   4.637   1.922  14.258 -1.2896 -0.8363 -0.7765
 1220TIP3    H225152   4.644   2.059  14.193  0.8489 -0.9100 -0.7890
 1221TIP3   OH225153   0.290   5.348  12.856 -0.3189 -0.6976 -0.5875
 1221TIP3    H125154   0.342   5.296  12.795  1.4802  1.7183 -1.2597
 1221TIP3    H225155   0.332   5.336  12.940 -0.6282 -1.2233 -0.5032
 1222TIP3   OH225156   3.438   4.954  10.475 -0.0646  0.1926 -0.0570
 1222TIP3    H125157   3.345   4.961  10.495 -0.0637  0.0334  0.0046
 1222TIP3    H225158   3.444   4.975  10.382 -0.2597 -0.5325 -0.2415
 1223TIP3   OH225159   5.450   4.709  16.008  0.0992  0.5644 -0.1710
 1223TIP3    H125160   5.414   4.778  15.952  0.4449 -0.1840 -1.3542
 1223TIP3    H225161   5.542   4.704  15.983  0.2050  0.0540  0.3073
 1224TIP3   OH225162   2.605   6.554  15.590 -0.0803 -0.2619  0.0230
 1224TIP3    H125163   2.621   6.505  15.509  2.2080 -0.2420  0.4023
 1224TIP3    H225164   2.609   6.488  15.659 -0.0051  0.0234  0.2932
 1225TIP3   OH225165   3.879   4.458  12.185 -0.6574 -0.2327  0.0663
 1225TIP3    H125166   3.951   4.452  12.123 -0.5757 -0.5870  0.1925
 1225TIP3    H225167   3.921   4.471  12.270 -0.8123  2.2833 -0.1731
 1226TIP3   OH225168   1.960   6.714   0.673 -0.1874  0.3473 -0.6455
 1226TIP3    H125169   1.958   6.645   0.606 -0.3484  0.1829 -0.4719
 1226TIP3    H225170   1.938   6.669   0.754 -2.9826  1.0538 -0.9146
 1227TIP3   OH225171   6.679   2.175  14.043 -0.1481 -0.2804 -0.0850
 1227TIP3    H125172   6.588   2.185  14.013  0.1936 -1.4079 -1.6244
 1227TIP3    H225173   6.732   2.213  13.973  0.6053 -0.9228  0.1205
 1228TIP3   OH225174   2.981   6.139   0.299 -0.1836  0.5948  0.1848
 1228TIP3    H125175   2.919   6.169   0.365 -0.1282 -0.1119  0.5644
 1228TIP3    H225176   3.038   6.079   0.345 -0.0845  0.1659 -0.4843
 1229TIP3   OH225177   4.825   4.784   0.840 -0.5098 -0.0561 -0.0727
 1229TIP3    H125178   4.843   4.874   0.813 -2.8122 -0.1811 -2.3289
 1229TIP3    H225179   4.854   4.731   0.766  0.3803 -1.1985  1.0415
 1230TIP3   OH225180   3.754   2.168   1.750 -0.1900 -0.1638 -0.0278
 1230TIP3    H125181   3.755   2.127   1.663 -0.6467 -0.5043  0.1283
 1230TIP3    H225182   3.823   2.235   1.745 -1.2305  0.8657 -1.1581
 1231TIP3   OH225183   3.890   2.726   0.310  0.1365 -0.1710 -0.4338
 1231TIP3    H125184   3.850   2.748   0.227  1.1582  1.3848 -0.5594
 1231TIP3    H225185   3.901   2.631   0.307 -2.1472 -0.4738 -0.9706
 1232TIP3   OH225186   0.159   5.424  11.610 -0.4237  0.4683  1.0505
 1232TIP3    H125187   0.184   5.472  11.689  0.7256  0.6677  0.5782
 1232TIP3    H225188   0.193   5.477  11.538 -1.5136  0.3217  0.3986
 1233TIP3   OH225189   3.883   3.558  12.249  0.2804 -0.3040  0.6273
 1233TIP3    H125190   3.894   3.583  12.341 -0.8514  1.0633  0.4088
 1233TIP3    H225191   3.955   3.497  12.233  0.3347 -0.8037  2.4926
 1234TIP3   OH225192   4.334   3.121  16.723 -0.5667 -0.4165 -0.4660
 1234TIP3    H125193   4.288   3.170  16.792  1.2411 -1.8343  1.9233
 1234TIP3    H225194   4.425   3.149  16.731  0.1062 -2.4289 -0.5326
 1235TIP3   OH225195   6.133   2.723   3.948 -0.0224 -0.0699 -0.5956
 1235TIP3    H125196   6.050   2.675   3.939 -0.7492  0.5489  1.9716
 1235TIP3    H225197   6.172   2.719   3.861 -2.9584 -0.0110 -2.0466
 1236TIP3   OH225198   5.558   4.753   4.163  0.6184  0.5582  0.0482
 1236TIP3    H125199   5.471   4.720   4.142  0.3546  0.9571  0.4890
 1236TIP3    H225200   5.607   4.745   4.082  0.4846 -0.6638  0.0675
 1237TIP3   OH225201   3.610   0.818  12.637 -0.0396 -0.0882  0.2579
 1237TIP3    H125202   3.517   0.807  12.618 -0.0818 -0.9264  0.9304
 1237TIP3    H225203   3.618   0.910  12.664 -0.2618  0.6831 -2.0510
 1238TIP3   OH225204   0.713   4.854  11.884 -0.1739  0.0603 -0.1032
 1238TIP3    H125205   0.741   4.885  11.970 -0.8843  1.1637 -0.2438
 1238TIP3    H225206   0.792   4.860  11.830  1.0178 -3.1577  1.0332
 1239TIP3   OH225207   5.800   1.846   5.936 -0.0413 -0.1715  0.2626
 1239TIP3    H125208   5.828   1.789   6.006  2.1696 -0.5040 -0.8046
 1239TIP3    H225209   5.776   1.787   5.864  0.7548  0.1669 -0.3065
 1240TIP3   OH225210   6.247   1.219   1.899  0.0325 -1.0388 -0.6055
 1240TIP3    H125211   6.174   1.162   1.924 -0.7417  0.2565  0.1863
 1240TIP3    H225212   6.322   1.185   1.948 -0.9857  0.1486  1.9768
 1241TIP3   OH225213   2.495   5.442   3.681 -0.3401 -0.2043  0.0614
 1241TIP3    H125214   2.521   5.364   3.631 -1.3431 -0.3820 -0.2005
 1241TIP3    H225215   2.401   5.450   3.666 -0.1113  1.5789 -0.6332
 1242TIP3   OH225216   6.053   6.504   1.404  0.4557 -0.2644  0.0908
 1242TIP3    H125217   6.049   6.414   1.374  2.3560 -0.3178 -0.0655
 1242TIP3    H225218   6.090   6.553   1.331  0.3186  0.4952  0.5187
 1243TIP3   OH225219   4.878   1.058   0.972 -0.4794  0.2647 -0.1979
 1243TIP3    H125220   4.820   1.056   0.896 -1.5397  0.0231  0.5911
 1243TIP3    H225221   4.897   1.151   0.986  0.4989  0.2569 -1.2995
 1244TIP3   OH225222   4.193   5.916   1.906 -0.4499 -0.7108  0.8116
 1244TIP3    H125223   4.263   5.945   1.964  1.1916 -0.1718 -1.3454
 1244TIP3    H225224   4.181   5.988   1.844 -0.6178 -2.0879 -0.8455
 1245TIP3   OH225225   4.171   5.932  14.545  0.1334 -0.3480  0.9123
 1245TIP3    H125226   4.120   5.939  14.465  2.5189  1.1445 -0.5848
 1245TIP3    H225227   4.189   5.838  14.554  3.9515 -0.3568 -3.2632
 1246TIP3   OH225228   4.518   0.196  15.423 -0.4409 -0.0625  0.1577
 1246TIP3    H125229   4.515   0.222  15.331  0.6177 -0.4986 -0.0114
 1246TIP3    H225230   4.597   0.142  15.431  0.7016  1.7330  1.7751
 1247TIP3   OH225231   4.868   5.039   0.772  0.1481  0.2570  0.3931
 1247TIP3    H125232   4.811   5.077   0.704  0.7924  1.4968  0.5055
 1247TIP3    H225233   4.957   5.055   0.740  0.4563  0.7341  1.4567
 1248TIP3   OH225234   3.049   1.293   1.851  0.6410 -0.4688  0.0919
 1248TIP3    H125235   3.020   1.276   1.941  2.5155 -1.1466  0.6109
 1248TIP3    H225236   3.024   1.215   1.802  0.2207 -0.3881  0.1768
 1249TIP3   OH225237   0.132   0.461   3.070 -0.3576  0.1318  0.4970
 1249TIP3    H125238   0.119   0.508   3.153  1.2068  1.1320  0.2168
 1249TIP3    H225239   0.226   0.469   3.052 -0.7861  0.7075 -1.8167
 1250TIP3   OH225240   3.015   0.160   1.742  0.1818  0.1222 -0.8192
 1250TIP3    H125241   3.045   0.088   1.798  0.3967 -0.1754 -1.3080
 1250TIP3    H225242   3.008   0.121   1.655 -0.2126  0.5630 -0.9909
 1251TIP3   OH225243   6.040   2.327   3.239  0.2680  0.1011  0.2622
 1251TIP3    H125244   5.978   2.283   3.182 -0.1654  0.3708  0.5247
 1251TIP3    H225245   6.008   2.310   3.328 -0.4852  1.7848  0.3439
 1252TIP3   OH225246   6.384   3.813  13.503 -0.2223 -0.1420 -1.0572
 1252TIP3    H125247   6.297   3.780  13.483 -0.5310  0.1140 -0.1959
 1252TIP3    H225248   6.424   3.744  13.556 -1.0187  0.9323  1.1016
 1253TIP3   OH225249   0.916   6.087   1.348  0.4689  0.7407  0.2804
 1253TIP3    H125250   0.897   6.135   1.267 -1.1362  0.0344  0.1996
 1253TIP3    H225251   0.941   6.155   1.411 -2.7012  1.9310  0.4590
 1254TIP3   OH225252   4.100   1.280  14.229 -0.1143  0.1132  0.1941
 1254TIP3    H125253   4.051   1.216  14.177  1.6773 -1.5765  0.4606
 1254TIP3    H225254   4.032   1.334  14.271 -1.6456 -0.0385 -1.9063
 1255TIP3   OH225255   0.006   4.065   3.550 -0.3483 -0.2448 -0.1308
 1255TIP3    H125256   0.026   3.982   3.593 -0.1161 -0.3717 -0.4771
 1255TIP3    H225257  -0.064   4.045   3.489  0.8029 -0.5533 -1.3917
 1256TIP3   OH225258   3.158   2.570  15.700 -0.1965  0.1000 -0.4874
 1256TIP3    H125259   3.186   2.487  15.737 -0.7118 -0.0527 -0.4286
 1256TIP3    H225260   3.232   2.599  15.646  1.0405  0.8988  1.5356
 1257TIP3   OH225261   1.077   0.456   1.055 -0.4138  0.2115  0.0964
 1257TIP3    H125262   1.017   0.384   1.036 -0.8938  0.4064  0.8358
 1257TIP3    H225263   1.052   0.486   1.143 -1.1911  2.2274 -0.7496
 1258TIP3   OH225264   3.977   3.764   1.711  0.0961 -0.0557 -0.3163
 1258TIP3    H125265   3.920   3.699   1.753  1.1625 -0.2863  0.8124
 1258TIP3    H225266   3.916   3.826   1.670 -0.9619 -0.4274  0.6460
 1259TIP3   OH225267   3.459   4.725   1.833 -0.6588  0.7555  0.4843
 1259TIP3    H125268   3.518   4.700   1.903  0.1553 -0.6267 -0.6378
 1259TIP3    H225269   3.377   4.678   1.853  0.2889 -1.5429 -0.6340
 1260TIP3   OH225270   3.589   6.758  12.453  0.2524 -0.1588 -0.6455
 1260TIP3    H125271   3.545   6.796  12.529 -0.1639 -1.9257  0.0340
 1260TIP3    H225272   3.665   6.713  12.490 -1.1562 -2.9465 -0.9253
 1261TIP3   OH225273   5.348   2.756   2.701  0.4122  0.0215 -0.1518
 1261TIP3    H125274   5.348   2.806   2.783 -0.2646  1.5507 -1.0481
 1261TIP3    H225275   5.424   2.787   2.653  1.0589 -1.1900  0.0526
 1262TIP3   OH225276   4.704   6.340   0.250 -0.0713 -0.1056 -0.4484
 1262TIP3    H125277   4.641   6.403   0.285 -0.2242 -0.7773  0.5153
 1262TIP3    H225278   4.716   6.367   0.159 -1.6224  0.1418 -0.6071
 1263TIP3   OH225279   4.754   6.033  11.378  0.2022 -0.2861  0.0773
 1263TIP3    H125280   4.768   6.125  11.353  0.8329 -0.4472 -0.1601
 1263TIP3    H225281   4.779   6.030  11.470  1.8927 -0.5897 -0.3590
 1264TIP3   OH225282   0.939   6.792  13.033  0.0279  0.0321 -0.3902
 1264TIP3    H125283   0.999   6.866  13.021 -0.2367 -0.0153 -2.3596
 1264TIP3    H225284   0.985   6.734  13.093  0.2917  1.7153  1.1052
 1265TIP3   OH225285   1.554   2.868  13.631  0.1429 -0.7573  1.0537
 1265TIP3    H125286   1.475   2.921  13.619  0.8640  0.0643 -0.4255
 1265TIP3    H225287   1.524   2.789  13.675 -0.9915  0.8329  3.3537
 1266TIP3   OH225288   5.654   3.397  12.081  0.4433  0.3241  0.5875
 1266TIP3    H125289   5.579   3.394  12.021  0.7465  4.3321 -0.2399
 1266TIP3    H225290   5.615   3.403  12.168 -0.0881 -0.8601  0.4450
 1267TIP3   OH225291   6.259   1.781  15.016  0.0007  0.3401 -0.1924
 1267TIP3    H125292   6.194   1.743  14.957 -0.4315  0.8879 -0.0731
 1267TIP3    H225293   6.214   1.790  15.100  0.3692  0.2997  0.0146
 1268TIP3   OH225294   0.676   3.568  14.597  0.2481 -0.2056  0.2180
 1268TIP3    H125295   0.724   3.592  14.517  0.3855 -1.2273 -0.0231
 1268TIP3    H225296   0.599   3.625  14.596  0.3945 -0.0030 -0.4932
 1269TIP3   OH225297   0.571   5.268  15.086 -0.3602  0.0624  0.8283
 1269TIP3    H125298   0.651   5.319  15.073 -1.5101  1.4886 -1.0946
 1269TIP3    H225299   0.554   5.226  15.002 -2.5388  1.1898  0.6325
 1270TIP3   OH225300   1.198   2.745   3.596 -0.5122 -0.4718 -0.2664
 1270TIP3    H125301   1.256   2.676   3.563 -0.4284 -1.7099  2.1944
 1270TIP3    H225302   1.110   2.716   3.573 -0.3131  0.5242 -2.4687
 1271TIP3   OH225303   5.793   0.716  14.760 -0.5273 -0.2223 -0.1282
 1271TIP3    H125304   5.705   0.751  14.775 -0.7682 -0.6157 -0.6125
 1271TIP3    H225305   5.846   0.793  14.738 -0.7218  0.0305  0.2759
 1272TIP3   OH225306   0.464   6.540  14.695 -0.1995  0.0006 -0.4836
 1272TIP3    H125307   0.420   6.578  14.771 -0.0150 -0.0995 -0.3257
 1272TIP3    H225308   0.480   6.449  14.721  1.4498  0.4172  0.0501
 1273TIP3   OH225309   1.525   4.728   3.697 -0.6132 -0.3470  0.0308
 1273TIP3    H125310   1.473   4.797   3.656 -0.9493 -0.5320  0.1396
 1273TIP3    H225311   1.572   4.771   3.767 -1.1695 -0.3133  0.3882
 1274TIP3   OH225312   4.384   4.644  10.867 -0.5406  0.2763 -0.3073
 1274TIP3    H125313   4.416   4.630  10.956  0.1051 -2.1111 -0.8628
 1274TIP3    H225314   4.289   4.642  10.875 -0.5972  2.6559  0.6354
 1275TIP3   OH225315   1.194   0.496   5.750  0.4803  0.3460 -0.7119
 1275TIP3    H125316   1.105   0.462   5.761 -0.3000  1.8543 -1.8989
 1275TIP3    H225317   1.219   0.527   5.837 -0.7254  1.1240 -0.6025
 1276TIP3   OH225318   4.819   2.212   3.950  0.2292 -0.0655  0.2662
 1276TIP3    H125319   4.874   2.263   4.010 -0.1692 -1.1762  1.6205
 1276TIP3    H225320   4.880   2.177   3.885  1.0465 -0.7786  1.3902
 1277TIP3   OH225321   0.920   5.988   6.072  0.2282  0.4294  0.0431
 1277TIP3    H125322   0.973   6.008   5.995 -1.2363 -0.7483 -1.3228
 1277TIP3    H225323   0.936   5.896   6.090 -0.3836  0.3836  0.3984
 1278TIP3   OH225324   3.314   3.726  15.222  0.1765 -0.2191  0.2565
 1278TIP3    H125325   3.225   3.707  15.251 -0.2268 -1.7384 -1.6893
 1278TIP3    H225326   3.304   3.753  15.130  1.7277 -0.7670 -0.1067
 1279TIP3   OH225327   6.191   2.061  17.007  0.3852 -0.6153  0.7681
 1279TIP3    H125328   6.100   2.077  16.984  0.2975 -0.7567  1.0171
 1279TIP3    H225329   6.223   2.002  16.939  0.4900 -0.0154  0.2873
 1280TIP3   OH225330   1.752   6.211  16.274 -0.0994  0.1089 -0.1886
 1280TIP3    H125331   1.685   6.279  16.267  0.8507  1.0716 -0.1655
 1280TIP3    H225332   1.750   6.184  16.366  1.8154  2.5661  0.6756
 1281TIP3   OH225333   2.284   2.617   5.523 -0.6829 -0.5099  0.6070
 1281TIP3    H125334   2.306   2.554   5.592  1.4134 -0.4779  0.0546
 1281TIP3    H225335   2.302   2.703   5.562  0.2941 -0.4818  0.1399
 1282TIP3   OH225336   5.150   5.821   4.968  0.1985 -0.0445  0.6402
 1282TIP3    H125337   5.120   5.736   5.002  0.5034 -0.7735 -0.8355
 1282TIP3    H225338   5.170   5.872   5.046  0.3730 -1.4655  1.5599
 1283TIP3   OH225339   1.959   2.613  14.117 -0.2531  0.4386 -0.7912
 1283TIP3    H125340   1.941   2.609  14.211  0.7342  0.0741 -0.6054
 1283TIP3    H225341   1.905   2.544  14.079 -0.1722  0.1625 -0.4077
 1284TIP3   OH225342   6.266   6.596  14.011  0.3945 -0.4427 -0.2219
 1284TIP3    H125343   6.361   6.583  14.018  0.2784 -0.6993  1.3107
 1284TIP3    H225344   6.239   6.536  13.942  1.2089 -1.2291  0.1196
 1285TIP3   OH225345   2.584   1.476   3.877 -0.2583  0.3368  0.5862
 1285TIP3    H125346   2.647   1.540   3.844  0.6500  0.5468  2.5696
 1285TIP3    H225347   2.521   1.528   3.927 -1.0666 -0.0633  0.0159
 1286TIP3   OH225348   3.400   3.406   4.527 -1.1308 -0.3094  0.3570
 1286TIP3    H125349   3.375   3.319   4.556 -0.6150 -0.8154 -0.6429
 1286TIP3    H225350   3.378   3.407   4.433  0.1648  0.1223  0.0337
 1287TIP3   OH225351   1.545   5.318  15.491  0.1692  0.2163  0.0139
 1287TIP3    H125352   1.527   5.401  15.447 -0.0333  0.0565 -0.2078
 1287TIP3    H225353   1.467   5.265  15.476 -0.4513  0.6092  1.6656
 1288TIP3   OH225354   4.155   0.129   2.088 -0.1440 -0.0828 -0.2879
 1288TIP3    H125355   4.125   0.109   1.999  0.9731 -0.1022 -0.6718
 1288TIP3    H225356   4.189   0.046   2.121 -1.0700 -0.2126  0.3850
 1289TIP3   OH225357   1.125   2.803   5.187 -0.5194  0.5889  0.2727
 1289TIP3    H125358   1.123   2.761   5.273  1.3788 -0.0336  0.0736
 1289TIP3    H225359   1.043   2.778   5.145 -0.3971 -1.1560  0.9989
 1290TIP3   OH225360   0.734   4.307  12.005 -0.6274 -0.3173 -0.4352
 1290TIP3    H125361   0.660   4.255  11.972 -2.6955  1.1677  1.5863
 1290TIP3    H225362   0.810   4.251  11.991 -2.1301 -2.0709 -2.3056
 1291TIP3   OH225363   2.291   0.571  16.972  0.4616  0.2774  0.4464
 1291TIP3    H125364   2.343   0.628  16.916 -0.1447 -0.6377 -1.0895
 1291TIP3    H225365   2.203   0.609  16.969  0.7301  1.1471  2.1060
 1292TIP3   OH225366   3.445   1.438   4.508  0.3131  0.6169 -0.5180
 1292TIP3    H125367   3.491   1.456   4.590 -0.7163  0.3839  0.1238
 1292TIP3    H225368   3.399   1.520   4.488 -2.0995 -0.3062  0.9131
 1293TIP3   OH225369   5.847   3.115  13.382 -0.0750  0.0457 -0.0059
 1293TIP3    H125370   5.896   3.033  13.378  0.7640  0.5469 -0.3299
 1293TIP3    H225371   5.898   3.170  13.442 -1.2950 -0.0917  1.2020
 1294TIP3   OH225372   4.124   6.732  13.094 -0.4433  0.3297 -0.5759
 1294TIP3    H125373   4.117   6.794  13.166 -1.8754  0.8753 -1.1309
 1294TIP3    H225374   4.217   6.723  13.079 -0.0712 -0.1773  1.6463
 1295TIP3   OH225375   6.796   0.795  10.325 -0.6248  0.2537  0.2370
 1295TIP3    H125376   6.881   0.753  10.314  0.7098  2.3738  1.5990
 1295TIP3    H225377   6.732   0.723  10.323  0.8673 -1.1912 -3.2171
 1296TIP3   OH225378   2.023   6.118   0.193 -0.5529  0.1272  0.3655
 1296TIP3    H125379   1.985   6.128   0.280  0.3178  0.2180  0.7431
 1296TIP3    H225380   1.995   6.032   0.163 -1.5818  0.4443  0.3596
 1297TIP3   OH225381   6.784   4.387  13.975 -0.0998 -0.4047  0.0479
 1297TIP3    H125382   6.871   4.380  13.935 -0.3883  0.0183 -0.6888
 1297TIP3    H225383   6.795   4.355  14.064  1.0883  0.8110  0.3633
 1298TIP3   OH225384   1.384   5.522   3.931  0.2990 -0.0127 -0.4107
 1298TIP3    H125385   1.394   5.469   3.852  0.9581  0.2304 -0.5021
 1298TIP3    H225386   1.375   5.458   4.002  0.9728 -0.2562 -0.5332
 1299TIP3   OH225387   4.481   3.002  13.667 -0.1628  0.3567 -0.2361
 1299TIP3    H125388   4.446   2.962  13.587  1.0081 -1.2694  0.0117
 1299TIP3    H225389   4.526   3.081  13.637  0.1204 -0.1454 -1.1788
 1300TIP3   OH225390   2.966   6.174   3.743 -0.7092  0.7034 -0.4636
 1300TIP3    H125391   3.027   6.155   3.672 -2.0608  0.1583 -1.5361
 1300TIP3    H225392   3.021   6.187   3.820  0.6986 -0.5622 -1.2114
 1301TIP3   OH225393   5.802   0.339  14.138 -0.0649 -0.4176 -0.1558
 1301TIP3    H125394   5.745   0.404  14.096  0.6475  0.4504  0.1970
 1301TIP3    H225395   5.773   0.338  14.229  0.7231  0.3151  0.1150
 1302TIP3   OH225396   0.163   6.617  16.397 -0.4005  0.5213 -0.4002
 1302TIP3    H125397   0.204   6.559  16.332 -0.7519 -1.7358  1.2847
 1302TIP3    H225398   0.069   6.603  16.385 -0.4754  0.3825  0.3193
 1303TIP3   OH225399   2.417   1.255   1.821 -0.1000 -0.2204  0.7298
 1303TIP3    H125400   2.438   1.173   1.777 -0.2956 -0.2365  0.6659
 1303TIP3    H225401   2.496   1.278   1.868  0.4746  0.3302 -0.4535
 1304TIP3   OH225402   2.025   2.406  16.622 -0.4779 -0.2977  0.1124
 1304TIP3    H125403   1.944   2.427  16.575  0.5792  1.6160 -0.9920
 1304TIP3    H225404   2.039   2.313  16.607 -2.8532 -0.8669  1.0104
 1305TIP3   OH225405   4.695   6.721  16.727  0.2178 -0.2305 -0.5311
 1305TIP3    H125406   4.765   6.722  16.661  0.6135 -0.2320 -0.1184
 1305TIP3    H225407   4.723   6.654  16.790 -0.0185 -0.0369 -0.2165
 1306TIP3   OH225408   5.930   5.004   6.243  0.4430 -0.4052 -0.5462
 1306TIP3    H125409   5.933   4.973   6.334 -0.2336 -0.7675 -0.6397
 1306TIP3    H225410   5.877   4.938   6.197  0.7198 -0.1880 -1.1921
 1307TIP3   OH225411   6.754   0.642   0.663  0.7336  0.2070 -0.9119
 1307TIP3    H125412   6.783   0.551   0.656  0.7816  0.0771  0.6479
 1307TIP3    H225413   6.798   0.686   0.591  2.5782 -0.5523 -0.3193
 1308TIP3   OH225414   5.706   4.316  16.244 -0.0267  0.1005 -0.5263
 1308TIP3    H125415   5.612   4.308  16.229 -0.4134 -0.7687  1.8862
 1308TIP3    H225416   5.713   4.362  16.328  1.7732  1.7193 -1.4873
 1309TIP3   OH225417   6.602   0.364   5.134 -0.2892  0.3222 -0.3627
 1309TIP3    H125418   6.607   0.446   5.184  0.0036 -0.8405  1.6219
 1309TIP3    H225419   6.510   0.339   5.138 -0.1432 -0.1497  0.2886
 1310TIP3   OH225420   2.447   6.352   1.380  0.2717 -0.0472 -0.1143
 1310TIP3    H125421   2.542   6.352   1.375  0.4038  0.5127  1.6651
 1310TIP3    H225422   2.419   6.286   1.316  1.9328 -1.6348  0.7334
 1311TIP3   OH225423   1.563   6.381   5.971 -0.3105 -0.3099  0.2235
 1311TIP3    H125424   1.620   6.414   6.040  1.3494 -1.7449 -0.3839
 1311TIP3    H225425   1.610   6.401   5.890 -0.8634 -1.1818 -0.3302
 1312TIP3   OH225426   4.503   2.577  15.725 -0.2063 -0.2684 -0.1618
 1312TIP3    H125427   4.585   2.542  15.760  2.1312  1.1427 -3.6894
 1312TIP3    H225428   4.463   2.504  15.679 -1.8248 -1.3430  2.7077
 1313TIP3   OH225429   2.863   3.444  13.409 -0.1953  0.0282  0.3963
 1313TIP3    H125430   2.835   3.364  13.364 -0.1150  0.8691 -1.2329
 1313TIP3    H225431   2.801   3.511  13.380  0.6745  0.8947  0.4845
 1314TIP3   OH225432   3.776   1.471  11.309 -0.0642  0.2241  0.1446
 1314TIP3    H125433   3.708   1.471  11.377  0.4121  0.3498  0.6369
 1314TIP3    H225434   3.739   1.421  11.237  0.0426 -1.3293  1.1335
 1315TIP3   OH225435   6.593   3.878  11.994 -0.1671  0.0966  0.4389
 1315TIP3    H125436   6.504   3.845  11.987  0.1636 -0.7302  0.0575
 1315TIP3    H225437   6.603   3.901  12.087 -0.7131  0.0247  0.5156
 1316TIP3   OH225438   3.974   1.864   4.353  0.3237  0.1991 -0.6432
 1316TIP3    H125439   4.023   1.859   4.270  2.6392 -1.8071  0.6827
 1316TIP3    H225440   4.035   1.828   4.418 -2.1049 -0.1208  1.6036
 1317TIP3   OH225441   2.244   4.327  15.805 -0.2270 -0.0567  0.2405
 1317TIP3    H125442   2.282   4.308  15.891 -1.1411  2.7591  1.3549
 1317TIP3    H225443   2.195   4.248  15.783 -0.4906 -0.6187  2.6104
 1318TIP3   OH225444   2.642   2.317  16.512 -0.0221 -0.3978  0.1875
 1318TIP3    H125445   2.716   2.373  16.491 -1.0647  0.3897 -1.6208
 1318TIP3    H225446   2.602   2.357  16.589  2.2924 -1.7578  2.2244
 1319TIP3   OH225447   0.771   3.820   2.430  0.4109 -0.2478  0.0448
 1319TIP3    H125448   0.680   3.851   2.439  0.1283 -1.1379  0.3986
 1319TIP3    H225449   0.815   3.851   2.508  0.2586 -0.3143  0.1572
 1320TIP3   OH225450   3.391   5.943  16.874 -0.4372 -0.7289 -0.2712
 1320TIP3    H125451   3.373   6.021  16.927  1.3906 -0.0516 -0.5619
 1320TIP3    H225452   3.401   5.873  16.937  1.0362 -0.0656  0.2853
 1321TIP3   OH225453   2.972   5.172  14.275  0.0109  0.1441  0.2735
 1321TIP3    H125454   2.946   5.210  14.191  1.7352  0.4392 -0.1735
 1321TIP3    H225455   2.891   5.167  14.326 -0.9346  0.6726 -1.1260
 1322TIP3   OH225456   2.589   1.418  13.947  0.2656  0.3532 -0.0051
 1322TIP3    H125457   2.665   1.407  14.004  1.3972 -1.5477 -1.7607
 1322TIP3    H225458   2.617   1.482  13.882  0.6627 -0.8985 -1.0904
 1323TIP3   OH225459   5.231   4.428  12.737  0.3361  0.0292  0.2109
 1323TIP3    H125460   5.234   4.366  12.664 -2.9069  0.2728 -0.2935
 1323TIP3    H225461   5.297   4.494  12.715  1.6597 -1.5543 -0.8174
 1324TIP3   OH225462   2.542   1.421   5.372  0.1505  0.5324 -0.1464
 1324TIP3    H125463   2.463   1.397   5.420 -0.2091  1.6834 -0.1330
 1324TIP3    H225464   2.567   1.506   5.408  1.2461  0.3117 -0.3423
 1325TIP3   OH225465   4.979   5.360  11.637  0.1262  0.0442 -0.2685
 1325TIP3    H125466   5.049   5.346  11.700 -0.1142  0.8494  0.1874
 1325TIP3    H225467   5.022   5.396  11.559  0.6163 -2.1745 -1.1010
 1326TIP3   OH225468   6.509   4.953  11.711  0.5657 -0.0528 -0.1588
 1326TIP3    H125469   6.599   4.921  11.698 -0.0341 -0.9732 -2.8819
 1326TIP3    H225470   6.481   4.981  11.623 -1.6030  0.7858  0.7325
 1327TIP3   OH225471   3.777   4.205   2.659  0.3035  0.0733  0.2047
 1327TIP3    H125472   3.831   4.222   2.581  1.9844 -2.8016  0.6141
 1327TIP3    H225473   3.835   4.224   2.733 -0.9909  1.8900  0.8296
 1328TIP3   OH225474   6.332   2.664   5.390  0.2755 -0.2778  0.1480
 1328TIP3    H125475   6.292   2.745   5.360 -1.1336 -0.2232  2.0106
 1328TIP3    H225476   6.306   2.599   5.326  1.0114  0.6220 -1.1007
 1329TIP3   OH225477   5.525   3.273  10.941  0.7117 -0.1617  0.1693
 1329TIP3    H125478   5.433   3.258  10.964  0.8018 -0.3862  0.3845
 1329TIP3    H225479   5.523   3.295  10.847  0.4472 -0.2346  0.1572
 1330TIP3   OH225480   1.682   4.904  17.066 -0.0457  0.0992  0.0911
 1330TIP3    H125481   1.763   4.923  17.114  0.8441 -0.2938 -1.2057
 1330TIP3    H225482   1.627   4.858  17.129  1.1984 -0.6325  0.6751
 1331TIP3   OH225483   1.294   4.662  17.190 -0.6352  0.0516 -0.5816
 1331TIP3    H125484   1.207   4.683  17.223 -0.6837 -0.2114 -0.5412
 1331TIP3    H225485   1.297   4.566  17.189 -0.1190  0.0573  0.0130
 1332TIP3   OH225486   4.654   3.848  12.530  0.0973  0.3759  0.1039
 1332TIP3    H125487   4.589   3.796  12.484 -1.3557  0.3315  2.0717
 1332TIP3    H225488   4.694   3.903  12.462 -2.2857  0.7078 -1.1394
 1333TIP3   OH225489   3.663   3.720  13.394  0.1288  0.3820 -0.1861
 1333TIP3    H125490   3.711   3.785  13.445  0.7168 -1.0571  1.1452
 1333TIP3    H225491   3.665   3.755  13.304  3.2398  0.6389 -0.1159
 1334TIP3   OH225492   4.671   0.686   5.531  0.2656  0.1101  0.0572
 1334TIP3    H125493   4.748   0.714   5.580 -0.4570  0.1441  1.2281
 1334TIP3    H225494   4.603   0.749   5.555  0.2433  1.0297 -2.1900
 1335TIP3   OH225495   5.207   5.631  16.575  0.7189 -0.1990  0.5757
 1335TIP3    H125496   5.173   5.703  16.521  1.5627  1.3567  2.0215
 1335TIP3    H225497   5.138   5.615  16.639  1.2609  0.6068  1.3831
 1336TIP3   OH225498   6.316   4.561  12.164 -0.1000 -0.2014 -0.1506
 1336TIP3    H125499   6.396   4.610  12.145  0.1039 -0.0847  0.9692
 1336TIP3    H225500   6.245   4.619  12.137  0.1651 -0.7278 -2.1784
 1337TIP3   OH225501   3.312   6.497  16.838  0.1657  0.8401 -0.4904
 1337TIP3    H125502   3.265   6.494  16.755 -0.4753  0.6241 -0.1272
 1337TIP3    H225503   3.388   6.440  16.826 -0.8339 -0.5525 -0.3821
 1338TIP3   OH225504   1.430   2.945   1.884 -0.4998 -0.1446  0.1095
 1338TIP3    H125505   1.399   2.978   1.968 -1.3915  2.0972 -0.9920
 1338TIP3    H225506   1.501   2.885   1.905 -1.0155 -0.0130  2.4506
 1339TIP3   OH225507   3.956   3.746  11.191 -0.1346 -0.2314 -0.0252
 1339TIP3    H125508   3.995   3.673  11.239  1.0534 -0.5177 -1.3527
 1339TIP3    H225509   4.005   3.749  11.109 -2.0770  0.2100 -1.2444
 1340TIP3   OH225510   1.509   5.775   0.405 -0.0652  0.3134  0.4329
 1340TIP3    H125511   1.530   5.690   0.444  1.9804  1.6351  2.4802
 1340TIP3    H225512   1.415   5.786   0.420 -0.3932 -1.5850  0.0209
 1341TIP3   OH225513   1.709   4.659  14.966 -0.4799 -0.2835  0.7846
 1341TIP3    H125514   1.716   4.626  15.055 -1.2828  0.4791  1.1472
 1341TIP3    H225515   1.728   4.753  14.974  1.3855 -0.5222 -0.1563
 1342TIP3   OH225516   3.222   2.342   0.349 -0.5370  0.2390 -0.3473
 1342TIP3    H125517   3.317   2.333   0.358 -0.3898  1.7482 -0.1820
 1342TIP3    H225518   3.196   2.264   0.301  0.7041 -0.4933  0.1130
 1343TIP3   OH225519   5.716   4.588   0.162  0.1410 -0.2129 -0.4554
 1343TIP3    H125520   5.671   4.644   0.225  0.1006 -1.1905  0.4078
 1343TIP3    H225521   5.754   4.517   0.215  0.9859 -0.4991 -1.4061
 1344TIP3   OH225522   4.981   2.069  15.438 -0.2208  1.3011  0.0364
 1344TIP3    H125523   5.004   2.060  15.531 -0.5225  0.8210  0.0678
 1344TIP3    H225524   4.886   2.064  15.437 -0.1646  0.0954 -0.4251
 1345TIP3   OH225525   6.600   1.872   4.412  0.1497  0.3445  0.0788
 1345TIP3    H125526   6.693   1.871   4.431  0.5296  1.0387 -1.5341
 1345TIP3    H225527   6.588   1.949   4.356 -1.0210 -0.8001 -1.3387
 1346TIP3   OH225528   6.176   4.012   0.655  0.0510  0.0766 -0.0608
 1346TIP3    H125529   6.134   4.089   0.695 -2.2544 -0.6838 -0.8874
 1346TIP3    H225530   6.159   3.941   0.717  0.1119 -0.2486 -0.4184
 1347TIP3   OH225531   0.264   6.378  16.616 -0.2971  0.2670  0.1615
 1347TIP3    H125532   0.221   6.438  16.556  3.2766  0.6466 -2.3641
 1347TIP3    H225533   0.329   6.432  16.662  0.0074 -0.8663  1.1339
 1348TIP3   OH225534   4.816   1.464  14.614 -0.0514 -0.7505 -0.4965
 1348TIP3    H125535   4.740   1.519  14.636  0.7007  0.5280 -0.9570
 1348TIP3    H225536   4.804   1.442  14.522  1.2501  1.4251 -1.2606
 1349TIP3   OH225537   1.898   2.531   5.304  0.0801  0.0847  0.1015
 1349TIP3    H125538   1.963   2.468   5.276  1.7459  1.8703 -0.2824
 1349TIP3    H225539   1.833   2.480   5.351  1.4861 -1.8409  0.0498
 1350TIP3   OH225540   1.431   2.656  16.680 -0.3582  0.1811  0.6685
 1350TIP3    H125541   1.385   2.635  16.599 -0.8318  1.6780  0.5168
 1350TIP3    H225542   1.516   2.612  16.672  0.3082  1.6777 -1.4347
 1351TIP3   OH225543   5.080   5.671   3.948  0.0404 -0.1498  0.4171
 1351TIP3    H125544   5.018   5.599   3.941  0.4423 -0.4843  0.2924
 1351TIP3    H225545   5.056   5.715   4.029 -0.9706  0.2992 -0.1073
 1352TIP3   OH225546   2.303   5.634  11.306 -0.6316 -0.2214  0.0925
 1352TIP3    H125547   2.210   5.616  11.296 -0.7849  0.6925 -0.1805
 1352TIP3    H225548   2.342   5.609  11.222 -0.4492 -1.6036  0.5564
 1353TIP3   OH225549   5.241   1.605   5.081  0.0958  0.5554  0.7549
 1353TIP3    H125550   5.333   1.631   5.074 -0.0259  0.7673 -0.2492
 1353TIP3    H225551   5.243   1.511   5.095  0.4638  0.3416 -0.5573
 1354TIP3   OH225552   3.999   2.217  16.517  0.7365  0.4417  0.0806
 1354TIP3    H125553   3.921   2.244  16.469  0.8105 -1.4398 -1.2108
 1354TIP3    H225554   4.059   2.292  16.510 -0.3208  1.2739 -0.3278
 1355TIP3   OH225555   1.497   3.078  11.765 -0.1707 -0.3339 -0.5846
 1355TIP3    H125556   1.539   3.119  11.841  0.5104  0.4778 -1.3818
 1355TIP3    H225557   1.529   2.988  11.766 -1.7084 -0.9288  1.2034
 1356TIP3   OH225558   1.792   4.198  17.166 -0.2397 -0.3003 -0.0177
 1356TIP3    H125559   1.843   4.176  17.088 -0.6330 -1.2281 -0.0370
 1356TIP3    H225560   1.722   4.132  17.167 -1.9366  1.4006 -0.4566
 1357TIP3   OH225561   3.844   6.366  16.707 -0.1181  0.2272 -0.2433
 1357TIP3    H125562   3.896   6.302  16.658 -0.3711 -0.0279 -0.1789
 1357TIP3    H225563   3.810   6.317  16.782 -1.1566  0.1567 -0.7368
 1358TIP3   OH225564   4.176   1.083   4.294  0.2577 -0.0182  0.3529
 1358TIP3    H125565   4.172   1.100   4.199 -1.3195  0.5915  0.4969
 1358TIP3    H225566   4.204   0.992   4.301 -0.2994 -0.2973 -0.7293
 1359TIP3   OH225567   0.993   3.028   0.799  0.0290 -0.0758 -0.1431
 1359TIP3    H125568   0.906   2.996   0.822 -1.0177  2.4460 -0.3076
 1359TIP3    H225569   1.001   3.112   0.845  1.7090  0.5166 -1.4202
 1360TIP3   OH225570   5.564   5.397  15.763 -0.2140 -0.2258 -0.1701
 1360TIP3    H125571   5.565   5.343  15.684  1.3045  0.3156 -0.5454
 1360TIP3    H225572   5.645   5.376  15.809 -0.2810  0.6874  0.3945
 1361TIP3   OH225573   1.623   4.455   3.358 -0.8662  0.2730 -0.5292
 1361TIP3    H125574   1.592   4.510   3.286  1.7632 -0.9095 -2.7345
 1361TIP3    H225575   1.552   4.392   3.372 -0.9489 -0.3045 -3.0959
 1362TIP3   OH225576   0.142   3.282   3.226  0.5749 -0.2933 -0.0212
 1362TIP3    H125577   0.154   3.348   3.294 -2.1251  0.8077 -0.4646
 1362TIP3    H225578   0.121   3.201   3.274 -0.0052  0.1534  0.4957
 1363TIP3   OH225579   2.442   1.709   5.175 -0.0978 -0.0281 -0.4136
 1363TIP3    H125580   2.460   1.790   5.127 -1.4232  0.4020 -0.2340
 1363TIP3    H225581   2.527   1.665   5.181  0.1299 -0.1685 -3.2325
 1364TIP3   OH225582   0.417   0.554  14.924  0.4113 -0.0014  0.2427
 1364TIP3    H125583   0.390   0.471  14.886  0.0273 -0.1028  0.7196
 1364TIP3    H225584   0.361   0.564  15.001  1.8374 -0.2843  1.3610
 1365TIP3   OH225585   4.328   6.042  11.048 -0.1036 -0.4099  0.1096
 1365TIP3    H125586   4.312   5.970  11.109 -0.5184  0.1556  0.6818
 1365TIP3    H225587   4.423   6.051  11.045  0.5457 -4.6659 -4.3031
 1366TIP3   OH225588   1.437   3.901  12.059  0.3274 -0.2746 -0.7885
 1366TIP3    H125589   1.416   3.864  11.973 -0.5946  1.6935 -1.4535
 1366TIP3    H225590   1.473   3.987  12.040 -0.2999  0.3715  0.8291
 1367TIP3   OH225591   3.794   2.915  15.021  0.2136  0.7272  0.2914
 1367TIP3    H125592   3.712   2.958  15.047 -0.2613 -0.8675  1.6901
 1367TIP3    H225593   3.766   2.836  14.976  0.8698 -0.6862  2.2092
 1368TIP3   OH225594   0.331   1.198   6.200  0.4923 -0.4064  0.4718
 1368TIP3    H125595   0.291   1.119   6.237 -1.2217 -0.5582 -1.5194
 1368TIP3    H225596   0.264   1.265   6.211  0.8876  0.1056 -0.1916
 1369TIP3   OH225597   6.127   4.860  15.728  0.7351  0.0141  0.1536
 1369TIP3    H125598   6.161   4.788  15.782 -1.0361 -0.4100  0.7866
 1369TIP3    H225599   6.055   4.821  15.679  2.2353  0.4107 -2.5573
 1370TIP3   OH225600   2.750   2.775  16.949 -0.0800 -0.1530 -0.1653
 1370TIP3    H125601   2.823   2.835  16.961  0.3433 -0.5856 -0.5277
 1370TIP3    H225602   2.695   2.817  16.882  0.6116 -0.5199 -0.9809
 1371TIP3   OH225603   0.263   5.200   1.625 -0.2185  0.5027  0.0630
 1371TIP3    H125604   0.345   5.164   1.660 -0.0591  2.3333  1.7922
 1371TIP3    H225605   0.212   5.124   1.598  0.8190 -0.8829  1.8014
 1372TIP3   OH225606   5.957   0.988  11.057  0.3060 -0.0271  0.3497
 1372TIP3    H125607   6.003   0.959  11.136  1.0544  1.5787  0.5361
 1372TIP3    H225608   5.876   1.028  11.090  0.4940  0.4052  0.2939
 1373TIP3   OH225609   0.361   4.621   5.501 -0.0477  0.1755 -0.0083
 1373TIP3    H125610   0.303   4.697   5.493  2.0063  1.8675  0.3905
 1373TIP3    H225611   0.321   4.554   5.446 -1.9953  1.4871 -0.2778
 1374TIP3   OH225612   4.758   1.954  13.966  0.5338  0.1671  0.2351
 1374TIP3    H125613   4.736   2.036  14.010 -0.4943 -0.3761  0.7558
 1374TIP3    H225614   4.854   1.953  13.965  0.5832  1.7978 -0.6018
 1375TIP3   OH225615   0.207   5.822   0.983 -0.4553  0.9637 -0.0795
 1375TIP3    H125616   0.197   5.749   1.045  3.4404 -0.6452 -1.0434
 1375TIP3    H225617   0.117   5.843   0.957 -1.8912 -2.5048  1.3776
 1376TIP3   OH225618   4.650   2.640   6.315 -0.7703  0.2245  0.2338
 1376TIP3    H125619   4.742   2.659   6.295 -0.5293 -0.1394  0.9569
 1376TIP3    H225620   4.636   2.552   6.279  0.1082 -1.0984  2.8814
 1377TIP3   OH225621   4.945   6.492  15.866 -0.0991  0.3663 -0.3802
 1377TIP3    H125622   4.870   6.537  15.828 -0.4273  1.2111  1.2011
 1377TIP3    H225623   4.931   6.497  15.960  1.7652  0.2257 -0.0626
 1378TIP3   OH225624   5.729   3.979  12.567  0.4754 -0.4857  0.6602
 1378TIP3    H125625   5.824   3.979  12.576  0.5834 -0.3498 -0.3592
 1378TIP3    H225626   5.697   3.952  12.653  1.3213  2.2618  1.9449
 1379TIP3   OH225627   4.880   3.000   4.636 -0.2399 -0.1269  0.7353
 1379TIP3    H125628   4.857   2.980   4.726 -1.0702 -3.0993 -0.0197
 1379TIP3    H225629   4.882   2.915   4.592  1.3652  1.0827 -1.7945
 1380TIP3   OH225630   3.266   0.325  15.711 -0.1426 -0.1480 -0.0346
 1380TIP3    H125631   3.302   0.342  15.624 -0.5810  0.2882 -0.1386
 1380TIP3    H225632   3.336   0.281  15.758  0.3566  0.2651 -0.3796
 1381TIP3   OH225633   0.057   0.668  12.236 -0.2977  0.6710  0.4905
 1381TIP3    H125634  -0.026   0.714  12.246  0.5296  2.4422 -0.3493
 1381TIP3    H225635   0.124   0.736  12.240  0.9935 -0.4133 -0.9032
 1382TIP3   OH225636   1.002   5.968  14.313 -0.5249 -0.5783  0.0135
 1382TIP3    H125637   0.948   5.964  14.392  0.1540  0.5358  0.5604
 1382TIP3    H225638   1.064   5.896  14.323  0.3436  0.2735  1.1279
 1383TIP3   OH225639   2.367   1.137  12.647 -0.7467  0.2831 -0.1514
 1383TIP3    H125640   2.333   1.058  12.606 -2.2428  0.8636 -0.1009
 1383TIP3    H225641   2.330   1.136  12.736 -0.9136  1.1152 -0.2061
 1384TIP3   OH225642   0.550   4.918  16.543  0.2262  0.3094 -0.2432
 1384TIP3    H125643   0.535   4.965  16.625 -1.6523  0.7959 -0.8242
 1384TIP3    H225644   0.482   4.950  16.484  0.4070 -1.3732 -1.4299
 1385TIP3   OH225645   2.419   6.691   4.254 -0.1094 -0.2441 -0.5316
 1385TIP3    H125646   2.352   6.622   4.263  0.2522 -0.5970 -0.5012
 1385TIP3    H225647   2.442   6.713   4.345 -1.7020  1.4012 -0.4658
 1386TIP3   OH225648   4.269   1.520   5.059 -0.5211  0.0052  0.1114
 1386TIP3    H125649   4.222   1.584   5.112  0.1916 -0.7933  1.8054
 1386TIP3    H225650   4.256   1.437   5.104 -0.1862 -0.7889 -1.1977
 1387TIP3   OH225651   2.715   6.081   3.768  0.1075 -0.1149 -0.3499
 1387TIP3    H125652   2.720   5.994   3.809  0.0432  0.8691  1.9055
 1387TIP3    H225653   2.807   6.106   3.755  0.1639 -0.0090  0.2116
 1388TIP3   OH225654   6.050   1.483   2.569  0.1475 -0.0010 -0.0494
 1388TIP3    H125655   5.967   1.456   2.530 -1.5251  2.7676  1.3109
 1388TIP3    H225656   6.070   1.566   2.526  1.5545 -0.0105  0.5443
 1389TIP3   OH225657   0.276   5.004  16.938  0.1213  0.2850  0.3848
 1389TIP3    H125658   0.305   4.999  17.029 -1.1479 -1.0488  0.7660
 1389TIP3    H225659   0.180   5.011  16.944 -0.1667 -1.7338 -0.8310
 1390TIP3   OH225660   6.205   3.550  14.734 -0.1849 -0.4704 -0.6873
 1390TIP3    H125661   6.257   3.480  14.696 -0.3977 -0.1053 -1.6877
 1390TIP3    H225662   6.149   3.506  14.799  1.9464 -0.7399  1.0618
 1391TIP3   OH225663   2.517   5.616  12.910  0.1508 -0.0790 -0.5061
 1391TIP3    H125664   2.588   5.571  12.958  0.1792 -1.3548 -1.6895
 1391TIP3    H225665   2.437   5.580  12.947 -0.0148  2.2041  1.6544
 1392TIP3   OH225666   2.355   4.445  11.075  0.0604  0.5014  0.9554
 1392TIP3    H125667   2.393   4.495  11.004  0.2531 -0.7431  0.1483
 1392TIP3    H225668   2.267   4.421  11.044 -0.4388  1.2082  1.7650
 1393TIP3   OH225669   1.837   6.549  15.511  0.0471  0.3942 -0.0644
 1393TIP3    H125670   1.872   6.636  15.489  0.5530  0.5625  1.3286
 1393TIP3    H225671   1.882   6.490  15.451  1.0310  0.8884  0.1627
 1394TIP3   OH225672   4.972   3.488   0.406 -0.4198  0.1543 -0.3666
 1394TIP3    H125673   5.003   3.511   0.318  0.0349 -0.1806 -0.2951
 1394TIP3    H225674   5.046   3.443   0.446  0.4143  2.6797  1.1640
 1395TIP3   OH225675   5.169   5.750   2.350  0.1463  0.2202  0.2753
 1395TIP3    H125676   5.102   5.755   2.417 -1.0522  2.6540 -0.9897
 1395TIP3    H225677   5.133   5.690   2.285 -0.0313  0.1719  0.4178
 1396TIP3   OH225678   3.600   4.725  12.354 -0.7454 -0.5526 -0.0252
 1396TIP3    H125679   3.582   4.818  12.344 -2.7910 -0.9381 -0.4221
 1396TIP3    H225680   3.625   4.695  12.267  2.3951  0.0163  0.5575
 1397TIP3   OH225681   2.834   1.738  10.625 -0.0997 -0.3684 -0.1755
 1397TIP3    H125682   2.855   1.707  10.537 -0.6875 -0.2765 -0.3550
 1397TIP3    H225683   2.787   1.820  10.610  0.0943 -0.1771  0.2403
 1398TIP3   OH225684   6.364   0.915   4.665 -0.0455  0.3368  0.2841
 1398TIP3    H125685   6.286   0.959   4.631  0.1271  1.1649  0.9192
 1398TIP3    H225686   6.355   0.921   4.760  0.9484  0.7267  0.3640
 1399TIP3   OH225687   1.393   5.320  16.144 -0.2809  0.1088  0.2342
 1399TIP3    H125688   1.332   5.277  16.085 -0.1470 -1.1123  0.9439
 1399TIP3    H225689   1.349   5.400  16.171 -0.8873  0.0321 -0.5038
 1400TIP3   OH225690   6.176   6.331   4.276  0.1481 -0.1499 -0.0214
 1400TIP3    H125691   6.123   6.253   4.262  0.2407 -0.2441  0.1433
 1400TIP3    H225692   6.184   6.338   4.371  0.9844 -0.5214 -0.0513
 1401TIP3   OH225693   0.440   1.329   0.838 -0.3254  0.5460  0.6636
 1401TIP3    H125694   0.382   1.254   0.821  0.8641 -0.0705 -0.9655
 1401TIP3    H225695   0.406   1.368   0.918 -0.8108 -1.9272  1.7704
 1402TIP3   OH225696   6.361   6.613   0.787  0.4014 -0.8814 -0.2753
 1402TIP3    H125697   6.453   6.636   0.800  0.3541 -0.9634  0.2094
 1402TIP3    H225698   6.363   6.554   0.711  0.7552 -0.9320 -0.2307
 1403TIP3   OH225699   4.998   2.291   0.278 -0.0207  0.5199 -0.1061
 1403TIP3    H125700   4.954   2.312   0.360  2.3278 -0.9102  1.6428
 1403TIP3    H225701   5.036   2.374   0.249 -1.3433  1.1501 -0.0991
 1404TIP3   OH225702   5.135   0.388  11.580  0.0382 -0.2625 -0.3722
 1404TIP3    H125703   5.218   0.342  11.591  0.0741  0.3048  2.6981
 1404TIP3    H225704   5.069   0.319  11.573  0.4251 -0.7997  0.9615
 1405TIP3   OH225705   0.528   6.688   3.653  0.0090  0.3837 -0.2670
 1405TIP3    H125706   0.530   6.628   3.728 -0.5644  2.7783  1.8395
 1405TIP3    H225707   0.452   6.660   3.602 -0.1215 -0.7890  0.5226
 1406TIP3   OH225708   0.315   2.387   3.302 -0.1097  0.4900  0.1937
 1406TIP3    H125709   0.233   2.404   3.347  1.3682  1.2663  2.8547
 1406TIP3    H225710   0.353   2.474   3.288  0.0424  0.1763 -1.4617
 1407TIP3   OH225711   6.233   3.577  11.448  0.1493 -0.0265 -0.3206
 1407TIP3    H125712   6.242   3.487  11.478  1.7365  0.3705  0.4898
 1407TIP3    H225713   6.210   3.626  11.527 -1.6169  0.1942 -0.9145
 1408TIP3   OH225714   1.366   3.003   2.406  0.0749  0.0122 -0.5953
 1408TIP3    H125715   1.306   2.932   2.384  0.2043 -0.3009  0.0232
 1408TIP3    H225716   1.309   3.077   2.430 -0.0772 -0.2844 -0.0077
 1409TIP3   OH225717   3.561   4.422  11.670 -0.4983  0.0899  0.2286
 1409TIP3    H125718   3.529   4.429  11.579 -1.3665 -1.3479  0.3866
 1409TIP3    H225719   3.518   4.494  11.715  0.0509  0.9098 -0.5273
 1410TIP3   OH225720   5.203   1.180  13.922 -0.2842  0.7159  0.2237
 1410TIP3    H125721   5.136   1.197  13.989  0.0812  1.1143  0.4890
 1410TIP3    H225722   5.177   1.096  13.884 -1.2418  1.1183 -0.0538
 1411TIP3   OH225723   4.714   0.419   1.427  0.2516  0.4643 -0.0006
 1411TIP3    H125724   4.757   0.501   1.452 -1.3315  0.9453  1.3147
 1411TIP3    H225725   4.621   0.437   1.436 -0.1259 -1.6771  1.0088
 1412TIP3   OH225726   1.897   4.693  15.822  0.1838 -0.5045  0.2142
 1412TIP3    H125727   1.989   4.667  15.828 -0.1647 -1.6707  0.9968
 1412TIP3    H225728   1.872   4.671  15.732  0.2907 -1.5988  0.4389
 1413TIP3   OH225729   1.217   5.550   6.156  0.2277 -0.0610  0.4125
 1413TIP3    H125730   1.287   5.575   6.095  0.2113 -0.6172  0.1607
 1413TIP3    H225731   1.262   5.508   6.229  0.3722  1.8073  1.4504
 1414TIP3   OH225732   0.460   2.538   5.923 -0.2865  0.1855 -0.1379
 1414TIP3    H125733   0.380   2.487   5.938  0.3192 -0.7935 -0.1623
 1414TIP3    H225734   0.431   2.614   5.873 -1.3417  0.3079  0.6169
 1415TIP3   OH225735   0.520   5.454  14.759 -0.1891 -0.3374  0.6920
 1415TIP3    H125736   0.433   5.470  14.795  0.1176  0.2906  1.1615
 1415TIP3    H225737   0.529   5.358  14.760 -0.4677 -0.3633  1.6151
 1416TIP3   OH225738   6.275   1.336  12.833  0.0757  0.0719  0.2085
 1416TIP3    H125739   6.292   1.298  12.747 -0.3151  0.1546  0.0931
 1416TIP3    H225740   6.240   1.423  12.814 -1.2976 -0.4157  0.4176
 1417TIP3   OH225741   4.796   1.203   1.741 -0.3316  0.6099  0.0917
 1417TIP3    H125742   4.755   1.157   1.814 -0.7501  2.1698  0.8818
 1417TIP3    H225743   4.860   1.261   1.782 -1.4861  2.4779 -0.6298
 1418TIP3   OH225744   6.780   4.062   6.699 -0.3098  0.2050 -0.7494
 1418TIP3    H125745   6.735   4.129   6.749  1.3555  1.9302 -1.4266
 1418TIP3    H225746   6.740   4.067   6.612 -1.3558 -0.9146 -0.3543
 1419TIP3   OH225747   4.708   5.415   3.750 -0.8766 -0.0948  0.4031
 1419TIP3    H125748   4.656   5.365   3.688  0.1845 -1.5704  0.6434
 1419TIP3    H225749   4.710   5.504   3.714  0.5220 -1.0890 -2.2310
 1420TIP3   OH225750   0.847   3.199   0.502 -0.3221 -0.1820 -0.3829
 1420TIP3    H125751   0.764   3.245   0.513 -0.9610 -1.5941  0.9932
 1420TIP3    H225752   0.833   3.113   0.543  1.6844 -0.6072 -0.4920
 1421TIP3   OH225753   6.345   0.227   5.268 -0.0367 -0.8575 -0.3378
 1421TIP3    H125754   6.306   0.310   5.238  2.2842  0.2590 -0.5107
 1421TIP3    H225755   6.329   0.227   5.362  2.6337  1.4720  0.2480
 1422TIP3   OH225756   3.248   1.419  11.767 -0.2532  0.5233 -0.0517
 1422TIP3    H125757   3.285   1.482  11.706  0.5497  0.2541  0.1430
 1422TIP3    H225758   3.246   1.336  11.718 -0.3461  0.4751  0.0314
 1423TIP3   OH225759   5.700   1.241   0.491 -0.5450  0.4831 -0.0686
 1423TIP3    H125760   5.649   1.319   0.515  0.5667  0.4448  2.7334
 1423TIP3    H225761   5.790   1.273   0.485  0.0010 -0.6467  1.6215
 1424TIP3   OH225762   0.632   1.512   0.839 -0.2342 -0.0378 -0.0025
 1424TIP3    H125763   0.625   1.598   0.880 -0.8471 -1.1356  2.3439
 1424TIP3    H225764   0.542   1.481   0.832 -0.0380 -0.4145 -1.0736
 1425TIP3   OH225765   5.898   1.064   3.817 -0.0393 -0.0373 -0.2155
 1425TIP3    H125766   5.918   1.004   3.745 -1.2734  1.2811 -1.7120
 1425TIP3    H225767   5.951   1.142   3.799 -1.4746  0.8862 -0.5432
 1426TIP3   OH225768   5.169   2.226   5.894  0.3502 -0.4582 -0.2300
 1426TIP3    H125769   5.115   2.280   5.952  0.1078  0.4536 -1.2551
 1426TIP3    H225770   5.110   2.202   5.822  1.1742  0.2040 -1.1602
 1427TIP3   OH225771   6.589   6.131  11.245 -0.5916 -0.1563  0.4655
 1427TIP3    H125772   6.552   6.147  11.331  0.8852 -0.0764  1.1154
 1427TIP3    H225773   6.571   6.038  11.228  1.0155 -0.7773  1.8713
 1428TIP3   OH225774   3.801   5.716   1.395 -0.2232  0.1743  0.2065
 1428TIP3    H125775   3.727   5.759   1.351 -0.4383 -0.1613  0.2326
 1428TIP3    H225776   3.878   5.751   1.352 -0.4503 -0.6348 -0.9073
 1429TIP3   OH225777   3.730   3.545   2.644 -0.5121  0.4025  0.2533
 1429TIP3    H125778   3.748   3.569   2.735  0.9587  2.9986 -0.5948
 1429TIP3    H225779   3.659   3.604   2.617  0.5179  1.1926 -0.8383
 1430TIP3   OH225780   6.748   2.026   5.943  0.1199 -0.9357 -0.2205
 1430TIP3    H125781   6.804   2.097   5.910 -0.5657 -0.7943 -1.1043
 1430TIP3    H225782   6.773   2.017   6.035  0.3392  0.3515 -0.1351
 1431TIP3   OH225783   3.745   0.642   3.384  0.2497  0.4726  0.1788
 1431TIP3    H125784   3.777   0.567   3.434 -0.4973  1.3763  2.1051
 1431TIP3    H225785   3.802   0.714   3.412 -1.0497  1.2849  0.8011
 1432TIP3   OH225786   6.284   6.646  16.359  0.3047  0.4185 -0.4463
 1432TIP3    H125787   6.264   6.569  16.306  1.7556  0.2093 -0.7112
 1432TIP3    H225788   6.228   6.715  16.323 -0.8449 -0.4189 -0.3529
 1433TIP3   OH225789   2.142   5.311  17.198 -0.0265 -0.4512  0.4973
 1433TIP3    H125790   2.189   5.345  17.122  0.9005  0.0654  1.2808
 1433TIP3    H225791   2.051   5.338  17.184  0.1196 -0.4325 -0.4631
 1434TIP3   OH225792   2.456   6.010  13.193 -0.1738  0.0509 -0.2596
 1434TIP3    H125793   2.443   6.080  13.130  1.7993  0.3829 -0.3472
 1434TIP3    H225794   2.493   6.053  13.270  0.2924 -0.7839 -0.0072
 1435TIP3   OH225795   2.536   1.407   2.058 -0.0318 -0.2972 -0.8333
 1435TIP3    H125796   2.518   1.336   2.120 -1.3624  0.5041 -0.2514
 1435TIP3    H225797   2.582   1.473   2.110 -0.0942 -0.1142 -1.0095
 1436TIP3   OH225798   5.011   5.832   1.332  0.5549  0.6054 -0.1977
 1436TIP3    H125799   4.950   5.759   1.331 -0.0180  1.0711 -1.5361
 1436TIP3    H225800   4.982   5.887   1.406 -0.2991  0.5365 -0.4745
 1437TIP3   OH225801   5.176   1.966   3.266 -0.1052  0.2015  0.3752
 1437TIP3    H125802   5.116   2.028   3.307 -0.7341 -0.0579 -0.1377
 1437TIP3    H225803   5.126   1.885   3.259  0.0779  0.1570 -0.6284
 1438TIP3   OH225804   4.823   3.937   4.786 -0.0552  0.1035 -0.9327
 1438TIP3    H125805   4.883   3.936   4.860  0.7360 -0.8407 -1.5719
 1438TIP3    H225806   4.831   4.025   4.750  0.2391  0.2760 -0.4615
 1439TIP3   OH225807   2.256   2.686  14.606 -0.0875  0.2864  0.1857
 1439TIP3    H125808   2.205   2.613  14.571  1.9596 -1.5978  0.8950
 1439TIP3    H225809   2.255   2.673  14.701 -1.9716  2.8559  0.6261
 1440TIP3   OH225810   4.390   5.638   5.179  0.8960 -0.2705 -0.0094
 1440TIP3    H125811   4.433   5.679   5.254 -0.0803  1.5148 -0.3841
 1440TIP3    H225812   4.309   5.601   5.214  0.8303 -0.1537 -0.0391
 1441TIP3   OH225813   6.792   1.483   5.504  0.1121 -0.2425 -0.1607
 1441TIP3    H125814   6.858   1.500   5.572  1.2873 -0.6811 -1.1578
 1441TIP3    H225815   6.727   1.427   5.547 -0.1869  1.0364  1.1483
 1442TIP3   OH225816   0.666   0.324   0.633 -0.1200  0.0211  0.1372
 1442TIP3    H125817   0.697   0.415   0.628  0.6915 -0.1846  1.1003
 1442TIP3    H225818   0.642   0.302   0.543  2.0086  0.4022 -0.5861
 1443TIP3   OH225819   4.852   2.546   1.659 -0.1505  0.1481 -0.1282
 1443TIP3    H125820   4.856   2.450   1.649 -0.9138  0.0325  0.6175
 1443TIP3    H225821   4.939   2.570   1.691  0.8433 -0.0003 -2.4698
 1444TIP3   OH225822   2.990   3.713   5.516  0.2070 -0.2549 -0.1375
 1444TIP3    H125823   3.019   3.676   5.599  0.4823 -0.2171 -0.2161
 1444TIP3    H225824   3.059   3.691   5.454 -0.3721 -0.9816 -0.5442
 1445TIP3   OH225825   1.132   2.218  11.558 -0.5382 -0.4212 -0.2740
 1445TIP3    H125826   1.195   2.253  11.496  1.4011  1.4983  2.5746
 1445TIP3    H225827   1.071   2.290  11.574 -0.0259 -0.2864  1.2278
 1446TIP3   OH225828   4.221   6.348  13.129 -0.3490 -0.4699 -0.3451
 1446TIP3    H125829   4.261   6.289  13.193  1.9903  0.0657 -1.2285
 1446TIP3    H225830   4.283   6.420  13.120 -0.4584 -0.6530 -3.3938
 1447TIP3   OH225831   1.747   3.035   1.137 -0.6498 -0.1341 -0.5265
 1447TIP3    H125832   1.704   2.951   1.155  0.2076 -0.5749 -0.4738
 1447TIP3    H225833   1.801   3.051   1.215  1.6425 -1.1304 -1.8042
 1448TIP3   OH225834   4.589   1.453   4.358  0.4053  0.2704 -0.7963
 1448TIP3    H125835   4.520   1.393   4.384 -0.9759  2.4153  0.7864
 1448TIP3    H225836   4.663   1.430   4.414  0.1104 -0.3698 -0.6675
 1449TIP3   OH225837   3.248   5.275   1.901  0.0179  0.1344  0.0923
 1449TIP3    H125838   3.271   5.355   1.853  0.0664  0.2392  0.2891
 1449TIP3    H225839   3.304   5.276   1.978 -1.0046  0.6783  0.8642
 1450TIP3   OH225840   0.639   4.151   2.378  0.0687 -0.0093 -0.6123
 1450TIP3    H125841   0.689   4.198   2.444 -0.1482  2.8296 -2.2988
 1450TIP3    H225842   0.618   4.067   2.419  4.3031 -0.5536  0.9659
 1451TIP3   OH225843   4.868   0.805  14.045 -0.1843 -0.5064  0.0794
 1451TIP3    H125844   4.943   0.755  14.015 -0.5025  0.6794 -3.0331
 1451TIP3    H225845   4.794   0.744  14.036 -0.1897 -0.3440 -1.1258
 1452TIP3   OH225846   0.881   2.785   5.082  0.6607  0.5396 -0.2786
 1452TIP3    H125847   0.896   2.879   5.073 -0.9691  0.8102 -0.4221
 1452TIP3    H225848   0.816   2.777   5.152  2.2573 -0.6404  1.1820
 1453TIP3   OH225849   3.255   1.642   3.825 -0.1333 -0.3274 -0.2793
 1453TIP3    H125850   3.186   1.625   3.761 -0.1044  0.5539 -0.5635
 1453TIP3    H225851   3.303   1.560   3.830 -0.9115 -0.8049 -0.4347
 1454TIP3   OH225852   2.687   4.932   4.584 -0.0273  0.0590  0.2427
 1454TIP3    H125853   2.729   5.010   4.548 -1.0972  0.8290  0.5938
 1454TIP3    H225854   2.634   4.898   4.511 -0.6017  0.4390  0.4788
 1455TIP3   OH225855   1.160   0.251   1.322  0.0934  0.6201 -0.2619
 1455TIP3    H125856   1.080   0.303   1.325  0.4748  1.2437 -0.5797
 1455TIP3    H225857   1.144   0.186   1.253 -0.0685  0.8662 -0.4596
 1456TIP3   OH225858   1.410   6.693  16.154  0.3604 -0.2594 -0.7177
 1456TIP3    H125859   1.410   6.695  16.059  0.7425 -1.2860 -0.7485
 1456TIP3    H225860   1.502   6.701  16.179  0.1951  0.7777 -0.4038
 1457TIP3   OH225861   6.107   3.095  12.861 -0.1554 -0.3153  0.0384
 1457TIP3    H125862   6.041   3.152  12.901 -0.1857 -0.2276 -0.1357
 1457TIP3    H225863   6.148   3.050  12.935  0.2267  0.3210  0.2120
 1458TIP3   OH225864   1.861   3.796  17.275  0.0281  0.5791  0.7554
 1458TIP3    H125865   1.955   3.804  17.262  0.0857  1.5777  1.6858
 1458TIP3    H225866   1.825   3.792  17.186  0.7843  2.3966  0.3193
 1459TIP3   OH225867   2.879   0.253   3.183 -0.1984  0.0971  0.2670
 1459TIP3    H125868   2.953   0.193   3.187  0.3626  0.8350  1.1167
 1459TIP3    H225869   2.856   0.257   3.090  1.5621  0.7561 -0.1700
 1460TIP3   OH225870   6.247   4.620   3.515 -0.4007  0.3938  0.4846
 1460TIP3    H125871   6.317   4.663   3.564 -0.3311  0.1085  0.6352
 1460TIP3    H225872   6.283   4.607   3.428  0.7697 -2.2126  1.2528
 1461TIP3   OH225873   3.256   3.643   3.807  0.0273 -0.6940  0.2463
 1461TIP3    H125874   3.191   3.675   3.869 -0.3698 -1.5603  0.2975
 1461TIP3    H225875   3.209   3.579   3.753  1.1608 -2.4214  1.2238
 1462TIP3   OH225876   0.370   4.051  16.498  0.0578 -0.1621  0.1278
 1462TIP3    H125877   0.392   4.128  16.446 -1.9920 -0.7185 -1.6470
 1462TIP3    H225878   0.321   4.086  16.573  2.1113  0.5305  1.2278
 1463TIP3   OH225879   3.335   4.486  17.277 -0.5004  0.1497  0.4198
 1463TIP3    H125880   3.258   4.480  17.334  0.4351 -0.5223  1.6687
 1463TIP3    H225881   3.353   4.395  17.252 -0.9279  0.4383 -1.0391
 1464TIP3   OH225882   0.007   1.963   1.301  0.0768  0.2151 -0.2997
 1464TIP3    H125883   0.073   1.897   1.280  1.1183  0.8495  0.8432
 1464TIP3    H225884   0.054   2.027   1.353 -1.5767  0.4199  1.0052
 1465TIP3   OH225885   3.986   1.005   1.076  0.2149 -0.2216 -0.3648
 1465TIP3    H125886   4.063   1.055   1.103  1.5325 -2.2634 -0.1750
 1465TIP3    H225887   3.952   0.967   1.157 -1.2445  0.9092 -0.3966
 1466TIP3   OH225888   0.159   0.700  13.947 -0.2679 -0.9440  0.2114
 1466TIP3    H125889   0.154   0.791  13.976  0.6674 -1.2064  1.2522
 1466TIP3    H225890   0.229   0.699  13.881 -1.3550 -0.6369 -0.9916
 1467TIP3   OH225891   6.699   4.680   1.349 -0.6285 -0.3297  0.2193
 1467TIP3    H125892   6.653   4.596   1.341 -0.6604 -0.3208  0.3086
 1467TIP3    H225893   6.788   4.661   1.320 -1.2090  0.1406 -2.1110
 1468TIP3   OH225894   3.529   5.629   0.003 -0.0348 -0.0291 -0.7990
 1468TIP3    H125895   3.601   5.663  -0.049 -2.4304  2.3038 -2.9092
 1468TIP3    H225896   3.497   5.553  -0.046  0.6903 -0.8260 -0.0682
 1469TIP3   OH225897   3.070   6.748   3.919  0.6684  0.5325  0.3179
 1469TIP3    H125898   3.088   6.662   3.879 -0.3108  0.1727  0.6286
 1469TIP3    H225899   3.096   6.737   4.011 -0.1926  0.3105  0.5436
 1470TIP3   OH225900   5.648   6.138   0.906  0.4436  0.3629  0.6199
 1470TIP3    H125901   5.635   6.181   0.822  1.0515 -0.4191  0.1092
 1470TIP3    H225902   5.560   6.114   0.935  0.2490  0.4678  0.1162
 1471TIP3   OH225903   5.964   3.415  12.235 -0.2059 -0.2546  0.5662
 1471TIP3    H125904   6.008   3.436  12.317 -0.4819  0.6211  0.4953
 1471TIP3    H225905   5.904   3.488  12.220  1.1949  0.5814 -1.3714
 1472TIP3   OH225906   6.776   6.446   2.389 -0.9897 -0.5404  0.2141
 1472TIP3    H125907   6.736   6.382   2.449 -0.9861 -1.5938 -0.8540
 1472TIP3    H225908   6.865   6.413   2.377 -0.6649  0.2531  0.4378
 1473TIP3   OH225909   0.174   0.431   4.767  0.1178  0.1661 -0.6392
 1473TIP3    H125910   0.179   0.335   4.760 -0.0164 -0.1593  2.4174
 1473TIP3    H225911   0.257   0.456   4.808 -0.4316  1.1944 -0.1363
 1474TIP3   OH225912   2.627   3.057   1.430  0.4105 -0.3885 -0.1776
 1474TIP3    H125913   2.661   2.972   1.459  0.3403  0.0286  1.2060
 1474TIP3    H225914   2.682   3.121   1.476  1.5472  0.3642 -2.4445
 1475TIP3   OH225915   5.357   4.172   2.415  0.5904  0.0289  0.0530
 1475TIP3    H125916   5.434   4.226   2.399  2.1301 -1.3100  2.3370
 1475TIP3    H225917   5.393   4.087   2.441 -1.6224 -0.4739  1.7513
 1476TIP3   OH225918   2.562   4.430   3.518 -0.0944  0.0629 -0.0362
 1476TIP3    H125919   2.573   4.482   3.597  1.0911  0.1570 -0.2412
 1476TIP3    H225920   2.553   4.340   3.548  1.5587 -0.0647  0.1934
 1477TIP3   OH225921   5.945   6.486  12.292  0.8769  0.4079 -0.0512
 1477TIP3    H125922   5.885   6.500  12.218  0.1043 -0.6587  0.3442
 1477TIP3    H225923   5.898   6.522  12.367  0.9746  0.0640  0.1749
 1478TIP3   OH225924   5.259   1.161  11.798 -0.7450  0.1180  0.5884
 1478TIP3    H125925   5.258   1.112  11.716 -2.0052  0.4782  0.3579
 1478TIP3    H225926   5.347   1.198  11.803  0.0666 -1.7084  0.5174
 1479TIP3   OH225927   5.556   4.826   2.887  0.2471 -0.0708  0.2842
 1479TIP3    H125928   5.536   4.776   2.966  0.1632  0.9483  0.9194
 1479TIP3    H225929   5.578   4.914   2.918 -0.9099  0.6714 -0.8850
 1480TIP3   OH225930   6.687   1.023  13.283 -0.3889  0.2486 -0.4256
 1480TIP3    H125931   6.593   1.012  13.268 -0.2166 -0.3385 -1.1652
 1480TIP3    H225932   6.693   1.080  13.359 -1.3410 -0.1935 -0.0090
 1481TIP3   OH225933   5.016   6.546  12.696 -0.3584  0.1546  0.2204
 1481TIP3    H125934   4.948   6.478  12.694 -1.4431  1.1589  1.5368
 1481TIP3    H225935   4.990   6.608  12.628 -0.0598 -0.0818 -0.1167
 1482TIP3   OH225936   4.939   1.880   6.719  0.1126  0.4829 -0.2734
 1482TIP3    H125937   4.867   1.883   6.656  0.6699  1.8360 -0.8902
 1482TIP3    H225938   4.985   1.799   6.700 -0.3941  0.3268 -0.8499
 1483TIP3   OH225939   5.695   2.498   1.339  0.4930  0.0757 -0.3136
 1483TIP3    H125940   5.641   2.562   1.293 -0.7092 -0.0514  0.8586
 1483TIP3    H225941   5.732   2.444   1.269  1.0130  1.6129 -1.2789
 1484TIP3   OH225942   6.060   2.058  11.402 -0.3276  0.4970 -0.0567
 1484TIP3    H125943   5.992   2.014  11.350 -0.5471 -0.8951  1.3195
 1484TIP3    H225944   6.136   2.000  11.395  1.2290  2.6248 -2.5723
 1485TIP3   OH225945   1.710   2.707   2.807  0.3544  0.5529  0.3459
 1485TIP3    H125946   1.664   2.627   2.830  1.5488  0.0255  1.0078
 1485TIP3    H225947   1.750   2.688   2.722  3.0810 -0.7075  1.7905
 1486TIP3   OH225948   4.233   4.083  11.039  0.0811  0.3359  0.2858
 1486TIP3    H125949   4.252   4.164  11.086  1.1409  1.3316 -1.7467
 1486TIP3    H225950   4.319   4.049  11.014 -0.3654  1.7357 -3.8816
 1487TIP3   OH225951   0.997   1.059   3.797  0.0231 -0.1279 -0.1471
 1487TIP3    H125952   0.950   0.975   3.792 -2.2180  1.0375 -0.1728
 1487TIP3    H225953   1.081   1.037   3.837 -0.7359 -2.3010  0.4310
 1488TIP3   OH225954   2.794   6.098   4.980  0.3718 -0.4983 -0.5855
 1488TIP3    H125955   2.777   6.057   4.895 -0.1503  2.4500 -2.0219
 1488TIP3    H225956   2.827   6.185   4.958  0.6763  0.1958  2.2725
 1489TIP3   OH225957   6.275   5.071   5.861  0.2861 -0.3528 -0.0713
 1489TIP3    H125958   6.273   4.998   5.800 -1.0225  0.5158 -1.1317
 1489TIP3    H225959   6.188   5.110   5.856  0.9385  1.2947  0.4335
 1490TIP3   OH225960   4.492   3.872  14.075  0.3334 -0.0954 -0.5649
 1490TIP3    H125961   4.543   3.911  14.004 -0.8404 -0.6314 -1.7578
 1490TIP3    H225962   4.402   3.901  14.058  0.3448  2.2273  2.4326
 1491TIP3   OH225963   6.421   0.074  17.237  1.0172  0.0472  0.0875
 1491TIP3    H125964   6.472   0.047  17.313  1.6376 -0.5133 -0.5193
 1491TIP3    H225965   6.440   0.167  17.227  2.6739 -0.3448 -0.6838
 1492TIP3   OH225966   1.659   6.036  13.193 -0.1654  0.5943  0.1423
 1492TIP3    H125967   1.656   5.944  13.219 -0.5238  0.1551 -1.3739
 1492TIP3    H225968   1.610   6.040  13.111  0.9660  1.8954 -0.5230
 1493TIP3   OH225969   4.324   3.602  16.590 -0.7716 -0.3597  0.5075
 1493TIP3    H125970   4.282   3.641  16.514 -0.0597  1.1490  0.8484
 1493TIP3    H225971   4.311   3.665  16.660  3.2938  1.0603  0.2825
 1494TIP3   OH225972   2.471   4.926  12.620  0.1005  0.2449 -0.1453
 1494TIP3    H125973   2.421   4.969  12.689  0.5892  0.0498  0.3453
 1494TIP3    H225974   2.555   4.906  12.661  0.4203  0.1751 -0.8178
 1495TIP3   OH225975   4.886   1.588   0.313  0.1964  0.3317  0.3177
 1495TIP3    H125976   4.905   1.507   0.266 -2.4464  0.0758 -0.4777
 1495TIP3    H225977   4.967   1.639   0.308  1.5206 -1.7409 -0.2376
 1496TIP3   OH225978   4.735   2.791  14.318  0.4447  0.4925  0.7277
 1496TIP3    H125979   4.698   2.762  14.402 -1.5964 -2.2850 -0.9399
 1496TIP3    H225980   4.811   2.735  14.305 -1.4310 -1.9310 -0.8480
 1497TIP3   OH225981   1.948   3.607  14.277  0.1786 -0.2870 -0.6195
 1497TIP3    H125982   1.902   3.560  14.208  1.0241 -0.4230 -1.1067
 1497TIP3    H225983   1.992   3.679  14.232 -0.7729  0.7529  0.0648
 1498TIP3   OH225984   4.427   6.254   2.319  0.1204  0.2547 -0.5935
 1498TIP3    H125985   4.494   6.197   2.357 -0.1736 -1.4253 -2.4359
 1498TIP3    H225986   4.473   6.302   2.250 -0.1511  0.5261 -0.5866
 1499TIP3   OH225987   3.255   1.818   1.708  0.4469  0.1518 -0.3370
 1499TIP3    H125988   3.281   1.763   1.634 -0.5082 -0.2310 -0.3921
 1499TIP3    H225989   3.334   1.870   1.727  0.4314  0.9574 -2.2291
 1500TIP3   OH225990   2.008   6.777   1.457 -0.1937  0.1267 -0.1966
 1500TIP3    H125991   1.923   6.735   1.472 -0.0944 -0.5669 -1.4985
 1500TIP3    H225992   2.067   6.732   1.518 -0.8257  0.9360  1.0628
 1501TIP3   OH225993   2.601   4.111  13.922  0.0319  0.0013  0.0526
 1501TIP3    H125994   2.623   4.143  14.010 -0.5450 -0.5340  0.3986
 1501TIP3    H225995   2.686   4.101  13.879  0.4786 -1.6629  1.2341
 1502TIP3   OH225996   0.857   1.318  12.244  0.0758 -0.8968  0.0339
 1502TIP3    H125997   0.783   1.370  12.212 -1.1469 -1.6483  1.5276
 1502TIP3    H225998   0.908   1.379  12.297  0.3182 -0.4866 -0.6532
 1503TIP3   OH225999   4.949   3.547   2.013 -0.4395  0.4071  0.1304
 1503TIP3    H126000   4.975   3.640   2.016 -0.4698  0.4296 -0.2811
 1503TIP3    H226001   4.935   3.529   1.920 -0.9890  0.1412  0.2632
 1504TIP3   OH226002   1.176   2.058  17.070 -0.2923 -0.1847 -0.1177
 1504TIP3    H126003   1.182   2.127  17.004 -1.0029  0.8309  0.8296
 1504TIP3    H226004   1.103   2.004  17.042 -0.4726  0.1364 -0.2757
 1505TIP3   OH226005   3.364   6.298  12.878  0.0416 -0.1551  0.0455
 1505TIP3    H126006   3.394   6.315  12.968  0.9737 -0.7301 -0.1465
 1505TIP3    H226007   3.444   6.298  12.826 -0.4906  0.1148 -0.7853
 1506TIP3   OH226008   2.705   0.901  15.684 -0.7310  0.1718 -0.0196
 1506TIP3    H126009   2.719   0.819  15.731  0.5624  0.5211  0.2484
 1506TIP3    H226010   2.623   0.888  15.637  0.1726 -1.8657 -1.1825
 1507TIP3   OH226011   5.497   3.725  15.699  0.2145 -0.2329 -0.0352
 1507TIP3    H126012   5.461   3.704  15.786  0.9416  0.2682  0.4036
 1507TIP3    H226013   5.557   3.797  15.716 -0.4885  0.6433 -1.1409
 1508TIP3   OH226014   5.933   0.767   6.334  0.4352 -0.4967 -0.8041
 1508TIP3    H126015   5.940   0.682   6.378 -0.4713 -0.9452 -1.4874
 1508TIP3    H226016   5.842   0.772   6.306  0.4577  0.7398 -0.7346
 1509TIP3   OH226017   5.425   3.574   6.162  0.3670 -0.4934 -0.0533
 1509TIP3    H126018   5.387   3.488   6.181  0.9352 -0.7879 -0.2427
 1509TIP3    H226019   5.395   3.630   6.235 -0.9933 -0.5336 -0.5453
 1510TIP3   OH226020   3.246   0.402   4.081  0.2878  0.0903  0.7715
 1510TIP3    H126021   3.332   0.416   4.041  0.9450  0.3807  2.2334
 1510TIP3    H226022   3.204   0.336   4.025  0.2732  2.0199 -1.6513
 1511TIP3   OH226023   2.366   4.331  14.903 -0.2420 -0.1161 -0.1042
 1511TIP3    H126024   2.359   4.248  14.950 -0.4031  0.5624  1.1088
 1511TIP3    H226025   2.277   4.368  14.904  0.3192  1.3802  1.9125
 1512TIP3   OH226026   2.625   6.221   3.570 -0.7080  0.1552  0.0618
 1512TIP3    H126027   2.661   6.173   3.645 -0.3438  1.0306  0.4667
 1512TIP3    H226028   2.580   6.296   3.609  0.4377  1.2478 -0.6170
 1513TIP3   OH226029   6.406   6.114  14.908 -0.7493  0.2834  0.9793
 1513TIP3    H126030   6.336   6.055  14.880  0.6847 -1.9044  1.7631
 1513TIP3    H226031   6.484   6.080  14.865  0.3196  0.9489  2.3255
 1514TIP3   OH226032   2.755   5.636   3.618  0.3993  0.0885  0.3118
 1514TIP3    H126033   2.718   5.551   3.642  0.0766  0.1336 -0.0229
 1514TIP3    H226034   2.740   5.692   3.694  1.7300 -0.4905  1.0444
 1515TIP3   OH226035   1.686   3.050   6.565  0.1705 -0.0493 -0.3514
 1515TIP3    H126036   1.750   3.111   6.529  0.2930 -0.6106 -1.1046
 1515TIP3    H226037   1.669   3.083   6.653 -0.0191  1.2727 -0.8524
 1516TIP3   OH226038   4.042   6.211  16.595 -0.0974  0.1092  0.5478
 1516TIP3    H126039   4.052   6.188  16.687 -1.0291 -0.5975  0.4844
 1516TIP3    H226040   4.067   6.132  16.547  1.3498  0.7752  0.1269
 1517TIP3   OH226041   0.108   5.302  16.836 -0.0474  0.0199 -0.0299
 1517TIP3    H126042   0.016   5.283  16.815 -0.3605  2.2948 -0.9476
 1517TIP3    H226043   0.115   5.284  16.930 -1.7329  0.7969  0.2910
 1518TIP3   OH226044   1.394   5.333  17.013 -0.2746  1.2131  0.2838
 1518TIP3    H126045   1.306   5.340  17.048 -0.1397 -0.1605  0.9594
 1518TIP3    H226046   1.447   5.298  17.085  0.0184 -1.6253 -1.1670
 1519TIP3   OH226047   3.365   3.548   1.582 -0.3243  0.1165  0.0114
 1519TIP3    H126048   3.441   3.491   1.578 -0.9550 -0.7590  0.2456
 1519TIP3    H226049   3.355   3.582   1.493 -0.0057 -0.2233 -0.1516
 1520TIP3   OH226050   4.334   1.692  11.163  0.5782 -0.0884  0.2147
 1520TIP3    H126051   4.371   1.628  11.102  1.6189  1.2824 -0.6567
 1520TIP3    H226052   4.242   1.699  11.138  0.2728 -1.7131  0.7745
 1521TIP3   OH226053   4.636   6.785  15.877 -0.2693 -0.0054 -0.0082
 1521TIP3    H126054   4.671   6.718  15.818  3.6943  0.3546  1.6321
 1521TIP3    H226055   4.633   6.865  15.824 -0.4714 -0.4575 -0.6949
 1522TIP3   OH226056   3.316   1.404   0.857  0.0970  0.0554 -0.1655
 1522TIP3    H126057   3.225   1.401   0.826 -0.5568 -1.0323  1.6778
 1522TIP3    H226058   3.368   1.371   0.784 -1.4204 -2.9883 -0.0214
 1523TIP3   OH226059   5.682   2.583   4.225  0.0595  0.2882  0.1489
 1523TIP3    H126060   5.642   2.613   4.143 -0.0910 -2.3803 -0.8536
 1523TIP3    H226061   5.644   2.640   4.292 -1.0206  1.5358 -1.4365
 1524TIP3   OH226062   5.349   5.565  16.298 -0.0176 -0.2009 -0.4443
 1524TIP3    H126063   5.374   5.623  16.226 -0.5836  1.6953  0.8028
 1524TIP3    H226064   5.405   5.593  16.371  2.3237 -3.6782 -0.6561
 1525TIP3   OH226065   1.676   2.142   1.450 -0.0617 -0.6729  0.0232
 1525TIP3    H126066   1.613   2.172   1.385 -1.8356 -1.2388  1.3905
 1525TIP3    H226067   1.761   2.145   1.405 -1.1149 -0.4413 -2.0781
 1526TIP3   OH226068   0.413   5.271   2.136 -0.0257  0.2664 -0.3729
 1526TIP3    H126069   0.467   5.221   2.196  1.0405  1.5440 -0.2217
 1526TIP3    H226070   0.361   5.205   2.089  0.8112 -0.9029  0.3060
 1527TIP3   OH226071   3.946   4.788   1.435  0.1992  0.5114 -0.4138
 1527TIP3    H126072   3.861   4.758   1.402 -0.6117  1.4807  0.6875
 1527TIP3    H226073   3.972   4.856   1.373 -0.4600  1.0888 -0.0792
 1528TIP3   OH226074   2.186   4.114  15.668  0.3760  0.1812 -0.2740
 1528TIP3    H126075   2.137   4.152  15.595  1.1777 -0.5037 -1.1985
 1528TIP3    H226076   2.271   4.093  15.631  0.8941  0.0773  0.9496
 1529TIP3   OH226077   0.253   4.912   0.939 -0.3218  0.0422  0.0107
 1529TIP3    H126078   0.229   4.823   0.965 -0.7126 -0.0249 -0.5572
 1529TIP3    H226079   0.172   4.950   0.905 -0.5795  1.2174  1.8145
 1530TIP3   OH226080   3.504   4.386   5.529  0.0427  0.6400 -0.3725
 1530TIP3    H126081   3.523   4.338   5.448 -0.5105  0.8047 -0.6021
 1530TIP3    H226082   3.544   4.332   5.597 -1.7318 -0.9104 -0.4734
 1531TIP3   OH226083   3.847   5.988   3.834 -0.3736  0.7641 -1.1857
 1531TIP3    H126084   3.839   6.083   3.828  2.7032  1.0110 -3.5020
 1531TIP3    H226085   3.911   5.974   3.904  0.0778  0.4788 -1.6533
 1532TIP3   OH226086   1.612   4.481  16.772 -0.0870 -0.0691 -0.0869
 1532TIP3    H126087   1.653   4.566  16.757  0.7675 -0.4457  0.0464
 1532TIP3    H226088   1.555   4.495  16.848 -2.1070  1.0726 -1.7133
 1533TIP3   OH226089   1.221   1.189   5.959 -0.2929  0.3406 -0.1678
 1533TIP3    H126090   1.208   1.266   5.904  0.7858  0.1798 -0.6729
 1533TIP3    H226091   1.312   1.194   5.987 -0.3442 -0.4891  0.2016
 1534TIP3   OH226092   0.997   6.692   2.620  0.2367  0.3525  0.7342
 1534TIP3    H126093   0.910   6.724   2.597 -0.0780 -0.9353  0.0595
 1534TIP3    H226094   1.044   6.770   2.651 -0.6638  1.3634 -0.3535
 1535TIP3   OH226095   4.662   4.955  11.654 -0.3152  0.1986 -0.4176
 1535TIP3    H126096   4.673   5.050  11.651 -0.5264  0.1857 -2.7576
 1535TIP3    H226097   4.693   4.924  11.569  0.4860 -1.9365  0.5619
 1536TIP3   OH226098   2.559   1.418   0.202  0.6617  0.0242  0.0350
 1536TIP3    H126099   2.619   1.437   0.130 -1.7300  2.8543 -1.4391
 1536TIP3    H226100   2.603   1.453   0.280  1.8077  0.1188 -0.6340
 1537TIP3   OH226101   2.960   0.854  16.712 -0.1879 -0.2879 -0.6494
 1537TIP3    H126102   2.982   0.898  16.794 -1.4293  0.7540 -0.8301
 1537TIP3    H226103   3.041   0.811  16.685  0.3868 -0.1944  0.8355
 1538TIP3   OH226104   0.126   5.752   1.913 -0.1154  0.1667 -0.2601
 1538TIP3    H126105   0.182   5.677   1.895  1.1522  0.5654  1.7091
 1538TIP3    H226106   0.160   5.822   1.856  2.4867  0.8391  1.9130
 1539TIP3   OH226107   6.088   3.102   0.398 -0.3935  0.2857 -0.3038
 1539TIP3    H126108   6.110   3.054   0.478 -2.0238  1.5219  0.9542
 1539TIP3    H226109   6.114   3.043   0.327 -0.4319 -1.5659  1.1306
 1540TIP3   OH226110   3.490   6.547   3.525 -0.3628 -0.4842  0.1761
 1540TIP3    H126111   3.458   6.633   3.498 -1.0089 -0.9184 -0.5112
 1540TIP3    H226112   3.568   6.565   3.576 -1.8602  0.6747  2.2196
 1541TIP3   OH226113   0.642   6.562  15.987 -0.5953 -0.3310  0.1059
 1541TIP3    H126114   0.687   6.629  15.936 -1.6256  0.3090  0.0059
 1541TIP3    H226115   0.693   6.482  15.972  0.8991  0.4976  0.5529
 1542TIP3   OH226116   2.123   2.633   3.080  0.2152 -0.3896  0.1415
 1542TIP3    H126117   2.162   2.720   3.088  1.9936 -1.0876 -0.5196
 1542TIP3    H226118   2.187   2.582   3.031 -1.3489 -1.7523 -0.5808
 1543TIP3   OH226119   4.676   6.386  11.823  0.0338 -0.2920  0.2242
 1543TIP3    H126120   4.716   6.363  11.907 -0.2641  0.9211  0.7212
 1543TIP3    H226121   4.751   6.409  11.767  0.1578  0.2769  0.6101
 1544TIP3   OH226122   5.521   4.967  10.746 -0.2681  0.8257 -0.5128
 1544TIP3    H126123   5.456   4.968  10.676  0.5571 -0.6698 -1.3455
 1544TIP3    H226124   5.540   4.875  10.760  1.4333  1.2112 -0.0694
 1545TIP3   OH226125   6.685   5.016  13.206  0.4040 -0.0867  0.0781
 1545TIP3    H126126   6.692   5.015  13.302 -2.7342 -0.2985  0.4162
 1545TIP3    H226127   6.629   4.941  13.185  0.2413  0.5040 -1.8169
 1546TIP3   OH226128   2.208   1.319   5.284  0.6943 -0.1244 -0.0333
 1546TIP3    H126129   2.301   1.302   5.266  0.3836 -0.7886 -1.1512
 1546TIP3    H226130   2.197   1.412   5.268  1.0471 -0.1642 -0.5319
 1547TIP3   OH226131   4.285   5.486  11.206 -0.2551 -0.7985 -0.2454
 1547TIP3    H126132   4.252   5.551  11.144 -0.3736  0.4450  1.0816
 1547TIP3    H226133   4.310   5.411  11.151  1.1217  0.8231 -1.9670
 1548TIP3   OH226134   0.189   6.331  11.750 -0.0728  0.2891 -0.2791
 1548TIP3    H126135   0.156   6.317  11.838  0.7154  1.5599  0.2473
 1548TIP3    H226136   0.113   6.321  11.693 -0.7583  0.3268  0.6301
 1549TIP3   OH226137   1.053   4.874   4.774  0.1435 -0.2846 -0.0831
 1549TIP3    H126138   0.994   4.798   4.768  0.0562 -0.0871 -2.2722
 1549TIP3    H226139   1.096   4.878   4.689  2.1858  0.5384  0.9228
 1550TIP3   OH226140   1.461   3.143  13.592  0.0330 -0.4516  0.4056
 1550TIP3    H126141   1.506   3.222  13.563 -0.1022 -0.0275  1.3100
 1550TIP3    H226142   1.427   3.104  13.511 -0.4268  0.7414 -0.0071
 1551TIP3   OH226143   1.233   1.627  13.741  0.1406  0.1855  0.6119
 1551TIP3    H126144   1.250   1.577  13.820  0.7602  1.7104  1.4840
 1551TIP3    H226145   1.166   1.577  13.695 -0.5130 -0.5397  2.2807
 1552TIP3   OH226146   1.982   0.131   0.566 -0.0069 -0.4471  0.6788
 1552TIP3    H126147   2.035   0.121   0.487 -0.3078  2.0244  0.0839
 1552TIP3    H226148   1.975   0.043   0.602 -0.1856 -1.7397 -2.2623
 1553TIP3   OH226149   5.434   0.835  12.154  0.3989 -0.2652 -0.1072
 1553TIP3    H126150   5.434   0.836  12.059  2.3379 -0.4284 -0.1399
 1553TIP3    H226151   5.402   0.922  12.179 -0.4013 -0.3211 -0.8764
 1554TIP3   OH226152   0.240   5.475  16.335 -0.3365 -0.4031 -0.4881
 1554TIP3    H126153   0.253   5.563  16.370  0.8933 -0.9955  0.6204
 1554TIP3    H226154   0.145   5.464  16.334 -0.4679 -0.0038  1.8426
 1555TIP3   OH226155   5.306   6.008   2.845  0.2231 -0.3903 -0.4822
 1555TIP3    H126156   5.337   6.098   2.836  1.0364 -0.6733 -0.6665
 1555TIP3    H226157   5.378   5.963   2.891 -0.0446 -1.0066 -0.6546
 1556TIP3   OH226158   2.564   2.093  14.014  0.6854 -0.3113  0.2835
 1556TIP3    H126159   2.579   2.184  14.039  0.1290 -0.3737  0.8503
 1556TIP3    H226160   2.497   2.098  13.946  0.0515 -0.3611  0.9073
 1557TIP3   OH226161   1.651   6.228   4.115  0.1980  0.0738 -0.1945
 1557TIP3    H126162   1.579   6.215   4.177  0.5915  0.5001  0.3691
 1557TIP3    H226163   1.647   6.321   4.092  0.8295  0.2041  0.1895
 1558TIP3   OH226164   3.960   1.152  12.073 -0.5732  0.2694 -0.0598
 1558TIP3    H126165   3.900   1.221  12.103 -2.3881 -0.8423 -0.9325
 1558TIP3    H226166   3.998   1.186  11.993  1.5887  1.8107  1.5352
 1559TIP3   OH226167   3.721   2.171   2.243  0.3974 -1.0694 -0.5789
 1559TIP3    H126168   3.745   2.181   2.152 -1.7806 -1.0785 -1.2164
 1559TIP3    H226169   3.628   2.192   2.246  0.7705  0.7672  1.9707
 1560TIP3   OH226170   2.932   2.374  14.660 -0.0810 -1.0079 -0.5940
 1560TIP3    H126171   2.934   2.418  14.745 -0.0765 -0.8122 -0.6958
 1560TIP3    H226172   2.878   2.296  14.675 -0.8338 -0.5051 -0.6334
 1561TIP3   OH226173   2.944   4.105   1.121 -0.0263  0.3963  0.3294
 1561TIP3    H126174   3.025   4.076   1.163 -0.3037 -1.5193 -0.3494
 1561TIP3    H226175   2.875   4.078   1.181 -0.2979 -0.4598 -0.3493
 1562TIP3   OH226176   4.748   4.872   1.652  0.0024  0.1034  0.0075
 1562TIP3    H126177   4.796   4.877   1.569 -0.6583 -1.2242 -0.4731
 1562TIP3    H226178   4.810   4.906   1.717  1.4371 -1.1321 -0.6613
 1563TIP3   OH226179   2.254   6.316   1.567 -0.2716 -0.0316  0.1552
 1563TIP3    H126180   2.316   6.342   1.499  1.2025  0.4665  1.6324
 1563TIP3    H226181   2.253   6.221   1.563  0.5832 -0.0419  0.1131
 1564TIP3   OH226182   4.311   3.249   3.840  0.2244 -0.7082  0.2247
 1564TIP3    H126183   4.354   3.316   3.787  1.5063 -0.9318  0.9347
 1564TIP3    H226184   4.318   3.169   3.787 -0.2941 -0.5300 -0.1247
 1565TIP3   OH226185   3.421   0.894  11.723 -0.0741  0.5919 -0.3066
 1565TIP3    H126186   3.502   0.884  11.673  0.0364 -0.7062  0.0872
 1565TIP3    H226187   3.359   0.930  11.660  0.0177 -1.1584 -1.4930
 1566TIP3   OH226188   2.003   1.880  12.600  0.3278 -0.4103 -0.8155
 1566TIP3    H126189   2.009   1.826  12.679  0.2975  1.7348  0.7664
 1566TIP3    H226190   2.093   1.908  12.583 -0.0321  2.2342  0.9022
 1567TIP3   OH226191   5.424   3.805  16.490 -0.6407 -0.0091 -0.4986
 1567TIP3    H126192   5.463   3.724  16.458  0.9836 -0.2980  1.9055
 1567TIP3    H226193   5.336   3.781  16.518 -0.6457 -0.6193 -1.0286
 1568TIP3   OH226194   6.288   6.508   6.401  0.2822 -0.2242 -0.6040
 1568TIP3    H126195   6.301   6.496   6.307 -0.4476  0.0718 -0.7495
 1568TIP3    H226196   6.200   6.475   6.418 -0.0944  0.9043 -0.2668
 1569TIP3   OH226197   5.920   3.599   5.192 -0.7501  0.1835  0.3480
 1569TIP3    H126198   5.927   3.632   5.282 -0.8557  0.0484  0.4070
 1569TIP3    H226199   6.006   3.563   5.173 -0.7334  0.1935  0.4029
 1570TIP3   OH226200   4.937   1.698  13.327  0.0328  0.0177 -0.1936
 1570TIP3    H126201   5.018   1.696  13.377  1.2276 -1.9139 -2.0588
 1570TIP3    H226202   4.952   1.764  13.258  0.7599 -1.5574 -1.5998
 1571TIP3   OH226203   2.388   3.338   0.034  0.4435 -0.8004 -0.3433
 1571TIP3    H126204   2.298   3.326   0.066  0.2109 -0.7756 -0.9737
 1571TIP3    H226205   2.400   3.433   0.030  0.6477 -0.8005  0.1327
 1572TIP3   OH226206   1.910   0.187   3.886 -0.4033 -0.3715 -0.3277
 1572TIP3    H126207   1.852   0.149   3.953 -0.6824  0.6019 -0.0038
 1572TIP3    H226208   1.936   0.112   3.832 -1.0573 -1.0017  0.2081
 1573TIP3   OH226209   1.628   2.247   0.625  0.1915  0.2216  0.6046
 1573TIP3    H126210   1.706   2.224   0.574 -0.7228 -0.1240 -0.6956
 1573TIP3    H226211   1.623   2.342   0.620 -1.1665  0.0925 -2.0296
 1574TIP3   OH226212   2.646   6.468   4.928  0.0969 -0.2605  0.0451
 1574TIP3    H126213   2.740   6.451   4.919  0.0707 -1.8877  2.0770
 1574TIP3    H226214   2.637   6.507   5.016 -1.2337 -1.3411  0.4263
 1575TIP3   OH226215   0.651   0.961  12.536  0.0231  0.1929 -0.1129
 1575TIP3    H126216   0.615   0.981  12.622 -1.3851  3.7523 -1.3558
 1575TIP3    H226217   0.707   1.036  12.515  1.4784 -1.2598 -1.7657
 1576TIP3   OH226218   1.600   6.256   2.013  0.3474  0.2080  0.2360
 1576TIP3    H126219   1.532   6.313   2.047  0.2175  0.4949 -0.5082
 1576TIP3    H226220   1.562   6.215   1.936  0.7687 -0.1749  0.2237
 1577TIP3   OH226221   4.574   2.396  14.099  0.1198 -0.8501  0.3219
 1577TIP3    H126222   4.507   2.463  14.091 -0.4701 -1.3750  0.7316
 1577TIP3    H226223   4.633   2.428  14.167 -0.1472 -0.7451  0.5018
 1578TIP3   OH226224   5.209   4.193   4.999 -0.7637  0.0776  0.1259
 1578TIP3    H126225   5.135   4.229   5.049 -0.3089 -0.5797  1.3164
 1578TIP3    H226226   5.276   4.174   5.065  0.1293 -0.1817 -0.8254
 1579TIP3   OH226227   2.511   5.638   2.080  0.3435 -0.3653 -0.3142
 1579TIP3    H126228   2.555   5.571   2.132  1.4322  0.0904 -0.6067
 1579TIP3    H226229   2.493   5.596   1.996  0.2695 -0.5453 -0.2081
 1580TIP3   OH226230   4.171   1.402   2.028 -0.0660  0.5148  0.5055
 1580TIP3    H126231   4.167   1.315   2.069  0.3346  0.4400  0.3916
 1580TIP3    H226232   4.247   1.444   2.070  0.1700  0.5467  0.0524
 1581TIP3   OH226233   0.771   6.344   0.312  0.3585  0.0779 -0.4497
 1581TIP3    H126234   0.743   6.424   0.268 -0.4322 -0.3836 -0.8059
 1581TIP3    H226235   0.796   6.285   0.241 -0.1971 -0.4035 -0.2518
 1582TIP3   OH226236   3.211   4.112   4.437 -0.0061  0.9664 -0.3142
 1582TIP3    H126237   3.155   4.042   4.469  0.6078  0.3693 -0.5163
 1582TIP3    H226238   3.297   4.092   4.473  0.1142  1.7885 -0.1247
 1583TIP3   OH226239   0.114   3.492  15.210  0.0927 -0.3529  0.1330
 1583TIP3    H126240   0.036   3.463  15.256 -0.1303  1.4490  0.9688
 1583TIP3    H226241   0.157   3.552  15.270 -0.1252  1.9783 -1.8789
 1584TIP3   OH226242   4.376   4.109  10.357 -0.5587  0.1722  0.0637
 1584TIP3    H126243   4.287   4.096  10.390 -1.5615  0.9508 -2.1777
 1584TIP3    H226244   4.399   4.026  10.316 -1.0422  0.5949 -1.0806
 1585TIP3   OH226245   1.709   2.645  14.569  0.0133  0.1027  0.1978
 1585TIP3    H126246   1.746   2.635  14.657  0.4438 -0.6632 -0.0718
 1585TIP3    H226247   1.633   2.587  14.568  1.3719 -1.7455 -0.7031
 1586TIP3   OH226248   1.718   1.887  15.843 -0.0172 -0.0567 -0.2903
 1586TIP3    H126249   1.769   1.921  15.916 -0.0488  0.9776 -0.7407
 1586TIP3    H226250   1.778   1.829  15.797  0.9122  1.4567 -1.0489
 1587TIP3   OH226251   1.647   4.639  16.222  0.0855  0.1865  0.0844
 1587TIP3    H126252   1.638   4.711  16.284  1.6198 -0.1845  0.7889
 1587TIP3    H226253   1.564   4.637  16.175 -0.4396  1.6220  0.8923
 1588TIP3   OH226254   0.010   4.156  16.925  0.0903 -0.5607  0.2613
 1588TIP3    H126255   0.056   4.232  16.960 -0.2676 -0.6471  0.9365
 1588TIP3    H226256  -0.072   4.153  16.975  0.2200 -1.5431  0.4355
 1589TIP3   OH226257   1.256   0.696  11.057  0.5599 -0.6406 -0.2198
 1589TIP3    H126258   1.271   0.692  11.152  0.9299  0.5488 -0.2173
 1589TIP3    H226259   1.162   0.682  11.047  0.5583 -1.0339  0.2982
 1590TIP3   OH226260   2.823   0.168  16.087  0.3327 -0.1277  0.3569
 1590TIP3    H126261   2.879   0.167  16.164  1.9366  1.0951 -0.7235
 1590TIP3    H226262   2.824   0.260  16.058 -1.0602 -0.3645 -0.5512
 1591TIP3   OH226263   4.784   4.366  13.742  0.2731 -0.1115 -0.6143
 1591TIP3    H126264   4.818   4.454  13.754 -1.7389  0.4917  1.3605
 1591TIP3    H226265   4.859   4.314  13.714  2.2628  1.5466  1.3678
 1592TIP3   OH226266   0.671   2.003  12.610 -0.1124  0.7040  0.4605
 1592TIP3    H126267   0.581   2.017  12.578 -0.0776  1.4806  0.6836
 1592TIP3    H226268   0.668   2.029  12.702 -0.0836 -1.0243  0.9734
 1593TIP3   OH226269   5.308   3.054  10.692 -0.2405 -0.2220  0.2749
 1593TIP3    H126270   5.336   2.963  10.685 -0.0789 -0.1883  0.4747
 1593TIP3    H226271   5.382   3.104  10.657 -0.5506 -0.1939 -0.3576
 1594TIP3   OH226272   5.917   0.328  15.707 -0.0729 -0.4135 -0.0540
 1594TIP3    H126273   5.982   0.287  15.650  0.2055  0.6182 -0.4902
 1594TIP3    H226274   5.839   0.338  15.652 -0.4936 -1.2879  0.3569
 1595TIP3   OH226275   6.712   1.646  16.374 -0.3726  0.2035  0.2847
 1595TIP3    H126276   6.682   1.720  16.321 -1.0026 -0.7422 -0.7291
 1595TIP3    H226277   6.633   1.615  16.418 -0.2569 -0.2973  0.1418
 1596TIP3   OH226278   6.688   1.888  14.267  0.2572  0.0754  0.3048
 1596TIP3    H126279   6.719   1.951  14.333  0.7045  0.0128  0.1539
 1596TIP3    H226280   6.762   1.877  14.208  0.0471 -0.3090  0.1150
 1597TIP3   OH226281   0.592   3.010   3.460 -0.0380  0.3090  0.3683
 1597TIP3    H126282   0.660   3.070   3.429  0.0816  0.2463  0.5082
 1597TIP3    H226283   0.622   2.923   3.435 -0.8108  0.3874 -0.9604
 1598TIP3   OH226284   6.603   3.936  12.256  0.7101 -0.4452 -0.2587
 1598TIP3    H126285   6.555   4.018  12.268  1.8729  0.2860 -0.4182
 1598TIP3    H226286   6.570   3.879  12.326 -0.7834 -0.1897 -0.7091
 1599TIP3   OH226287   3.490   3.394   4.909 -0.0693  0.1470 -0.1265
 1599TIP3    H126288   3.488   3.485   4.937 -1.7371  0.4390 -1.0852
 1599TIP3    H226289   3.519   3.396   4.818 -1.1063 -0.1709 -0.4734
 1600TIP3   OH226290   2.304   3.112  14.283  0.0967  0.0208 -0.2015
 1600TIP3    H126291   2.359   3.127  14.206  0.9737  1.5906  0.6755
 1600TIP3    H226292   2.276   3.021  14.275  0.6569 -0.0343 -2.0525
 1601TIP3   OH226293   5.581   2.219  15.170 -0.0945  0.0591 -0.0340
 1601TIP3    H126294   5.520   2.288  15.144 -0.0672  0.9131  2.0392
 1601TIP3    H226295   5.600   2.236  15.262  1.4416 -1.5865  0.0122
 1602TIP3   OH226296   5.894   1.463  15.744  0.3268 -0.2401 -0.2694
 1602TIP3    H126297   5.910   1.498  15.656 -0.3542 -0.7829 -0.6188
 1602TIP3    H226298   5.834   1.525  15.784 -0.0198 -0.4272 -0.4941
 1603TIP3   OH226299   3.383   5.146   6.044 -0.1606  0.0420 -0.3754
 1603TIP3    H126300   3.308   5.174   6.098 -1.5104 -0.3259 -1.9865
 1603TIP3    H226301   3.460   5.175   6.094 -1.3297 -0.1395  1.6625
 1604TIP3   OH226302   1.585   5.462   1.731 -0.4302  0.4097 -0.2712
 1604TIP3    H126303   1.601   5.551   1.698  0.3459  0.1684 -0.5690
 1604TIP3    H226304   1.640   5.406   1.676 -2.4253 -0.5137 -1.4510
 1605TIP3   OH226305   3.014   1.722   2.036  0.1609 -0.1093  0.8019
 1605TIP3    H126306   2.949   1.652   2.045 -0.4107  0.1616 -0.9267
 1605TIP3    H226307   2.963   1.803   2.040  0.2817  0.0993 -0.9677
 1606TIP3   OH226308   1.382   1.726   2.646 -0.5271  0.2449 -0.1748
 1606TIP3    H126309   1.390   1.665   2.720  0.6947 -0.2235 -0.6606
 1606TIP3    H226310   1.414   1.810   2.681  1.5690 -0.3391 -0.5612
 1607TIP3   OH226311   5.393   0.274  15.857  0.7988 -0.2585  0.0133
 1607TIP3    H126312   5.324   0.329  15.819  1.1803 -1.2120 -2.1988
 1607TIP3    H226313   5.458   0.337  15.889  0.7065  0.6593 -1.4671
 1608TIP3   OH226314   6.579   6.615   0.528 -0.2877 -0.3767  0.5335
 1608TIP3    H126315   6.651   6.669   0.497  0.1504 -1.4146 -0.3253
 1608TIP3    H226316   6.501   6.670   0.521 -0.1563 -0.4409 -2.1198
 1609TIP3   OH226317   4.253   2.064   0.785  0.4642  0.4055  0.0547
 1609TIP3    H126318   4.183   1.998   0.790  1.4462 -0.6446  0.2908
 1609TIP3    H226319   4.213   2.143   0.823 -1.1388  0.3487 -1.3627
 1610TIP3   OH226320   3.670   6.742  12.826 -0.2645  0.1759 -0.7128
 1610TIP3    H126321   3.742   6.768  12.883 -2.2423 -0.6557  2.4105
 1610TIP3    H226322   3.638   6.824  12.788  0.0182  1.0385  0.8288
 1611TIP3   OH226323   5.004   5.443  16.357 -0.2546  0.1107  0.0607
 1611TIP3    H126324   5.056   5.391  16.295 -0.9050  0.1208 -0.5018
 1611TIP3    H226325   5.057   5.446  16.436  1.1154  1.0123 -0.8321
 1612TIP3   OH226326   3.317   5.158   4.894 -0.1965  0.1449 -0.2459
 1612TIP3    H126327   3.307   5.177   4.987  0.0989  1.4427 -0.4605
 1612TIP3    H226328   3.232   5.123   4.867 -1.0171  1.8432  0.0429
 1613TIP3   OH226329   0.620   2.016  11.365 -0.0083  0.4811  0.1806
 1613TIP3    H126330   0.621   2.004  11.460  0.6091  0.6911  0.2096
 1613TIP3    H226331   0.564   1.947  11.332 -0.3310  0.4850  0.7099
 1614TIP3   OH226332   2.185   4.102  14.863 -0.3767  0.3782  0.0939
 1614TIP3    H126333   2.153   4.145  14.784  0.4098  1.1643  0.1956
 1614TIP3    H226334   2.263   4.055  14.835 -1.7108 -1.7881 -0.2210
 1615TIP3   OH226335   1.586   1.459  16.307 -0.1942 -0.3686 -0.6091
 1615TIP3    H126336   1.547   1.432  16.224  0.8926  0.4260 -1.3990
 1615TIP3    H226337   1.588   1.555  16.303 -2.8344 -0.1016  1.6106
 1616TIP3   OH226338   3.595   6.364   6.611  0.1254  0.2317  0.2033
 1616TIP3    H126339   3.688   6.374   6.592  0.7519 -2.2795  1.4919
 1616TIP3    H226340   3.589   6.278   6.654 -2.7558  0.4293  0.3540
 1617TIP3   OH226341   1.677   6.346   5.356  0.6251 -0.0855  0.0931
 1617TIP3    H126342   1.600   6.396   5.329 -0.0627 -0.6811  0.8932
 1617TIP3    H226343   1.730   6.339   5.277  0.4696  1.4042 -0.1835
 1618TIP3   OH226344   1.465   5.105   3.885  0.0379  0.2895  0.4751
 1618TIP3    H126345   1.531   5.052   3.839  1.3318  0.3856  2.1397
 1618TIP3    H226346   1.407   5.135   3.815  2.9616  1.9742 -1.4618
 1619TIP3   OH226347   0.365   0.621  10.911 -0.2401 -0.1320 -0.2489
 1619TIP3    H126348   0.402   0.704  10.880 -0.9193  0.9874  1.7787
 1619TIP3    H226349   0.278   0.617  10.871 -0.5451  0.5824  0.3161
 1620TIP3   OH226350   1.670   1.891   2.549  0.1270  0.5706  0.0567
 1620TIP3    H126351   1.759   1.920   2.568  1.3968 -2.2976 -1.0237
 1620TIP3    H226352   1.666   1.887   2.453 -1.3360  1.0787  0.0749
 1621TIP3   OH226353   4.978   2.576   2.507 -0.4861 -0.3233 -0.3281
 1621TIP3    H126354   4.983   2.659   2.460 -1.2720  0.0523  0.2373
 1621TIP3    H226355   4.941   2.598   2.592  0.2579 -1.1052  0.2154
 1622TIP3   OH226356   3.428   6.367   2.260  0.3622 -0.1997 -0.7608
 1622TIP3    H126357   3.484   6.320   2.323  0.3180 -0.0548 -0.6125
 1622TIP3    H226358   3.411   6.303   2.191 -2.7243 -1.6982  1.1784
 1623TIP3   OH226359   3.305   4.307  10.759 -0.1408 -0.6154 -0.1238
 1623TIP3    H126360   3.349   4.340  10.680  0.2466  0.9575  0.7136
 1623TIP3    H226361   3.223   4.356  10.763  0.9645  1.2958  1.7723
 1624TIP3   OH226362   4.968   6.822   5.446  0.2087 -0.5062 -0.0735
 1624TIP3    H126363   4.921   6.816   5.529  0.5766 -0.1362  0.1684
 1624TIP3    H226364   4.946   6.742   5.400  0.2542 -0.8663  0.5188
 1625TIP3   OH226365   2.348   4.483  14.202 -0.3398  0.0062 -0.3549
 1625TIP3    H126366   2.328   4.435  14.122  1.1078  0.4479 -1.0299
 1625TIP3    H226367   2.437   4.456  14.224 -1.0826 -0.9164  1.7428
 1626TIP3   OH226368   3.125   5.910   6.096  0.5402 -0.4255  0.2258
 1626TIP3    H126369   3.185   5.840   6.071  0.0730 -0.4119 -1.0379
 1626TIP3    H226370   3.052   5.902   6.034 -0.7508 -0.4041  1.6609
 1627TIP3   OH226371   1.989   4.922   4.054  0.2151 -0.0885  0.3544
 1627TIP3    H126372   2.000   4.845   4.110  0.7469  0.2048  0.6584
 1627TIP3    H226373   1.912   4.901   4.001 -0.0817 -0.5303  0.9363
 1628TIP3   OH226374   4.744   5.383  13.895  0.3431  0.5713 -0.3400
 1628TIP3    H126375   4.717   5.344  13.978  3.4637 -0.2002  0.4433
 1628TIP3    H226376   4.740   5.477  13.909 -0.1278  0.4611  0.3080
 1629TIP3   OH226377   0.422   4.999  14.404  0.2144 -0.0082 -0.5143
 1629TIP3    H126378   0.370   4.959  14.334  0.4633 -0.9668 -0.1582
 1629TIP3    H226379   0.429   4.931  14.471  0.9198  0.5241 -0.0370
 1630TIP3   OH226380   3.004   5.801   3.804  0.0683 -0.2177  0.0935
 1630TIP3    H126381   3.029   5.817   3.895  1.2683  2.4383 -0.6210
 1630TIP3    H226382   2.909   5.810   3.803 -0.3355 -3.1123  1.5077
 1631TIP3   OH226383   5.168   5.878  15.975  0.8666  0.4166  0.0696
 1631TIP3    H126384   5.144   5.791  15.944  0.5500  0.2215  0.8391
 1631TIP3    H226385   5.233   5.909  15.912  1.7399 -0.7860  0.3414
 1632TIP3   OH226386   6.494   3.656  13.714  0.0183 -0.6448  0.4617
 1632TIP3    H126387   6.449   3.574  13.736  1.4491 -1.1994  1.5064
 1632TIP3    H226388   6.510   3.698  13.798  0.3124  0.1609  0.0183
 1633TIP3   OH226389   5.398   1.894   1.657 -0.5276  0.5868 -0.2262
 1633TIP3    H126390   5.465   1.929   1.716 -1.6501  0.6501  1.0597
 1633TIP3    H226391   5.403   1.799   1.670 -0.7871  0.6023 -0.0096
 1634TIP3   OH226392   4.223   5.569   4.424 -0.6370  0.5899  0.0105
 1634TIP3    H126393   4.274   5.488   4.416  0.3565  0.9334  2.1804
 1634TIP3    H226394   4.134   5.542   4.404 -0.1756 -0.8400 -0.2974
 1635TIP3   OH226395   4.709   0.682  15.416  0.0796  0.0924 -0.1292
 1635TIP3    H126396   4.657   0.755  15.448  0.2412  1.1296 -2.0946
 1635TIP3    H226397   4.697   0.683  15.321  2.8534 -0.2432 -0.5756
 1636TIP3   OH226398   4.245   1.978  15.274 -0.4418 -0.4817 -0.6653
 1636TIP3    H126399   4.208   1.891  15.290  0.2341 -0.7731 -0.6222
 1636TIP3    H226400   4.248   2.019  15.360  0.6977 -1.0254 -0.4258
 1637TIP3   OH226401   4.539   0.462  11.813 -0.0696 -0.1970 -0.0930
 1637TIP3    H126402   4.624   0.489  11.781 -0.6461  3.1095  0.8209
 1637TIP3    H226403   4.527   0.509  11.895 -1.0960 -3.8288  2.1047
 1638TIP3   OH226404   2.387   6.317  13.043 -1.0573 -0.3478 -0.3849
 1638TIP3    H126405   2.366   6.270  12.962 -0.0614 -1.7125  0.1096
 1638TIP3    H226406   2.479   6.343  13.032 -1.5637  1.4725 -0.6093
 1639TIP3   OH226407   0.664   1.335  11.262 -0.2205  0.7907  0.0103
 1639TIP3    H126408   0.746   1.373  11.291 -0.8546  2.1678  0.0765
 1639TIP3    H226409   0.660   1.249  11.306  0.8360  1.0103  0.5513
 1640TIP3   OH226410   2.422   1.813  14.089 -0.5095  0.3596 -0.6473
 1640TIP3    H126411   2.514   1.833  14.069 -0.2136  0.1165  0.4316
 1640TIP3    H226412   2.372   1.877  14.038  0.2957  1.2545 -0.3425
 1641TIP3   OH226413   3.450   1.641  14.239 -0.1307  0.0740  0.7184
 1641TIP3    H126414   3.534   1.626  14.282  0.1338 -1.4870 -0.2744
 1641TIP3    H226415   3.392   1.575  14.277 -0.6204  0.4402  0.6142
 1642TIP3   OH226416   4.294   1.574   3.747 -0.7572  0.0637 -0.4176
 1642TIP3    H126417   4.372   1.621   3.776  0.4148 -2.3279  0.5766
 1642TIP3    H226418   4.297   1.581   3.651  0.8310 -0.1272 -0.4183
 1643TIP3   OH226419   4.473   3.395  16.761 -0.5052 -0.3610  0.5174
 1643TIP3    H126420   4.452   3.439  16.843  0.9849  0.0991  0.6779
 1643TIP3    H226421   4.452   3.460  16.693 -1.9447 -0.8188  0.4822
 1644TIP3   OH226422   0.670   5.889   4.724 -0.2208  0.1698  0.2481
 1644TIP3    H126423   0.686   5.832   4.649  1.4652  1.8450 -0.7626
 1644TIP3    H226424   0.604   5.952   4.694  0.2125  0.6391  0.2554
 1645TIP3   OH226425   0.320   0.669   0.269 -0.4101 -0.2142 -0.4080
 1645TIP3    H126426   0.406   0.628   0.283 -0.8623 -0.5248  1.7611
 1645TIP3    H226427   0.275   0.610   0.209  0.4069 -0.7432 -0.5276
 1646TIP3   OH226428   1.783   4.442  13.349  0.4506  0.2975 -0.2463
 1646TIP3    H126429   1.877   4.429  13.341  0.8638  2.5878  0.2246
 1646TIP3    H226430   1.764   4.516  13.292 -0.9933  0.1311 -0.0154
 1647TIP3   OH226431   3.042   1.532   4.093 -0.5050  0.5319  0.5361
 1647TIP3    H126432   3.109   1.463   4.098 -0.0351  0.8960 -0.4679
 1647TIP3    H226433   2.976   1.498   4.033  0.7434  1.7419 -1.6344
 1648TIP3   OH226434   0.986   6.681  14.468 -0.0813  0.6706 -0.2389
 1648TIP3    H126435   0.972   6.773  14.489 -0.6258  0.3068  1.0902
 1648TIP3    H226436   0.914   6.658  14.409 -1.5770  0.4112  1.6224
 1649TIP3   OH226437   4.335   4.269   1.855 -0.3363 -0.2758 -0.3192
 1649TIP3    H126438   4.384   4.304   1.929 -0.3374  2.4553 -1.4904
 1649TIP3    H226439   4.402   4.241   1.792 -0.2681 -4.3316  1.2236
 1650TIP3   OH226440   3.495   5.382  15.168  0.0776  0.3539 -0.0865
 1650TIP3    H126441   3.552   5.396  15.244  0.0787 -0.7764  0.1415
 1650TIP3    H226442   3.556   5.361  15.096 -0.0231 -2.1661  0.4492
 1651TIP3   OH226443   6.159   2.584   2.805 -0.0279  0.0976 -0.1092
 1651TIP3    H126444   6.176   2.600   2.897  0.0650  1.1757 -0.3046
 1651TIP3    H226445   6.188   2.494   2.791  0.3066  0.0483  0.8225
 1652TIP3   OH226446   5.939   1.037  11.386 -0.5746  0.2444 -0.9726
 1652TIP3    H126447   5.972   0.951  11.364 -0.6188 -0.4958  1.5299
 1652TIP3    H226448   5.892   1.025  11.469 -0.2652  2.7234 -0.3344
 1653TIP3   OH226449   0.907   0.647   4.006 -0.3871 -0.1622  0.6649
 1653TIP3    H126450   0.960   0.687   4.076  1.3660  0.9142 -1.1828
 1653TIP3    H226451   0.892   0.717   3.944 -0.1512 -1.5570 -1.0380
 1654TIP3   OH226452   3.752   1.301  14.031  0.9251 -0.2047  0.3263
 1654TIP3    H126453   3.722   1.347  14.109 -3.0928 -3.4029  1.0583
 1654TIP3    H226454   3.769   1.369  13.966 -0.2629  2.3661  2.5623
 1655TIP3   OH226455   6.047   1.540  12.055  0.0714 -0.5166 -0.5638
 1655TIP3    H126456   6.060   1.524  11.961  2.2327 -0.5747 -0.3068
 1655TIP3    H226457   6.024   1.633  12.060  3.5860  0.5141 -0.9897
 1656TIP3   OH226458   0.813   0.210  16.529 -0.0076 -0.1635 -0.0299
 1656TIP3    H126459   0.890   0.153  16.535 -0.0423 -0.1208  0.8460
 1656TIP3    H226460   0.745   0.154  16.491  0.0810 -0.5813  0.4253
 1657TIP3   OH226461   1.052   2.932  13.384  0.9996 -0.3357 -0.1220
 1657TIP3    H126462   0.969   2.947  13.428  1.7685 -0.4439  1.4525
 1657TIP3    H226463   1.029   2.885  13.304 -0.4181 -0.6764  0.4553
 1658TIP3   OH226464   3.389   2.512   0.893  0.2170  0.3238  0.3062
 1658TIP3    H126465   3.453   2.534   0.824 -2.7953  0.5662 -2.7079
 1658TIP3    H226466   3.397   2.584   0.956  2.1411  0.8899 -0.4937
 1659TIP3   OH226467   1.868   1.625   6.153 -0.6641 -0.0183  0.4601
 1659TIP3    H126468   1.907   1.598   6.236 -2.7486 -1.6378  0.9897
 1659TIP3    H226469   1.791   1.569   6.144 -0.8342  0.5485 -2.2799
 1660TIP3   OH226470   4.139   3.740  14.618  0.4831 -0.7553 -0.0564
 1660TIP3    H126471   4.222   3.712  14.655  0.7506  0.1741  0.0781
 1660TIP3    H226472   4.099   3.793  14.687  1.0648  1.1374 -1.1098
 1661TIP3   OH226473   4.494   2.190   0.928  0.6290 -0.2271 -0.0770
 1661TIP3    H126474   4.411   2.146   0.909  0.5757 -0.4533  0.6531
 1661TIP3    H226475   4.546   2.179   0.848  0.3479 -0.9997 -0.1605
 1662TIP3   OH226476   2.372   1.336   6.532 -0.3557  0.2950  0.6231
 1662TIP3    H126477   2.391   1.276   6.604 -0.1377  1.4301  1.5315
 1662TIP3    H226478   2.276   1.341   6.530 -0.3803 -0.2511  0.4000
 1663TIP3   OH226479   0.168   0.710  16.678  0.4071  0.4579 -0.0901
 1663TIP3    H126480   0.109   0.718  16.753  1.8599  1.9583  0.9488
 1663TIP3    H226481   0.177   0.615  16.666 -1.0701  0.1882  0.6069
 1664TIP3   OH226482   0.514   3.320  14.631 -0.4902 -0.0161  0.2796
 1664TIP3    H126483   0.541   3.408  14.656 -0.3108 -0.2896  1.0889
 1664TIP3    H226484   0.572   3.262  14.680 -1.3328 -0.5937  0.6204
 1665TIP3   OH226485   5.440   2.055   3.900  0.2102 -0.2834 -0.4837
 1665TIP3    H126486   5.492   2.091   3.829  0.7014  1.4691  0.7009
 1665TIP3    H226487   5.457   2.113   3.974  0.9129 -2.8819  1.5322
 1666TIP3   OH226488   0.032   0.381   6.322 -0.2989 -0.0994 -0.2577
 1666TIP3    H126489  -0.025   0.304   6.314 -1.5395  0.6615  0.7265
 1666TIP3    H226490   0.002   0.440   6.253  0.1163 -0.1759 -0.5050
 1667TIP3   OH226491   0.185   1.238   0.273  0.4736  0.4008  0.2439
 1667TIP3    H126492   0.166   1.288   0.353 -0.5596 -0.9351  0.8801
 1667TIP3    H226493   0.127   1.276   0.207  0.6010  0.8460  0.3798
 1668TIP3   OH226494   0.526   2.382  14.385 -0.0553  0.3210  0.1373
 1668TIP3    H126495   0.566   2.469  14.388 -1.2203  0.8439  1.4135
 1668TIP3    H226496   0.434   2.398  14.362 -0.7927 -0.3364  2.3515
 1669TIP3   OH226497   2.740   5.085   3.248 -0.2553  0.8933 -0.5257
 1669TIP3    H126498   2.662   5.107   3.197 -0.0458 -0.8777 -1.6991
 1669TIP3    H226499   2.756   5.162   3.303 -0.4108  2.9729 -3.2224
 1670TIP3   OH226500   4.985   5.462  14.896  0.6654 -0.5495 -0.3046
 1670TIP3    H126501   4.976   5.387  14.838 -0.4548  0.0835 -0.9847
 1670TIP3    H226502   5.004   5.536  14.838 -1.4918  0.2926 -0.0419
 1671TIP3   OH226503   6.561   1.223  15.364 -0.4366  0.1789  0.2998
 1671TIP3    H126504   6.482   1.182  15.397 -0.3373 -0.2470  0.0139
 1671TIP3    H226505   6.616   1.238  15.441 -1.9691  3.1608  0.9702
 1672TIP3   OH226506   4.614   2.610   4.324 -0.3431 -0.6002 -0.0310
 1672TIP3    H126507   4.684   2.563   4.369 -1.6035 -0.2992  2.4460
 1672TIP3    H226508   4.536   2.595   4.378 -1.2782  2.4515 -0.3125
 1673TIP3   OH226509   6.105   3.378   5.065  0.2822  0.9959 -0.1112
 1673TIP3    H126510   6.168   3.416   5.127  1.5171  0.0458 -0.7268
 1673TIP3    H226511   6.159   3.353   4.990 -0.9771  0.8675 -1.0002
 1674TIP3   OH226512   6.296   3.363   3.646 -0.4481  0.3310  0.0208
 1674TIP3    H126513   6.239   3.372   3.569 -0.8473 -0.0314  0.2743
 1674TIP3    H226514   6.308   3.453   3.676  2.0123  0.8163 -2.1081
 1675TIP3   OH226515   3.664   5.775   2.583  0.5214 -0.6687  0.4909
 1675TIP3    H126516   3.571   5.780   2.607  0.1102 -0.2628 -1.0445
 1675TIP3    H226517   3.711   5.788   2.665 -0.7780  0.5819  1.0785
 1676TIP3   OH226518   3.201   2.269   3.285  0.4182 -0.0534  0.2593
 1676TIP3    H126519   3.287   2.236   3.309 -0.8513 -2.5327  1.8492
 1676TIP3    H226520   3.192   2.249   3.192  1.8503  1.1398 -0.1837
 1677TIP3   OH226521   4.093   2.485   3.217  0.1423 -0.2256  0.8916
 1677TIP3    H126522   4.039   2.412   3.248 -0.4296 -0.1454  0.1142
 1677TIP3    H226523   4.128   2.455   3.133  2.7588 -0.9736  2.1501
 1678TIP3   OH226524   1.008   5.144   2.245 -0.0360 -0.4009  0.2690
 1678TIP3    H126525   0.931   5.199   2.257 -1.3278 -1.9855 -0.2736
 1678TIP3    H226526   1.023   5.145   2.150 -0.1072 -0.9728  0.2438
 1679TIP3   OH226527   4.757   6.252  14.307  0.3851  0.3403  0.0816
 1679TIP3    H126528   4.698   6.284  14.375  1.5820  1.6512  0.5543
 1679TIP3    H226529   4.706   6.260  14.226 -0.3414  0.7112  0.5644
 1680TIP3   OH226530   0.886   5.564  14.423 -0.1419  0.1034 -0.0944
 1680TIP3    H126531   0.800   5.552  14.383  0.2467  0.5263 -1.0716
 1680TIP3    H226532   0.933   5.483  14.405  0.8714  1.1587 -2.6685
 1681TIP3   OH226533   5.970   2.109  12.385 -0.4884  0.2364 -0.2726
 1681TIP3    H126534   5.944   2.040  12.446 -2.3342  0.0849 -1.1608
 1681TIP3    H226535   6.066   2.103  12.382 -0.5447 -1.7819  0.2693
 1682TIP3   OH226536   3.957   3.597   3.079 -0.5997 -0.4480 -0.0571
 1682TIP3    H126537   3.998   3.591   2.993 -1.4808 -0.1848 -0.5078
 1682TIP3    H226538   4.016   3.550   3.137  2.3963  3.1235  0.1316
 1683TIP3   OH226539   2.555   5.540   4.710 -0.0214  0.2653 -0.0125
 1683TIP3    H126540   2.540   5.446   4.710 -0.2335  0.2999 -0.0972
 1683TIP3    H226541   2.536   5.567   4.800 -2.2873  0.5969 -0.5229
 1684TIP3   OH226542   2.607   0.912   1.313 -0.8315 -0.6731  0.0003
 1684TIP3    H126543   2.564   0.998   1.314  1.7567  0.7331  0.5384
 1684TIP3    H226544   2.609   0.886   1.405 -2.2938 -1.7451 -0.2372
 1685TIP3   OH226545   4.800   4.544  10.938 -0.1856  0.0437 -0.0154
 1685TIP3    H126546   4.770   4.543  11.029  2.6592 -1.3700  0.9968
 1685TIP3    H226547   4.750   4.474  10.895 -1.4568  0.6468  0.4382
 1686TIP3   OH226548   6.601   0.771   4.912 -0.1139 -0.2465 -0.0473
 1686TIP3    H126549   6.672   0.710   4.891 -0.3677 -1.1243  1.4612
 1686TIP3    H226550   6.639   0.858   4.900  0.5865 -0.6955 -1.2173
 1687TIP3   OH226551   6.779   0.446  17.067  0.2253  0.2135  0.0547
 1687TIP3    H126552   6.721   0.455  17.143 -0.3529 -0.2579 -0.3279
 1687TIP3    H226553   6.835   0.371  17.089 -1.2911 -1.2213 -0.8384
 1688TIP3   OH226554   1.806   4.037   3.487 -0.2743 -0.0138 -0.4125
 1688TIP3    H126555   1.867   3.975   3.446 -0.4969  0.0088 -0.7859
 1688TIP3    H226556   1.748   3.982   3.539 -0.4043 -0.1129 -0.6586
 1689TIP3   OH226557   2.887   1.640   1.778 -0.0557 -0.5033 -0.3035
 1689TIP3    H126558   2.876   1.660   1.685 -1.5188  2.0163  0.3445
 1689TIP3    H226559   2.982   1.632   1.789  0.1204 -1.4529 -2.0682
 1690TIP3   OH226560   2.434   2.927   4.566  0.1325  0.2715 -0.4357
 1690TIP3    H126561   2.474   2.918   4.480 -0.8788 -0.0659 -0.8884
 1690TIP3    H226562   2.380   3.005   4.559 -1.0372 -0.5152 -0.5748
 1691TIP3   OH226563   5.142   0.756   2.719 -0.0964 -0.1871 -0.1469
 1691TIP3    H126564   5.154   0.712   2.635  1.6596  0.9483 -0.5483
 1691TIP3    H226565   5.091   0.695   2.771 -1.5037 -0.7994 -2.1215
 1692TIP3   OH226566   4.380   0.680  10.859 -0.6435  0.0084 -0.4904
 1692TIP3    H126567   4.416   0.749  10.804  0.3535 -0.2741 -0.2073
 1692TIP3    H226568   4.378   0.603  10.801  0.0565 -0.1948 -0.2602
 1693TIP3   OH226569   2.529   3.704  12.951  0.3528 -0.1867  0.5221
 1693TIP3    H126570   2.481   3.634  12.995  0.1311  0.3593  1.1759
 1693TIP3    H226571   2.463   3.770  12.931  0.5732 -0.1181 -0.0024
 1694TIP3   OH226572   2.125   2.329   0.394  0.0797  0.0349  0.9137
 1694TIP3    H126573   2.161   2.418   0.390  0.6277 -0.1525  1.5415
 1694TIP3    H226574   2.201   2.273   0.407 -0.2714 -0.5325  0.5713
 1695TIP3   OH226575   1.508   0.253  12.261  0.5600 -0.4206  0.2977
 1695TIP3    H126576   1.568   0.299  12.319  0.8953 -0.3429 -0.1068
 1695TIP3    H226577   1.479   0.319  12.198 -2.9073  0.6044  2.6580
 1696TIP3   OH226578   6.021   0.315  12.518  0.2059 -0.1283 -0.3337
 1696TIP3    H126579   6.028   0.223  12.545 -0.2879 -0.7495 -2.1171
 1696TIP3    H226580   6.101   0.331  12.469  0.0374  0.2069 -0.5016
 1697TIP3   OH226581   3.113   4.702  15.087 -0.2728  0.1200  0.0884
 1697TIP3    H126582   3.069   4.776  15.129  0.3423  0.5734 -0.0594
 1697TIP3    H226583   3.135   4.734  14.999  2.4425  0.7314  0.9215
 1698TIP3   OH226584   5.358   0.489   0.733  0.1447 -0.1486 -1.3184
 1698TIP3    H126585   5.348   0.556   0.801  2.5367  0.7228 -1.7408
 1698TIP3    H226586   5.274   0.489   0.688 -0.0429  2.4181 -1.1326
 1699TIP3   OH226587   1.156   1.263  15.860  0.1404 -0.2369 -0.1527
 1699TIP3    H126588   1.227   1.327  15.872 -0.4627  0.3797  0.2071
 1699TIP3    H226589   1.151   1.218  15.944 -2.5810  2.5387  1.3934
 1700TIP3   OH226590   1.538   3.452  12.647 -0.4271 -0.5008  0.0473
 1700TIP3    H126591   1.627   3.449  12.612 -0.8095 -1.4729 -0.9090
 1700TIP3    H226592   1.492   3.513  12.590 -0.1158  0.9156  1.2504
 1701TIP3   OH226593   0.398   3.451  13.776  0.1746  0.5346  0.3204
 1701TIP3    H126594   0.357   3.460  13.690 -0.3238  1.0554  0.6055
 1701TIP3    H226595   0.484   3.490  13.765  0.0767  0.6910  0.0804
 1702TIP3   OH226596   2.411   1.718   0.234  0.1937  0.2580  0.5590
 1702TIP3    H126597   2.430   1.809   0.257 -0.4498  0.7928 -0.8977
 1702TIP3    H226598   2.447   1.667   0.306  0.8064  1.6484  1.2758
 1703TIP3   OH226599   4.391   3.929   1.748 -0.0310  0.4323 -0.4015
 1703TIP3    H126600   4.448   3.989   1.794 -0.4325  0.3656  0.1903
 1703TIP3    H226601   4.443   3.849   1.737 -0.6250 -0.3117  1.8227
 1704TIP3   OH226602   4.758   1.668   4.952  0.0935  0.2561  0.1793
 1704TIP3    H126603   4.678   1.618   4.938  0.1159  0.4970 -0.8563
 1704TIP3    H226604   4.780   1.704   4.866  1.4041  0.0630  0.4079
 1705TIP3   OH226605   3.186   4.031   1.262 -0.3530  1.0586  0.5330
 1705TIP3    H126606   3.234   3.948   1.260  0.9403  1.7837 -0.7120
 1705TIP3    H226607   3.172   4.048   1.355  1.5901  0.6524  0.9523
 1706TIP3   OH226608   4.601   1.174   5.535 -0.0561 -0.4248 -0.2079
 1706TIP3    H126609   4.645   1.162   5.451 -0.0135  1.1494 -0.4252
 1706TIP3    H226610   4.586   1.268   5.542 -0.3113 -0.5565  1.4319
 1707TIP3   OH226611   0.730   4.997   3.236 -0.1044 -0.1684  0.2640
 1707TIP3    H126612   0.822   5.023   3.246 -0.4355  0.7447  1.0113
 1707TIP3    H226613   0.731   4.902   3.245  0.8156 -0.2071 -0.1277
 1708TIP3   OH226614   3.802   5.137  15.746  0.0638  0.6400  0.0941
 1708TIP3    H126615   3.713   5.104  15.749 -0.4202  1.9783  2.1168
 1708TIP3    H226616   3.843   5.102  15.825  0.5426  2.0686  0.5095
 1709TIP3   OH226617   1.545   2.492   3.721  0.7075  0.0163  0.1813
 1709TIP3    H126618   1.573   2.417   3.668  0.0995  0.2900 -0.5551
 1709TIP3    H226619   1.458   2.467   3.753 -0.0190  0.8632 -1.0488
 1710TIP3   OH226620   6.318   2.544  12.655  0.4065 -0.1403  0.8408
 1710TIP3    H126621   6.240   2.555  12.601 -0.1032 -1.5005  1.2541
 1710TIP3    H226622   6.350   2.633  12.670 -0.4908  0.3693 -0.1593
 1711TIP3   OH226623   6.807   1.060   5.376  0.5498  0.0339  0.0399
 1711TIP3    H126624   6.898   1.082   5.397  0.3415  1.6514 -0.5875
 1711TIP3    H226625   6.812   0.976   5.330  1.6934 -0.0582  0.3134
 1712TIP3   OH226626   2.375   0.693  16.172  0.0351 -0.4080 -0.4007
 1712TIP3    H126627   2.428   0.754  16.224 -0.2050 -0.1555 -0.4510
 1712TIP3    H226628   2.292   0.686  16.219  1.0938 -3.1222  1.3428
 1713TIP3   OH226629   0.682   4.441   3.279 -0.5321  0.5787 -0.0280
 1713TIP3    H126630   0.598   4.418   3.320 -0.9655  2.6497  0.3587
 1713TIP3    H226631   0.658   4.469   3.191 -0.2968  1.3960  0.1592
 1714TIP3   OH226632   4.501   3.719   2.230  0.6326  0.4046  0.1510
 1714TIP3    H126633   4.470   3.743   2.143  1.8025 -0.7788 -0.6299
 1714TIP3    H226634   4.595   3.707   2.220  0.8973  0.8290  1.7315
 1715TIP3   OH226635   1.495   6.587  12.218  0.0790  0.6820 -0.3297
 1715TIP3    H126636   1.503   6.678  12.189  2.8642  0.5349 -0.3776
 1715TIP3    H226637   1.567   6.577  12.281 -0.7135 -1.2676  0.3099
 1716TIP3   OH226638   2.861   0.723   2.412  0.3416  0.2716 -0.3369
 1716TIP3    H126639   2.933   0.691   2.466  0.7322 -0.6953 -1.3803
 1716TIP3    H226640   2.884   0.695   2.323 -0.1610  2.0155 -1.0569
 1717TIP3   OH226641   6.116   3.466  17.044  0.3311 -0.6716  0.2692
 1717TIP3    H126642   6.136   3.421  16.962 -0.6132  0.7984 -0.8181
 1717TIP3    H226643   6.191   3.447  17.101  1.2258 -1.3377 -1.0752
 1718TIP3   OH226644   6.483   6.619   6.535 -0.7321  0.5101  0.0393
 1718TIP3    H126645   6.549   6.552   6.554 -0.4064  0.4476 -1.2143
 1718TIP3    H226646   6.418   6.574   6.482 -0.5798  1.1374 -0.6990
 1719TIP3   OH226647   1.827   4.862   0.044  0.0849  0.2145 -0.0965
 1719TIP3    H126648   1.911   4.853   0.089  0.5966  0.9812 -0.8737
 1719TIP3    H226649   1.765   4.887   0.112  0.5675  0.0131  0.4184
 1720TIP3   OH226650   5.259   3.988  13.666 -0.5423  0.1983  0.5354
 1720TIP3    H126651   5.325   4.053  13.641 -0.6494  0.8501  1.8398
 1720TIP3    H226652   5.181   4.013  13.617  0.1779 -0.6739 -1.1417
 1721TIP3   OH226653   3.444   1.462   5.472 -0.1378  0.1588  0.1782
 1721TIP3    H126654   3.471   1.418   5.552  0.9526 -0.3407 -0.4499
 1721TIP3    H226655   3.349   1.468   5.479 -0.4551 -3.0232 -0.0659
 1722TIP3   OH226656   4.371   5.209  13.092 -0.1306 -0.0601 -0.8016
 1722TIP3    H126657   4.453   5.253  13.067  0.5686 -1.5175 -1.1617
 1722TIP3    H226658   4.320   5.209  13.011  0.8122 -1.9012 -1.4429
 1723TIP3   OH226659   6.422   6.054  13.760 -0.3950  0.8579 -0.6510
 1723TIP3    H126660   6.434   5.979  13.817 -0.5886 -0.3895 -2.1832
 1723TIP3    H226661   6.331   6.050  13.733 -0.0100  0.6656 -2.0114
 1724TIP3   OH226662   4.538   0.776  14.192  0.1475 -0.1887  0.5661
 1724TIP3    H126663   4.598   0.830  14.243 -0.5569  0.7359  0.4498
 1724TIP3    H226664   4.452   0.817  14.205 -0.5838 -1.8526  1.2351
 1725TIP3   OH226665   3.372   6.763   5.934  0.2623 -0.1823  0.1868
 1725TIP3    H126666   3.425   6.802   5.865  1.2348 -0.2664  0.8651
 1725TIP3    H226667   3.287   6.747   5.893  0.4339  0.9018 -0.6311
 1726TIP3   OH226668   0.962   3.135  12.567  0.1919  0.7857 -0.0596
 1726TIP3    H126669   0.922   3.104  12.486 -2.5256 -2.4353  2.2046
 1726TIP3    H226670   0.889   3.172  12.618  0.7023 -1.5367  2.6229
 1727TIP3   OH226671   5.999   3.291  16.841 -0.4685 -0.0111  0.3255
 1727TIP3    H126672   5.942   3.252  16.775 -0.9118 -2.0373  1.7999
 1727TIP3    H226673   5.978   3.384  16.838 -4.0664 -0.6447  0.8789
 1728TIP3   OH226674   2.753   3.537   6.171 -0.2202  0.1956 -0.3616
 1728TIP3    H126675   2.847   3.517   6.167 -0.1581  0.5148 -0.5262
 1728TIP3    H226676   2.716   3.465   6.222  0.2946  0.7475  0.8290
 1729TIP3   OH226677   4.593   1.412   0.820 -0.3202 -0.5782  0.0737
 1729TIP3    H126678   4.612   1.481   0.883  1.5647 -0.9077 -0.0616
 1729TIP3    H226679   4.661   1.422   0.753 -1.7300 -0.7991 -1.4444
 1730TIP3   OH226680   0.131   3.601   3.004  0.0818  0.6405  0.4029
 1730TIP3    H126681   0.151   3.569   3.091  0.9515 -1.2107 -0.4195
 1730TIP3    H226682   0.155   3.693   3.006  0.3678  0.5575  2.0197
 1731TIP3   OH226683   0.997   4.220  11.921  0.4015 -0.3950  0.0996
 1731TIP3    H126684   1.083   4.241  11.957  0.5990  0.1514 -0.6888
 1731TIP3    H226685   1.005   4.234  11.827 -0.1304 -1.7510 -0.1807
 1732TIP3   OH226686   0.416   3.626  12.404  0.0195  0.1833  0.0066
 1732TIP3    H126687   0.357   3.608  12.330  0.2789 -0.4598 -0.0501
 1732TIP3    H226688   0.498   3.655  12.363 -0.8103  3.0135  0.1047
 1733TIP3   OH226689   2.937   6.238   4.584  0.0027 -0.3078  0.1222
 1733TIP3    H126690   2.856   6.277   4.551  0.8223  1.3617 -0.0201
 1733TIP3    H226691   2.938   6.259   4.677 -0.2335 -1.2578  0.3431
 1734TIP3   OH226692   4.192   2.427   6.044  0.9036  0.5215  0.3391
 1734TIP3    H126693   4.258   2.374   6.089  1.0801 -0.1052 -0.6224
 1734TIP3    H226694   4.115   2.424   6.101  0.8966 -0.8196  0.2769
 1735TIP3   OH226695   4.288   6.559   6.232 -1.0218 -0.2976  0.3335
 1735TIP3    H126696   4.246   6.632   6.277  0.7349  0.5547  0.6635
 1735TIP3    H226697   4.235   6.547   6.153 -3.0529 -0.6180  1.6651
 1736TIP3   OH226698   5.552   1.888   1.910  0.3847  1.2735 -0.0588
 1736TIP3    H126699   5.586   1.800   1.891 -1.0242  0.8435 -0.7564
 1736TIP3    H226700   5.589   1.911   1.995 -0.9817 -0.9654  1.2378
 1737TIP3   OH226701   2.339   4.007  11.115 -0.4232  0.3372  0.8096
 1737TIP3    H126702   2.323   4.059  11.036  0.6692  0.1364  0.4341
 1737TIP3    H226703   2.350   3.917  11.083  1.0457  0.4083  1.0515
 1738TIP3   OH226704   5.722   2.278   5.500  0.5660  0.1169 -0.0336
 1738TIP3    H126705   5.816   2.277   5.519  0.5758  0.5837 -0.0368
 1738TIP3    H226706   5.680   2.276   5.586  0.6112  2.2689  0.0981
 1739TIP3   OH226707   0.661   0.445  16.440 -0.1065  0.6527 -0.0370
 1739TIP3    H126708   0.598   0.454  16.512 -0.0786  0.4219  0.0160
 1739TIP3    H226709   0.720   0.376  16.468  0.1413  0.8331 -0.1106
 1740TIP3   OH226710   4.459   5.877   1.971  0.1459  0.6385 -0.2413
 1740TIP3    H126711   4.422   5.826   2.042 -1.2495  0.0692 -1.3380
 1740TIP3    H226712   4.513   5.943   2.015  1.8144 -1.5619  1.2315
 1741TIP3   OH226713   0.838   1.432   3.806  0.5266  0.1016  0.0940
 1741TIP3    H126714   0.769   1.498   3.818  1.2806  0.5810  2.4193
 1741TIP3    H226715   0.803   1.353   3.846  0.6500 -0.1399 -0.2759
 1742TIP3   OH226716   5.006   5.241   5.668  0.3305 -0.2749  0.0503
 1742TIP3    H126717   5.050   5.304   5.611  0.9363 -2.1751 -1.7220
 1742TIP3    H226718   5.077   5.195   5.712  0.0451 -1.3758 -0.5900
 1743TIP3   OH226719   3.030   0.657   2.649  0.2547 -0.3567  0.8294
 1743TIP3    H126720   3.009   0.745   2.682  3.1905  1.1039 -0.8502
 1743TIP3    H226721   3.103   0.628   2.704  1.2005 -0.4821 -0.4671
 1744TIP3   OH226722   4.201   2.787  11.906 -0.6462 -0.0534 -0.1182
 1744TIP3    H126723   4.210   2.847  11.980 -1.5747 -2.3890  2.0252
 1744TIP3    H226724   4.107   2.779  11.892 -0.6526 -2.3015  0.8407
 1745TIP3   OH226725   3.333   6.223  16.945 -0.2720  0.3316 -0.1019
 1745TIP3    H126726   3.417   6.267  16.959 -0.9762  1.3433  1.1533
 1745TIP3    H226727   3.275   6.293  16.913 -0.2716 -0.6815 -2.5661
 1746TIP3   OH226728   6.825   3.432  11.314  0.2303 -0.2910 -0.2216
 1746TIP3    H126729   6.888   3.428  11.386  0.8789  0.0415 -0.7600
 1746TIP3    H226730   6.812   3.340  11.289  2.6322 -0.2559 -1.8930
 1747TIP3   OH226731   5.307   4.768  10.409 -0.6748 -0.4896  0.2184
 1747TIP3    H126732   5.381   4.707  10.409 -1.0102 -0.9125 -0.3750
 1747TIP3    H226733   5.233   4.715  10.379 -0.9923  0.1855 -0.2034
 1748TIP3   OH226734   5.340   5.806   4.780  0.3898 -0.2740  0.1991
 1748TIP3    H126735   5.295   5.840   4.857 -1.4699  2.3543 -1.8273
 1748TIP3    H226736   5.273   5.760   4.731  1.3030 -1.1181 -0.2968
 1749TIP3   OH226737   1.703   3.731  14.379 -0.4329  0.1477 -0.5687
 1749TIP3    H126738   1.751   3.649  14.389 -0.5479 -0.0781 -1.7155
 1749TIP3    H226739   1.742   3.790  14.444 -0.4836 -0.8562  0.4073
 1750TIP3   OH226740   6.521   3.048   2.831 -0.3549 -0.4591  0.3833
 1750TIP3    H126741   6.586   3.004   2.777 -1.6377 -1.3542 -0.4964
 1750TIP3    H226742   6.438   3.005   2.809 -1.5118  1.6722  0.2628
 1751TIP3   OH226743   4.109   3.514  16.327 -0.4711  0.3547 -0.2953
 1751TIP3    H126744   4.098   3.606  16.350 -2.0443  0.2915 -0.6723
 1751TIP3    H226745   4.043   3.468  16.379  1.1030 -0.7403  0.8181
 1752TIP3   OH226746   4.745   3.607   3.104  0.8099 -0.1671 -0.2170
 1752TIP3    H126747   4.780   3.594   3.016  0.5940 -1.5990 -0.1269
 1752TIP3    H226748   4.685   3.681   3.095  1.3331  0.1711 -1.1037
 1753TIP3   OH226749   4.315   6.554  12.771 -0.1077 -0.4860 -0.1346
 1753TIP3    H126750   4.379   6.578  12.704  0.4103 -0.3446  0.4019
 1753TIP3    H226751   4.359   6.575  12.853 -1.2810  0.7246  0.2230
 1754TIP3   OH226752   1.214   0.342   2.021  0.0160 -0.1601 -0.4428
 1754TIP3    H126753   1.160   0.344   2.100 -1.3262  0.8271 -1.3470
 1754TIP3    H226754   1.215   0.250   1.995  1.0067 -0.6093  1.0344
 1755TIP3   OH226755   2.256   4.722   5.279 -0.3168  0.3991 -0.1021
 1755TIP3    H126756   2.257   4.753   5.188 -0.3311  1.3740  0.2187
 1755TIP3    H226757   2.176   4.671   5.286  0.1814 -0.5193 -0.9011
 1756TIP3   OH226758   1.789   2.434   0.873 -0.1441 -0.5789  0.4238
 1756TIP3    H126759   1.867   2.438   0.817  0.3915  0.6535  1.2209
 1756TIP3    H226760   1.823   2.405   0.958 -0.4396  0.5869  0.9500
 1757TIP3   OH226761   2.029   0.586   1.089 -0.2944 -0.2604  0.0944
 1757TIP3    H126762   2.011   0.532   1.165 -0.6756  0.6303  0.6532
 1757TIP3    H226763   1.975   0.548   1.019  0.4314 -1.3724  0.1189
 1758TIP3   OH226764   5.609   4.594  14.708 -0.1366  0.1883 -0.5478
 1758TIP3    H126765   5.658   4.673  14.685  0.6874 -0.3496 -0.6523
 1758TIP3    H226766   5.660   4.553  14.777 -0.6497 -0.1729 -0.3750
 1759TIP3   OH226767   1.800   1.025   3.408 -0.5665  0.0130 -0.0183
 1759TIP3    H126768   1.805   1.042   3.502 -0.1990  1.7463 -0.3157
 1759TIP3    H226769   1.892   1.023   3.379 -0.6995  0.5520 -0.4966
 1760TIP3   OH226770   0.050   5.003   5.918 -0.3252  0.7830  0.0313
 1760TIP3    H126771   0.068   4.999   6.011 -1.2032  1.7579  0.2596
 1760TIP3    H226772   0.093   5.083   5.888 -1.8111  1.6389  0.0535
 1761TIP3   OH226773   5.774   4.163  14.725 -0.0631  0.4565 -0.3653
 1761TIP3    H126774   5.701   4.223  14.711 -1.1864 -0.4176  1.4628
 1761TIP3    H226775   5.816   4.194  14.805  0.1982 -0.3809 -0.1646
 1762TIP3   OH226776   2.137   5.713  16.986 -0.2829 -0.2545  0.8141
 1762TIP3    H126777   2.050   5.674  16.975 -0.0273 -0.7644  0.5781
 1762TIP3    H226778   2.144   5.776  16.914 -0.2517 -0.5942  0.5157
 1763TIP3   OH226779   2.364   3.852   1.655 -0.0371 -0.2051 -0.0915
 1763TIP3    H126780   2.349   3.844   1.560 -2.2373  3.4577 -0.2562
 1763TIP3    H226781   2.310   3.784   1.694 -2.6489  0.9393 -1.4559
 1764TIP3   OH226782   5.521   5.802  11.479 -0.2356 -0.0316 -0.1026
 1764TIP3    H126783   5.477   5.846  11.407  1.4179 -0.8940 -1.7145
 1764TIP3    H226784   5.450   5.758  11.527 -1.3473  0.2205 -1.4387
 1765TIP3   OH226785   6.433   4.766   5.787 -0.5331  0.6369  0.7279
 1765TIP3    H126786   6.466   4.683   5.755  0.6732  1.2015  0.4613
 1765TIP3    H226787   6.350   4.779   5.741 -0.1161  0.1807 -0.1755
 1766TIP3   OH226788   6.182   6.181   0.016  0.2549 -0.8355  0.6681
 1766TIP3    H126789   6.224   6.267   0.015 -1.1289 -0.1313 -1.1981
 1766TIP3    H226790   6.244   6.124  -0.030  0.9947 -0.7739  1.5566
 1767TIP3   OH226791   6.635   5.714  14.911  0.5293  0.4064  0.3823
 1767TIP3    H126792   6.717   5.666  14.900 -0.0887 -0.3006 -1.3688
 1767TIP3    H226793   6.648   5.795  14.861  0.3670  0.5625  0.5918
 1768TIP3   OH226794   0.361   5.760   5.629  0.2607  0.2912 -0.4942
 1768TIP3    H126795   0.351   5.671   5.595 -2.1459  0.6832 -0.9946
 1768TIP3    H226796   0.340   5.753   5.722  2.1230  0.0250 -0.0645
 1769TIP3   OH226797   1.509   4.074  14.651  0.2046  0.1548 -0.2966
 1769TIP3    H126798   1.479   4.094  14.739  0.6327  1.6923 -0.4741
 1769TIP3    H226799   1.488   3.981  14.639 -1.5614  0.3803  0.7326
 1770TIP3   OH226800   4.017   0.357  12.318  0.2846  0.1652  0.1067
 1770TIP3    H126801   3.971   0.406  12.250  0.7797  0.8363  0.2400
 1770TIP3    H226802   3.985   0.395  12.400  0.6943  0.2912  0.2110
 1771TIP3   OH226803   4.565   6.318  12.252  0.3768  0.2525  0.6185
 1771TIP3    H126804   4.482   6.362  12.235  0.3236  0.0471  0.3296
 1771TIP3    H226805   4.544   6.225  12.243  0.3610  0.1326  1.7721
 1772TIP3   OH226806   4.522   3.066  14.337 -0.0814 -0.0479  0.3404
 1772TIP3    H126807   4.601   3.102  14.378 -0.5243 -0.6827  1.8505
 1772TIP3    H226808   4.489   3.003  14.402 -2.0041  0.4326 -0.1044
 1773TIP3   OH226809   1.358   3.049  14.902  0.0495  0.5295  0.1203
 1773TIP3    H126810   1.396   3.008  14.980 -3.1464 -1.5653  0.7590
 1773TIP3    H226811   1.305   3.120  14.936  2.2862  2.7320 -0.6769
 1774TIP3   OH226812   2.957   1.411  15.979  0.8457  0.3952 -0.2479
 1774TIP3    H126813   2.927   1.360  16.054  1.2630  1.9037  1.0127
 1774TIP3    H226814   2.928   1.362  15.902 -2.1586  0.2569  0.8743
 1775TIP3   OH226815   4.350   0.997  16.237  0.2548 -0.1101 -0.3072
 1775TIP3    H126816   4.432   1.007  16.285  0.2215  1.0386 -0.4477
 1775TIP3    H226817   4.351   0.907  16.204  0.0414 -1.1105  2.2468
 1776TIP3   OH226818   3.709   4.945  16.271  0.0414 -0.1541 -0.0994
 1776TIP3    H126819   3.672   4.900  16.347  1.4387  1.7226  1.7810
 1776TIP3    H226820   3.768   4.881  16.232 -0.1037 -0.8909  0.8531
 1777TIP3   OH226821   2.810   5.158  11.223  0.1712  0.1870  0.2507
 1777TIP3    H126822   2.864   5.125  11.151  0.2590 -3.3769  1.7370
 1777TIP3    H226823   2.860   5.230  11.260  1.2587  0.5227 -1.7514
 1778TIP3   OH226824   2.679   0.962  15.321  0.3054 -0.8142  0.7749
 1778TIP3    H126825   2.665   0.995  15.409  0.6026 -1.6898  1.1550
 1778TIP3    H226826   2.681   0.867  15.330  0.5663 -0.9096 -0.1406
 1779TIP3   OH226827   4.523   4.112  14.498 -0.4735  0.0881 -0.3525
 1779TIP3    H126828   4.498   4.193  14.453 -0.0991  0.4924  0.1582
 1779TIP3    H226829   4.485   4.042  14.444 -0.0273  0.5554 -1.3010
 1780TIP3   OH226830   5.816   3.012  12.573 -0.0120  0.4022 -0.9643
 1780TIP3    H126831   5.776   2.927  12.553  0.1586  0.3729 -1.1780
 1780TIP3    H226832   5.847   3.002  12.663  0.0419  0.2252 -1.0020
 1781TIP3   OH226833   0.160   5.195  14.349  0.7938  0.5983 -0.6107
 1781TIP3    H126834   0.209   5.276  14.366  1.2351  0.5956 -1.8072
 1781TIP3    H226835   0.222   5.139  14.303  0.1221  0.0247 -0.8215
 1782TIP3   OH226836   0.829   4.306  16.837  0.0057 -0.0454 -0.3198
 1782TIP3    H126837   0.769   4.307  16.762 -0.2609 -3.2138 -0.2822
 1782TIP3    H226838   0.884   4.229  16.822  0.4691 -0.3180  2.3698
 1783TIP3   OH226839   4.250   1.666  12.026 -0.2394  0.5255 -0.3321
 1783TIP3    H126840   4.272   1.703  11.940 -1.0290 -0.5581 -1.0255
 1783TIP3    H226841   4.161   1.698  12.043  0.1332  1.2232  0.3783
 1784TIP3   OH226842   4.132   1.522   0.312 -0.2712  0.5124  0.1761
 1784TIP3    H126843   4.051   1.573   0.307 -1.1577 -0.8174  0.5060
 1784TIP3    H226844   4.191   1.565   0.249 -0.5627  2.6063  1.2436
 1785TIP3   OH226845   1.534   2.866  14.072 -0.3906  0.1127  0.2223
 1785TIP3    H126846   1.559   2.789  14.123 -0.2330  0.7294  1.0981
 1785TIP3    H226847   1.439   2.863  14.069 -0.6284  1.5349  2.9978
 1786TIP3   OH226848   0.089   6.112   0.187 -0.2855 -0.0498 -0.2838
 1786TIP3    H126849   0.112   6.192   0.141  2.1192  0.5153  1.6667
 1786TIP3    H226850   0.114   6.128   0.278 -0.8435 -2.5851  0.4103
 1787TIP3   OH226851   2.151   2.578  15.447 -0.6265 -0.5725  0.2929
 1787TIP3    H126852   2.127   2.668  15.468  0.1603  0.0117 -1.0878
 1787TIP3    H226853   2.150   2.575  15.351  1.0011 -1.5511  0.2663
 1788TIP3   OH226854   1.574   2.084   2.941 -0.5639 -0.4258 -0.5862
 1788TIP3    H126855   1.619   2.108   3.023 -0.1160 -0.0911 -0.9228
 1788TIP3    H226856   1.512   2.156   2.927 -0.7457 -0.5586 -0.4624
 1789TIP3   OH226857   2.543   2.774  16.263  0.1716 -0.1302 -0.0311
 1789TIP3    H126858   2.580   2.740  16.181  1.9030  1.7379 -0.1019
 1789TIP3    H226859   2.464   2.722  16.277  0.9187 -1.8759 -1.8068
 1790TIP3   OH226860   2.782   0.071  14.684  0.2211 -0.2024 -0.0879
 1790TIP3    H126861   2.709   0.010  14.696  1.5736 -2.0358 -0.7976
 1790TIP3    H226862   2.739   0.156  14.672 -1.7346 -1.0043  0.7218
 1791TIP3   OH226863   1.402   4.929  12.096 -0.2348  0.3731 -0.5549
 1791TIP3    H126864   1.384   5.016  12.059  0.9681  1.6409  1.6398
 1791TIP3    H226865   1.450   4.884  12.028  0.9114  2.1952 -1.0308
 1792TIP3   OH226866   1.238   0.556   2.592 -0.2220  0.7388 -0.6609
 1792TIP3    H126867   1.152   0.578   2.630 -0.9373 -1.0744 -1.1310
 1792TIP3    H226868   1.293   0.535   2.668 -0.2957  1.5451 -0.3770
 1793TIP3   OH226869   3.737   2.109   5.366 -0.4503 -0.1406 -0.0037
 1793TIP3    H126870   3.787   2.174   5.317 -0.1152 -1.6238 -1.7279
 1793TIP3    H226871   3.784   2.099   5.448 -0.1281  1.2772  0.0030
 1794TIP3   OH226872   4.709   2.018   4.333 -0.3751 -0.2996 -0.2411
 1794TIP3    H126873   4.616   2.040   4.330 -0.4355 -0.6484 -1.4796
 1794TIP3    H226874   4.743   2.067   4.409 -1.7277 -0.8798  0.7754
 1795TIP3   OH226875   3.939   0.060  17.140 -0.5442  0.9037 -0.0786
 1795TIP3    H126876   3.913   0.101  17.058 -2.9935 -1.8783 -0.8617
 1795TIP3    H226877   3.863   0.069  17.198 -0.0344  0.1320  0.7543
 1796TIP3   OH226878   6.727   4.088  11.877  0.1393  0.6592  0.0872
 1796TIP3    H126879   6.670   4.028  11.924 -1.1259  0.2223 -1.8498
 1796TIP3    H226880   6.810   4.086  11.924 -0.7910 -0.3382  1.7610
 1797TIP3   OH226881   0.862   5.704  16.888  0.0599  0.3623 -0.5820
 1797TIP3    H126882   0.923   5.631  16.886 -1.1800 -0.6885 -0.8914
 1797TIP3    H226883   0.855   5.728  16.980 -0.9118 -1.1190 -0.2481
 1798TIP3   OH226884   1.517   5.391   2.293  0.6342 -0.6806 -0.1115
 1798TIP3    H126885   1.524   5.459   2.360  0.2674 -0.7863  0.0363
 1798TIP3    H226886   1.423   5.381   2.280  0.7136 -0.0175 -1.3029
 1799TIP3   OH226887   5.117   3.234   1.553 -0.1272 -0.0451 -0.4285
 1799TIP3    H126888   5.201   3.256   1.593  0.5428  0.4840 -2.0509
 1799TIP3    H226889   5.090   3.153   1.596  2.0051 -1.1239 -0.9918
 1800TIP3   OH226890   5.712   5.410   6.600  0.7988  0.1198 -0.1891
 1800TIP3    H126891   5.711   5.417   6.695  1.1433 -1.0829 -0.0850
 1800TIP3    H226892   5.622   5.427   6.574  0.3631 -1.0401  0.4834
 1801TIP3   OH226893   3.132   2.425  11.344 -0.0644 -0.0287  0.2044
 1801TIP3    H126894   3.065   2.370  11.304  0.0001 -0.0908  0.1814
 1801TIP3    H226895   3.198   2.364  11.376  0.9058  0.0952 -1.4198
 1802TIP3   OH226896   0.083   4.799  11.225 -0.1853 -0.5134  0.0411
 1802TIP3    H126897   0.101   4.883  11.265 -1.3773  0.3202 -1.0798
 1802TIP3    H226898   0.158   4.784  11.167 -0.6123  0.4647 -0.7936
 1803TIP3   OH226899   5.391   5.657   3.051 -0.2200 -0.1981 -0.2078
 1803TIP3    H126900   5.399   5.589   3.118  0.9510 -1.4919 -1.5865
 1803TIP3    H226901   5.354   5.612   2.976 -0.2755  0.9146 -0.8607
 1804TIP3   OH226902   5.773   1.383   2.760 -0.0177  0.8360 -0.0594
 1804TIP3    H126903   5.725   1.307   2.727  0.1131  1.1645 -1.0362
 1804TIP3    H226904   5.726   1.407   2.841 -0.3248 -0.0045  0.0269
 1805TIP3   OH226905   0.702   2.387   6.174  0.1943 -0.4537  0.3442
 1805TIP3    H126906   0.633   2.348   6.120 -0.6878  1.8367 -0.2684
 1805TIP3    H226907   0.666   2.387   6.263 -0.4167  0.2670  0.1087
 1806TIP3   OH226908   3.534   5.318  13.565  0.1071  0.1702  0.2322
 1806TIP3    H126909   3.619   5.319  13.608 -0.3496  1.7461  1.1864
 1806TIP3    H226910   3.540   5.386  13.498  0.2067 -1.0373 -1.0409
 1807TIP3   OH226911   2.048   2.972   1.604 -0.2306  0.5262  0.1649
 1807TIP3    H126912   2.092   2.952   1.687  0.5991 -1.0023 -0.5968
 1807TIP3    H226913   2.120   2.989   1.543 -0.5946 -2.1456 -1.1349
 1808TIP3   OH226914   5.018   5.984  10.825 -0.2666  0.5329 -0.6186
 1808TIP3    H126915   5.089   6.031  10.782  0.8268  0.0212  0.5644
 1808TIP3    H226916   5.049   5.970  10.914 -0.5863 -2.2834 -0.8589
 1809TIP3   OH226917   3.685   1.632   1.281  0.1774 -0.2827 -0.0769
 1809TIP3    H126918   3.707   1.550   1.238  0.9851  1.2373 -2.8522
 1809TIP3    H226919   3.595   1.650   1.255 -0.5236 -0.9737  1.7733
 1810TIP3   OH226920   3.300   4.524  15.619 -0.2234  0.0472 -0.0570
 1810TIP3    H126921   3.286   4.461  15.548  0.7111 -1.2007  0.8317
 1810TIP3    H226922   3.388   4.507  15.650  0.0905  1.8797  0.1732
 1811TIP3   OH226923   3.635   4.952   4.591  0.1689  0.3021 -0.2530
 1811TIP3    H126924   3.620   5.038   4.551 -1.1193  0.6943  0.9920
 1811TIP3    H226925   3.600   4.960   4.679 -3.7537 -2.6167 -1.2746
 1812TIP3   OH226926   3.847   0.738  11.691  0.2409  0.5807  0.3339
 1812TIP3    H126927   3.937   0.766  11.673  0.7186 -0.7450  0.5761
 1812TIP3    H226928   3.853   0.643  11.700 -1.3729  0.3498 -0.7360
 1813TIP3   OH226929   4.742   4.939  10.688 -0.5926 -0.3960 -0.0839
 1813TIP3    H126930   4.706   5.001  10.625  2.0521 -0.0058 -1.3579
 1813TIP3    H226931   4.668   4.913  10.742 -2.5460  0.8875 -2.0069
 1814TIP3   OH226932   3.093   1.835   3.236 -0.0176 -0.1039  0.2070
 1814TIP3    H126933   3.017   1.878   3.199 -0.5427 -1.2694 -0.1207
 1814TIP3    H226934   3.148   1.906   3.269 -0.8281  0.7955 -0.3449
 1815TIP3   OH226935   2.242   0.803   4.744 -0.3575 -0.5191  0.1068
 1815TIP3    H126936   2.205   0.771   4.826 -0.5413 -1.0775 -0.1879
 1815TIP3    H226937   2.179   0.868   4.713 -0.7278 -0.9362 -0.0245
 1816TIP3   OH226938   5.416   6.164  12.965  0.9951 -0.0593 -0.2094
 1816TIP3    H126939   5.396   6.136  13.054 -1.0878  1.9836  0.0604
 1816TIP3    H226940   5.356   6.114  12.910  1.4761 -0.4778 -0.3586
 1817TIP3   OH226941   5.903   0.387   0.727  0.1519 -0.0014 -0.4530
 1817TIP3    H126942   5.971   0.326   0.701 -0.8209 -1.0641 -0.5970
 1817TIP3    H226943   5.940   0.473   0.710  1.1393 -0.5764 -1.3252
 1818TIP3   OH226944   0.311   3.165   5.630 -0.1129  0.1009 -0.2196
 1818TIP3    H126945   0.220   3.142   5.614 -1.3497  2.8433  2.0636
 1818TIP3    H226946   0.315   3.260   5.621  2.3166  0.1749  0.6229
 1819TIP3   OH226947   4.204   4.206   1.080 -0.1686 -0.2995 -0.0181
 1819TIP3    H126948   4.143   4.157   1.025  0.8868  1.5727 -3.1451
 1819TIP3    H226949   4.289   4.164   1.066  0.0811  0.0288  0.4529
 1820TIP3   OH226950   4.968   6.642  13.664  0.0921  0.5654  0.8302
 1820TIP3    H126951   5.010   6.594  13.736 -1.0189 -0.8365  0.5874
 1820TIP3    H226952   4.884   6.597  13.651 -0.2704  1.5751 -0.5237
 1821TIP3   OH226953   3.199   0.437   0.512  0.3314  0.2260  0.6459
 1821TIP3    H126954   3.104   0.440   0.502  0.5484  0.2952 -2.6122
 1821TIP3    H226955   3.220   0.344   0.516  0.0900  0.2163  3.1159
 1822TIP3   OH226956   6.703   2.960   3.214  0.0977 -0.5453 -0.8732
 1822TIP3    H126957   6.711   3.050   3.182  1.8704 -0.4264 -0.1825
 1822TIP3    H226958   6.691   2.907   3.135  0.1996  0.1660 -1.3764
 1823TIP3   OH226959   4.381   4.614  11.912 -0.2959 -0.3968  0.0996
 1823TIP3    H126960   4.450   4.549  11.899  0.0405  0.2057 -1.4122
 1823TIP3    H226961   4.340   4.622  11.826  0.0493  1.7794  0.0772
 1824TIP3   OH226962   1.437   5.243  16.399 -0.0515 -0.6046  0.2655
 1824TIP3    H126963   1.451   5.254  16.305  2.1950 -0.8605  0.5139
 1824TIP3    H226964   1.478   5.159  16.419  2.0685  0.7022  1.8731
 1825TIP3   OH226965   6.577   6.656   3.395  0.1515 -0.3188  0.1403
 1825TIP3    H126966   6.565   6.572   3.351  1.4099 -0.7163  0.5141
 1825TIP3    H226967   6.494   6.672   3.440  0.7414 -2.6994  2.2970
 1826TIP3   OH226968   5.283   4.421  11.032 -0.1772  0.0297  0.7297
 1826TIP3    H126969   5.321   4.337  11.005 -0.5364  0.0218  0.2509
 1826TIP3    H226970   5.225   4.446  10.961  0.6664  1.1796  0.3972
 1827TIP3   OH226971   6.325   0.926  11.466 -0.3807 -0.4279  0.0444
 1827TIP3    H126972   6.302   1.018  11.475 -1.4642 -0.6743 -0.0385
 1827TIP3    H226973   6.342   0.897  11.556 -0.8946 -0.3420  0.1775
 1828TIP3   OH226974   4.027   3.499   4.911 -0.2688  0.1089  0.0690
 1828TIP3    H126975   3.944   3.493   4.958 -0.0871  0.5757  0.4565
 1828TIP3    H226976   4.002   3.518   4.821 -0.6274 -1.0085 -0.0811
 1829TIP3   OH226977   5.748   0.646   4.085 -0.0339 -0.0189  0.4844
 1829TIP3    H126978   5.757   0.733   4.047  0.5929 -1.4775 -3.1476
 1829TIP3    H226979   5.664   0.614   4.052  0.2108 -1.1409  0.9017
 1830TIP3   OH226980   0.457   4.554  16.823 -0.3490 -0.1768  0.2301
 1830TIP3    H126981   0.387   4.619  16.815  0.5996  0.7764 -0.3745
 1830TIP3    H226982   0.515   4.570  16.749 -0.1195 -1.7573  0.0332
 1831TIP3   OH226983   1.047   5.799  15.017  0.2215 -0.4054  0.1227
 1831TIP3    H126984   0.964   5.806  14.970  0.3068  0.0062  0.0280
 1831TIP3    H226985   1.107   5.760  14.953 -0.0992 -1.4569  0.4519
 1832TIP3   OH226986   1.122   3.629   5.325  0.1864 -0.0592 -0.4663
 1832TIP3    H126987   1.179   3.616   5.249 -0.7074 -0.9323 -1.0073
 1832TIP3    H226988   1.041   3.663   5.288 -0.7044 -1.6746 -0.0617
 1833TIP3   OH226989   2.850   5.559   4.817 -0.5012  0.1610  0.1201
 1833TIP3    H126990   2.768   5.534   4.776 -0.6370 -0.8676  0.9732
 1833TIP3    H226991   2.894   5.476   4.836 -0.1936  0.6209  1.5347
 1834TIP3   OH226992   1.080   6.367  16.328 -0.0508  0.6034  0.4803
 1834TIP3    H126993   0.984   6.367  16.329 -0.1444  1.9287 -1.5948
 1834TIP3    H226994   1.105   6.370  16.420 -2.0739  2.3691  1.0744
 1835TIP3   OH226995   5.156   1.055  15.158 -0.3157 -0.6280 -0.0398
 1835TIP3    H126996   5.218   0.990  15.193 -0.6808 -1.4911 -0.9754
 1835TIP3    H226997   5.206   1.100  15.090 -0.2567 -0.3155  0.2058
 1836TIP3   OH226998   5.758   6.514  17.083 -0.0473 -0.4614 -0.2727
 1836TIP3    H126999   5.802   6.546  17.161  0.1046 -2.0444  0.3293
 1836TIP3    H227000   5.792   6.568  17.011 -0.1797  1.0033  0.7319
 1837TIP3   OH227001   3.154   6.547  12.999  0.2495  0.3128  0.1766
 1837TIP3    H127002   3.165   6.464  12.952 -1.6657  1.0604 -1.7612
 1837TIP3    H227003   3.100   6.525  13.075 -0.4865 -0.2156 -0.4784
 1838TIP3   OH227004   1.751   0.111   4.567  0.0129 -0.2281 -0.0872
 1838TIP3    H127005   1.839   0.100   4.603  0.2466  0.7114 -0.3416
 1838TIP3    H227006   1.718   0.191   4.608 -0.3712 -0.0794 -0.6701
 1839TIP3   OH227007   2.348   4.556   0.997 -0.2011 -0.0809 -0.4394
 1839TIP3    H127008   2.286   4.628   0.991  0.2020  0.2812 -0.2876
 1839TIP3    H227009   2.417   4.588   1.056  0.5643 -0.1478 -1.2772
 1840TIP3   OH227010   3.758   0.045   5.337  0.1419  0.4321  0.3921
 1840TIP3    H127011   3.666   0.055   5.360  0.7082  1.4002  2.5045
 1840TIP3    H227012   3.758  -0.006   5.257 -2.2262  0.4327  0.3398
 1841TIP3   OH227013   6.533   2.203   4.964 -0.0354  0.3424  0.4014
 1841TIP3    H127014   6.532   2.292   4.931  0.5350  0.4148  0.5772
 1841TIP3    H227015   6.625   2.179   4.969 -0.1193  0.1808  1.5284
 1842TIP3   OH227016   6.210   4.836  14.856 -0.3449  0.0390 -0.1221
 1842TIP3    H127017   6.225   4.903  14.789 -1.6341  0.3535 -0.1221
 1842TIP3    H227018   6.205   4.885  14.938  0.1115 -0.2189  0.0591
 1843TIP3   OH227019   5.549   4.701  11.974  0.2580  0.0950 -0.5941
 1843TIP3    H127020   5.534   4.743  11.889 -0.3820  0.5803 -0.2566
 1843TIP3    H227021   5.521   4.767  12.038 -0.6311 -0.7912 -0.0414
 1844TIP3   OH227022   4.197   3.833   4.607  0.0578  0.2645 -0.0244
 1844TIP3    H127023   4.270   3.886   4.638  0.3150 -0.9244  1.5205
 1844TIP3    H227024   4.146   3.892   4.551  2.3236  1.0462 -1.4081
 1845TIP3   OH227025   3.998   2.144  12.256  0.4512 -0.8504 -0.0415
 1845TIP3    H127026   3.927   2.208  12.247  1.8718  0.5331 -2.5496
 1845TIP3    H227027   4.063   2.188  12.310  1.5951  0.0694 -2.0839
 1846TIP3   OH227028   2.357   1.239   2.290 -0.3847  0.3426 -0.5107
 1846TIP3    H127029   2.364   1.143   2.291 -0.1673  0.3560  0.4044
 1846TIP3    H227030   2.442   1.270   2.319 -0.3519  0.8307 -1.0999
 1847TIP3   OH227031   6.725   4.706  10.583 -0.0179  0.3288  0.4253
 1847TIP3    H127032   6.718   4.786  10.530 -0.6921  0.0776  0.1187
 1847TIP3    H227033   6.713   4.736  10.673  2.5455  0.9729  0.6299
 1848TIP3   OH227034   2.556   2.374  13.998 -0.2673 -0.0565 -0.6724
 1848TIP3    H127035   2.526   2.427  13.924  0.6752  1.2895 -0.1395
 1848TIP3    H227036   2.521   2.419  14.075  1.3378  0.3998 -0.1554
 1849TIP3   OH227037   6.599   4.927  12.779  0.0643  0.6364 -0.0687
 1849TIP3    H127038   6.601   4.948  12.686  0.5605  2.7625  0.3636
 1849TIP3    H227039   6.507   4.939  12.804  0.1895  1.5238 -0.0070
 1850TIP3   OH227040   0.039   3.009  12.346 -0.1793  0.4406 -0.3244
 1850TIP3    H127041   0.041   2.925  12.393 -0.1253  0.1940 -0.7633
 1850TIP3    H227042   0.041   2.984  12.254  0.1992  0.9411 -0.4496
 1851TIP3   OH227043   3.491   2.104  13.679 -0.5079  0.0964 -0.6588
 1851TIP3    H127044   3.470   2.144  13.763 -0.2048 -0.4638 -0.3110
 1851TIP3    H227045   3.580   2.132  13.660 -0.6488  0.3907 -0.8975
 1852TIP3   OH227046   0.251   6.298   1.477 -0.1936 -0.3259  0.5431
 1852TIP3    H127047   0.285   6.215   1.445  1.6974  1.0895 -1.4211
 1852TIP3    H227048   0.194   6.329   1.406  0.9921  1.0784  0.1533
 1853TIP3   OH227049   3.034   3.779   3.374  0.0177  0.5917 -0.1398
 1853TIP3    H127050   3.107   3.794   3.434 -0.8263  3.4327  0.2882
 1853TIP3    H227051   2.960   3.755   3.431  0.0748 -0.2749 -0.4059
 1854TIP3   OH227052   5.186   3.425   2.225 -0.2056  0.3707 -0.0019
 1854TIP3    H127053   5.171   3.515   2.197 -0.5713 -0.0893 -1.3627
 1854TIP3    H227054   5.099   3.388   2.236 -0.0647 -0.1557 -0.6109
 1855TIP3   OH227055   0.441   0.040  16.689  0.0919  0.1397  0.5218
 1855TIP3    H127056   0.498  -0.009  16.631 -1.4713 -0.1720 -0.8390
 1855TIP3    H227057   0.448  -0.004  16.774  0.9234 -0.6173  0.0734
 1856TIP3   OH227058   4.632   4.614  15.406  0.3632  0.0322 -0.4217
 1856TIP3    H127059   4.581   4.535  15.420 -0.2237  0.2847 -1.0294
 1856TIP3    H227060   4.568   4.679  15.376  0.9121  0.5907 -0.4183
 1857TIP3   OH227061   1.330   3.980   5.054  0.7188 -0.2090 -0.0374
 1857TIP3    H127062   1.251   3.962   5.105 -0.3569  0.8582 -1.2556
 1857TIP3    H227063   1.355   3.894   5.019  0.1222 -0.5651  0.3746
 1858TIP3   OH227064   3.122   6.201  15.715 -0.4205 -0.2507  0.4854
 1858TIP3    H127065   3.187   6.211  15.645 -0.5628 -0.6892  0.2870
 1858TIP3    H227066   3.041   6.235  15.678 -0.0921  1.2707  1.0901
 1859TIP3   OH227067   1.543   3.273   2.347 -0.5469  0.6325  0.7220
 1859TIP3    H127068   1.616   3.270   2.409 -0.5486  0.2338  0.7050
 1859TIP3    H227069   1.514   3.182   2.338 -0.2607  0.6142 -0.2025
 1860TIP3   OH227070   2.054   6.239  12.995  0.2901  0.1631  0.0632
 1860TIP3    H127071   2.124   6.262  12.933  0.4920  0.6523  0.4673
 1860TIP3    H227072   2.075   6.150  13.022  2.1612  1.1006  2.0193
 1861TIP3   OH227073   4.040   5.179   1.124  0.2360 -0.5380 -0.5297
 1861TIP3    H127074   4.020   5.255   1.068 -0.7727  0.2834  0.8846
 1861TIP3    H227075   4.013   5.206   1.212  3.6292 -1.0180  0.8151
 1862TIP3   OH227076   6.545   0.105  11.332  0.3103  0.2909 -0.1923
 1862TIP3    H127077   6.459   0.063  11.327  0.7979 -1.0301  1.3750
 1862TIP3    H227078   6.529   0.188  11.376 -0.4016  0.9179 -1.5828
 1863TIP3   OH227079   1.333   6.173   3.501  0.6965 -0.1010 -0.0164
 1863TIP3    H127080   1.302   6.210   3.583  1.1204 -0.0576  0.1259
 1863TIP3    H227081   1.263   6.190   3.438  1.1710  1.5743 -0.1281
 1864TIP3   OH227082   1.554   6.777   4.454 -0.2407  0.4711  0.0123
 1864TIP3    H127083   1.612   6.774   4.378 -1.2482 -0.4798 -0.7478
 1864TIP3    H227084   1.607   6.816   4.523  1.1482  0.0447 -0.7812
 1865TIP3   OH227085   5.003   3.127  14.330 -0.4187  0.1262 -0.5313
 1865TIP3    H127086   5.042   3.135  14.243  2.0435  1.0613  0.5306
 1865TIP3    H227087   5.035   3.043  14.363  0.9269  0.9659  0.4100
 1866TIP3   OH227088   4.445   1.374  13.810  0.3030 -0.0940 -0.1038
 1866TIP3    H127089   4.425   1.305  13.746 -0.8236  0.0168  0.1011
 1866TIP3    H227090   4.409   1.341  13.892 -1.3439  1.2370 -0.2520
 1867TIP3   OH227091   4.284   6.396   5.760  0.3831  0.0962  0.4696
 1867TIP3    H127092   4.272   6.383   5.666  2.1283 -0.9943  0.3502
 1867TIP3    H227093   4.379   6.391   5.773  0.2417  1.1681  2.1703
 1868TIP3   OH227094   2.130   0.009  13.637 -0.1288 -0.1971  0.1332
 1868TIP3    H127095   2.106  -0.083  13.635 -0.2474 -0.1533 -0.9803
 1868TIP3    H227096   2.134   0.035  13.545  2.3426  0.2810  0.3073
 1869TIP3   OH227097   4.077   4.001   2.537  0.2638 -0.2897  0.2884
 1869TIP3    H127098   4.016   4.061   2.495 -1.5215 -1.0215  1.6808
 1869TIP3    H227099   4.164   4.040   2.523 -0.6663  1.6607 -0.3401
 1870TIP3   OH227100   6.718   0.536  13.167 -0.6399  0.4798  0.8264
 1870TIP3    H127101   6.754   0.454  13.133 -1.0808  0.1981  1.0352
 1870TIP3    H227102   6.710   0.592  13.091 -0.1662  0.3897  0.7107
 1871TIP3   OH227103   0.280   2.072   4.848 -0.0913  0.1970  0.1818
 1871TIP3    H127104   0.234   2.156   4.850  1.7280  1.2287  0.9191
 1871TIP3    H227105   0.218   2.010   4.887 -1.0065  1.4459  0.8014
 1872TIP3   OH227106   6.443   2.608   5.919 -0.6826  0.0552 -0.1790
 1872TIP3    H127107   6.362   2.566   5.949 -0.0741 -1.3611 -0.4504
 1872TIP3    H227108   6.512   2.551   5.953  0.1591  0.6924 -0.8218
 1873TIP3   OH227109   1.630   6.064  16.753  0.2574 -0.7277  0.2187
 1873TIP3    H127110   1.649   6.106  16.837  0.9137 -0.3047 -0.1338
 1873TIP3    H227111   1.689   6.107  16.691 -1.4227  0.1706 -0.8034
 1874TIP3   OH227112   4.465   6.418  16.423  0.3231 -0.0932  0.4044
 1874TIP3    H127113   4.447   6.449  16.512  1.8867  0.3942  0.5909
 1874TIP3    H227114   4.444   6.325  16.424  0.1889 -0.0571  1.2447
 1875TIP3   OH227115   1.230   4.144  16.760 -0.6816  0.6340 -0.5225
 1875TIP3    H127116   1.219   4.116  16.851 -0.7356 -1.5136 -1.1371
 1875TIP3    H227117   1.143   4.169  16.731 -1.1731 -1.1034 -0.6817
 1876TIP3   OH227118   3.134   5.365   3.840 -0.3397  0.4511  0.0255
 1876TIP3    H127119   3.144   5.439   3.780  1.3674  0.3399  0.1204
 1876TIP3    H227120   3.171   5.291   3.793 -3.0607 -0.6896 -0.5365
 1877TIP3   OH227121   5.962   4.739  13.331 -0.0961 -0.3301  0.2435
 1877TIP3    H127122   5.877   4.782  13.330  0.8286  1.6079 -1.4296
 1877TIP3    H227123   5.999   4.761  13.417 -0.3225  0.8649  0.0490
 1878TIP3   OH227124   0.337   2.119   4.454 -0.1142  0.4742 -0.0106
 1878TIP3    H127125   0.286   2.152   4.527 -0.9009  1.9600 -1.1532
 1878TIP3    H227126   0.409   2.070   4.494 -0.6546  1.0366  1.7244
 1879TIP3   OH227127   5.147   0.345   3.498  0.1847  0.3679  0.3438
 1879TIP3    H127128   5.083   0.415   3.489 -0.9912 -0.7727 -0.5381
 1879TIP3    H227129   5.181   0.356   3.587 -1.3281  0.9432  0.8954
 1880TIP3   OH227130   0.858   4.463   5.117  0.4928 -0.5985  0.4380
 1880TIP3    H127131   0.874   4.386   5.062  0.7218 -0.4667  0.3186
 1880TIP3    H227132   0.789   4.436   5.177  0.8748 -1.0332  0.6808
 1881TIP3   OH227133   0.355   2.948  13.065  0.2647 -0.3162 -0.3824
 1881TIP3    H127134   0.314   2.986  13.143 -3.3930  1.3526 -2.8105
 1881TIP3    H227135   0.432   3.003  13.050  0.4937 -0.0545  1.4714
 1882TIP3   OH227136   2.466   5.799   2.412  0.0260 -0.3795 -0.3832
 1882TIP3    H127137   2.462   5.860   2.338  1.3758  1.8655  1.2866
 1882TIP3    H227138   2.559   5.796   2.435 -0.6011  1.2177  2.9016
 1883TIP3   OH227139   6.622   1.592   5.873  0.1997 -0.4496 -0.3264
 1883TIP3    H127140   6.575   1.671   5.900 -3.0338 -2.3995  0.2313
 1883TIP3    H227141   6.651   1.611   5.784  0.9680  1.9076  0.3492
 1884TIP3   OH227142   6.212   0.491   0.375  0.1443 -0.1062  0.3659
 1884TIP3    H127143   6.243   0.516   0.462  1.4070 -1.5723  0.3783
 1884TIP3    H227144   6.203   0.574   0.328  1.8719  0.5528  1.1262
 1885TIP3   OH227145   4.856   3.892   3.183 -0.3734  0.6447 -0.0922
 1885TIP3    H127146   4.832   3.882   3.275 -1.1304 -0.6208 -0.4060
 1885TIP3    H227147   4.831   3.982   3.162 -1.4261  0.5412  0.6009
 1886TIP3   OH227148   5.196   4.225   3.378  0.4474 -0.4921  0.8611
 1886TIP3    H127149   5.271   4.216   3.436  1.9688  0.1446 -0.9326
 1886TIP3    H227150   5.192   4.144   3.329 -0.0465 -0.5099  0.9167
 1887TIP3   OH227151   2.051   1.166   1.105 -0.4895  0.0955  0.6477
 1887TIP3    H127152   1.969   1.216   1.099 -0.8537 -0.3535  1.6516
 1887TIP3    H227153   2.057   1.121   1.021 -0.2792  1.6108 -0.1804
 1888TIP3   OH227154   0.464   1.994   3.730  0.8069 -0.7382  0.0528
 1888TIP3    H127155   0.411   1.967   3.805  0.9044  0.8527  0.7387
 1888TIP3    H227156   0.550   2.013   3.768  0.3393  2.0227 -0.0091
 1889TIP3   OH227157   2.969   3.789  12.204 -0.7297 -0.1385 -0.2989
 1889TIP3    H127158   2.909   3.715  12.205 -0.6603 -0.2259 -1.4022
 1889TIP3    H227159   2.985   3.809  12.297  2.3055 -3.9219  0.2310
 1890TIP3   OH227160   0.734   5.630  16.166  0.5083  0.6709 -0.0499
 1890TIP3    H127161   0.757   5.721  16.151 -2.0973  1.2204 -1.3528
 1890TIP3    H227162   0.656   5.615  16.112  0.7126 -2.2783  0.2761
 1891TIP3   OH227163   5.937   2.717  12.163 -0.8571 -0.2737  0.5529
 1891TIP3    H127164   5.951   2.644  12.223 -0.9028 -1.3306 -0.6863
 1891TIP3    H227165   5.989   2.696  12.086  0.6933  1.9666  0.8878
 1892TIP3   OH227166   5.601   2.570   0.177 -0.0110 -0.4551  0.1259
 1892TIP3    H127167   5.571   2.606   0.093  1.7249 -2.0375 -1.2437
 1892TIP3    H227168   5.628   2.647   0.228  1.4843  0.4187 -1.8540
 1893TIP3   OH227169   5.737   1.497  15.311 -0.0615  0.1413  0.0837
 1893TIP3    H127170   5.655   1.544  15.323  1.1837  2.4848  0.0925
 1893TIP3    H227171   5.792   1.525  15.384  1.4929  0.4640 -1.1512
 1894TIP3   OH227172   4.013   2.161  16.182  0.5968 -0.5171 -0.5073
 1894TIP3    H127173   4.085   2.206  16.138 -1.0308  1.5521 -1.1905
 1894TIP3    H227174   3.975   2.227  16.239  0.7144 -2.2871  1.7360
 1895TIP3   OH227175   3.556   1.759  15.043  0.3324  0.2159 -0.4922
 1895TIP3    H127176   3.535   1.844  15.005  1.0616  0.8124  0.4030
 1895TIP3    H227177   3.481   1.739  15.099 -0.4735 -0.3956 -1.7243
 1896TIP3   OH227178   1.372   3.483   5.909 -0.4748 -0.3381  0.4203
 1896TIP3    H127179   1.429   3.555   5.936  0.0691 -0.5835 -0.0592
 1896TIP3    H227180   1.362   3.429   5.988  0.4663 -0.6289  0.3561
 1897TIP3   OH227181   3.359   1.954  13.958  0.7018  0.7197  0.2326
 1897TIP3    H127182   3.266   1.961  13.936  0.0657 -1.3786  1.9399
 1897TIP3    H227183   3.381   2.040  13.994 -1.0088  0.8196  1.1681
 1898TIP3   OH227184   1.619   6.771  16.683 -0.0054  0.4495  0.3234
 1898TIP3    H127185   1.686   6.755  16.616 -0.3603 -0.8016  0.2531
 1898TIP3    H227186   1.536   6.769  16.635 -0.3331 -1.3519  0.9038
 1899TIP3   OH227187   6.631   3.509  15.067  0.7712  0.3023  0.4869
 1899TIP3    H127188   6.648   3.440  15.004  1.2002  0.0797  0.8448
 1899TIP3    H227189   6.695   3.577  15.046  2.0117 -0.4552  1.7100
 1900TIP3   OH227190   2.245   0.201  11.874  0.0105 -0.0074  0.2178
 1900TIP3    H127191   2.301   0.259  11.925  1.6816 -1.1210 -0.2845
 1900TIP3    H227192   2.232   0.125  11.930  0.6799 -0.6185 -0.4375
 1901TIP3   OH227193   6.006   6.684   1.935  0.6689  0.3718 -0.1816
 1901TIP3    H127194   5.950   6.621   1.891 -0.8785  0.7721  1.1375
 1901TIP3    H227195   5.985   6.768   1.893  0.8044  0.4068 -0.1796
 1902TIP3   OH227196   0.580   1.729  17.057  0.4265  0.5852  0.0764
 1902TIP3    H127197   0.663   1.767  17.086 -0.1379  0.9518  1.2483
 1902TIP3    H227198   0.534   1.706  17.137 -0.2876 -0.3454 -0.5704
 1903TIP3   OH227199   1.736   1.155  17.282 -0.2568 -0.3823  0.2250
 1903TIP3    H127200   1.783   1.218  17.228  0.5960  0.6401  2.0669
 1903TIP3    H227201   1.804   1.112  17.334 -1.1888  0.3679  2.1834
 1904TIP3   OH227202   2.149   1.612  13.451 -0.2893  0.3587 -0.3039
 1904TIP3    H127203   2.233   1.595  13.408 -0.4131 -0.2197 -0.3284
 1904TIP3    H227204   2.144   1.546  13.520 -0.5001  0.7093  0.0220
 1905TIP3   OH227205   4.680   6.762  15.005 -0.0916 -0.0771 -0.4838
 1905TIP3    H127206   4.733   6.760  14.925  0.3576  1.8398 -0.2900
 1905TIP3    H227207   4.594   6.791  14.975 -0.7347 -1.9940 -0.6179
 1906TIP3   OH227208   1.430   2.574  12.979  0.8047 -0.1729 -0.1528
 1906TIP3    H127209   1.353   2.588  13.034  0.3901 -0.8210 -0.5526
 1906TIP3    H227210   1.496   2.635  13.013  0.1639  0.2893  0.2843
 1907TIP3   OH227211   0.958   0.192   5.442 -0.2348  0.0389  0.1754
 1907TIP3    H127212   0.930   0.124   5.381  1.2070 -0.9755  0.5928
 1907TIP3    H227213   0.928   0.161   5.527  1.5237 -0.7624  0.5430
 1908TIP3   OH227214   3.207   3.306   5.735 -0.8542  0.1050 -0.3717
 1908TIP3    H127215   3.279   3.322   5.796  0.5332 -0.6631 -1.7320
 1908TIP3    H227216   3.237   3.343   5.652 -1.5419 -1.1916 -1.2421
 1909TIP3   OH227217   2.615   3.145  15.860  0.3764  0.6849 -1.1607
 1909TIP3    H127218   2.584   3.136  15.950  1.5031 -1.5831 -0.9285
 1909TIP3    H227219   2.550   3.100  15.807  0.0264  1.4960 -1.4400
 1910TIP3   OH227220   5.508   2.508  11.606 -0.3715 -0.3680  0.2058
 1910TIP3    H127221   5.471   2.555  11.531  2.1100  1.6616  0.1551
 1910TIP3    H227222   5.435   2.503  11.668 -1.4647  1.1913 -0.8563
 1911TIP3   OH227223   4.644   5.357  16.521  0.1942  0.7534  0.0907
 1911TIP3    H127224   4.702   5.433  16.520 -0.0789  0.9601  0.2572
 1911TIP3    H227225   4.699   5.286  16.487  0.0791  1.2873 -1.2894
 1912TIP3   OH227226   6.215   3.234   1.006  0.1921 -0.1490  0.7280
 1912TIP3    H127227   6.268   3.303   1.045  0.2252  0.9040 -1.0587
 1912TIP3    H227228   6.142   3.281   0.963 -0.4103 -1.3079  0.4453
 1913TIP3   OH227229   0.575   3.729   3.171  0.6260 -0.0250  0.5010
 1913TIP3    H127230   0.527   3.662   3.122  0.2632  0.4953  0.1362
 1913TIP3    H227231   0.520   3.748   3.247  0.7717 -0.2051  0.6515
 1914TIP3   OH227232   0.359   2.210  11.298  0.2211  0.3699  0.3738
 1914TIP3    H127233   0.429   2.233  11.360  0.0843  1.4477  0.1362
 1914TIP3    H227234   0.367   2.115  11.289  2.7358  0.6191 -0.8918
 1915TIP3   OH227235   0.438   1.414  12.350  0.2276  0.2077  0.4946
 1915TIP3    H127236   0.369   1.356  12.318  1.0125 -0.5201  0.0694
 1915TIP3    H227237   0.460   1.381  12.437 -0.0029  0.4790  0.6566
 1916TIP3   OH227238   5.703   2.937   3.051  0.4396 -0.9015  0.3341
 1916TIP3    H127239   5.687   2.949   2.957  2.2474 -1.8891 -0.1386
 1916TIP3    H227240   5.795   2.962   3.063 -0.4683  1.9513  2.3945
 1917TIP3   OH227241   0.428   5.007  11.192 -0.1236  0.3048 -0.4483
 1917TIP3    H127242   0.477   5.038  11.116 -1.2829  0.1696 -1.2898
 1917TIP3    H227243   0.423   4.912  11.180  0.0193  0.2375  0.0092
 1918TIP3   OH227244   4.758   0.411   4.496  0.3030  0.2632  0.3752
 1918TIP3    H127245   4.755   0.426   4.590  2.7099 -0.6378  0.6582
 1918TIP3    H227246   4.754   0.316   4.487 -1.0230  0.3716 -0.5492
 1919TIP3   OH227247   4.159   1.169   2.129 -0.1128  0.3061 -0.4864
 1919TIP3    H127248   4.248   1.141   2.152 -0.0810  1.7931  1.4264
 1919TIP3    H227249   4.106   1.089   2.135  0.8157 -0.2956 -0.1379
 1920TIP3   OH227250   2.146   2.139  16.275  0.3932  0.8954 -0.5497
 1920TIP3    H127251   2.186   2.179  16.352 -2.6943 -1.4679  2.6434
 1920TIP3    H227252   2.194   2.057  16.263 -0.0300  0.5795 -0.1437
 1921TIP3   OH227253   5.989   3.875   1.553 -0.9426 -0.4145 -0.3476
 1921TIP3    H127254   6.016   3.933   1.624 -0.4409 -1.1528  0.0848
 1921TIP3    H227255   6.070   3.834   1.523 -0.8457  1.2840 -2.6770
 1922TIP3   OH227256   5.572   6.257  11.975 -0.3044 -0.1243 -0.3076
 1922TIP3    H127257   5.647   6.251  12.034 -0.6812 -2.0423  0.0604
 1922TIP3    H227258   5.506   6.306  12.025  0.4453  0.9944 -0.3819
 1923TIP3   OH227259   5.539   3.218   0.046 -0.3937  0.2293 -0.1183
 1923TIP3    H127260   5.632   3.241   0.052 -0.4231  0.2790  0.1900
 1923TIP3    H227261   5.531   3.173  -0.037  0.3532 -1.8744  0.8699
 1924TIP3   OH227262   4.173   2.442   5.670  0.0222 -0.0617  0.6522
 1924TIP3    H127263   4.140   2.353   5.681  1.2031 -0.4900  0.9632
 1924TIP3    H227264   4.221   2.460   5.752  0.7346  0.4258  0.1457
 1925TIP3   OH227265   1.688   3.871   5.741 -0.0003 -0.5238  0.5067
 1925TIP3    H127266   1.744   3.916   5.677  0.8754 -0.8036  1.0748
 1925TIP3    H227267   1.601   3.910   5.727  0.1644 -0.6136 -0.8809
 1926TIP3   OH227268   5.316   5.225  14.958 -0.6252  0.2582  0.0662
 1926TIP3    H127269   5.284   5.270  14.879 -2.1860 -0.9543 -0.0275
 1926TIP3    H227270   5.381   5.163  14.925 -0.2720  0.6899 -0.0791
 1927TIP3   OH227271   5.469   5.924   3.116 -0.0935  0.2919  0.3881
 1927TIP3    H127272   5.392   5.979   3.128 -0.0705  0.2378  0.8058
 1927TIP3    H227273   5.436   5.843   3.077 -0.0565  0.8008 -0.7538
 1928TIP3   OH227274   4.770   0.768  11.776 -0.0878 -0.0526  0.1470
 1928TIP3    H127275   4.729   0.736  11.696  2.0829  2.4500 -2.2060
 1928TIP3    H227276   4.719   0.845  11.800  0.2576  0.2058  0.0797
 1929TIP3   OH227277   6.473   6.641   2.562 -0.0994 -0.1915  0.4279
 1929TIP3    H127278   6.417   6.651   2.640 -1.6810 -1.0939 -0.5212
 1929TIP3    H227279   6.518   6.725   2.553 -0.9377  0.4014  1.5418
 1930TIP3   OH227280   4.928   5.450   3.936  0.8167  0.3156  0.0722
 1930TIP3    H127281   4.854   5.444   3.877  0.9198  1.3725 -0.1855
 1930TIP3    H227282   4.989   5.383   3.906  1.2959  1.4637 -1.6481
 1931TIP3   OH227283   5.434   1.096   5.623 -0.2077  0.6317  0.7081
 1931TIP3    H127284   5.370   1.076   5.555 -0.9707  0.1810  1.5394
 1931TIP3    H227285   5.422   1.189   5.641 -0.6738  0.5329  0.9100
 1932TIP3   OH227286   5.084   6.430   4.537 -0.1507 -0.4723 -0.3971
 1932TIP3    H127287   4.994   6.447   4.565  0.1613 -0.8522  0.9026
 1932TIP3    H227288   5.091   6.473   4.452 -0.8742  1.6377  0.5312
 1933TIP3   OH227289   5.987   6.620   2.261 -0.0235  0.4046 -0.1197
 1933TIP3    H127290   5.908   6.672   2.246 -0.1047  0.2246 -0.3311
 1933TIP3    H227291   6.025   6.610   2.174 -0.5869 -0.8037 -0.2625
 1934TIP3   OH227292   2.523   3.821  14.041  0.7545 -0.6580 -0.3354
 1934TIP3    H127293   2.546   3.827  13.948  0.4774 -0.1737 -0.3755
 1934TIP3    H227294   2.596   3.862  14.087  0.3547  0.1715 -0.4166
 1935TIP3   OH227295   3.079   4.451  14.426  0.3904 -0.3886  0.4959
 1935TIP3    H127296   3.156   4.507  14.416 -0.4613  1.2269  2.3447
 1935TIP3    H227297   3.026   4.470  14.348  0.7190  0.3983  0.4544
 1936TIP3   OH227298   5.234   0.050   0.346 -0.3793 -0.4126 -0.0664
 1936TIP3    H127299   5.316   0.024   0.305  0.2519 -0.1404  0.9796
 1936TIP3    H227300   5.211   0.133   0.304  0.2504 -0.1450  0.1021
 1937TIP3   OH227301   1.981   1.905   0.378  0.4352  0.3498  0.0169
 1937TIP3    H127302   2.074   1.912   0.354  0.8103 -0.4169  1.1454
 1937TIP3    H227303   1.972   1.817   0.415 -0.5770  0.6713  0.5900
 1938TIP3   OH227304   0.606   3.926   0.806 -0.0685 -0.0179 -0.5036
 1938TIP3    H127305   0.689   3.975   0.810  0.0462 -0.2518  0.1471
 1938TIP3    H227306   0.631   3.838   0.780  0.0723 -0.4575  1.0138
 1939TIP3   OH227307   3.618   5.086  15.351 -0.2496 -0.0415 -0.0007
 1939TIP3    H127308   3.666   5.064  15.272  0.2549 -0.2074  0.3468
 1939TIP3    H227309   3.561   5.011  15.367  0.6135 -0.6049  0.5262
 1940TIP3   OH227310   0.687   6.608  15.105  0.8779 -0.1303  0.0177
 1940TIP3    H127311   0.658   6.685  15.155  0.4258  0.0001 -0.4352
 1940TIP3    H227312   0.782   6.609  15.111  0.8138 -0.8075  1.9211
 1941TIP3   OH227313   1.259   4.044  12.535 -0.0932 -0.3090  0.3136
 1941TIP3    H127314   1.240   3.984  12.463 -3.4029 -1.8257  2.2324
 1941TIP3    H227315   1.283   3.987  12.608  1.6307  1.0824  0.8935
 1942TIP3   OH227316   4.087   2.508   3.712 -0.0453  0.1534 -0.5089
 1942TIP3    H127317   4.132   2.479   3.633  2.2810  2.2043 -0.0559
 1942TIP3    H227318   4.037   2.586   3.684  0.9391  0.9993  0.0401
 1943TIP3   OH227319   1.267   4.507   2.542  0.1476 -0.4367  0.6811
 1943TIP3    H127320   1.349   4.555   2.532 -0.9929  1.7869  1.3011
 1943TIP3    H227321   1.211   4.540   2.471 -0.1980 -2.0032  0.1965
 1944TIP3   OH227322   2.280   1.927  12.596 -0.7027 -0.2624 -0.7023
 1944TIP3    H127323   2.280   1.983  12.673 -0.7894 -0.9552 -0.1816
 1944TIP3    H227324   2.366   1.884  12.597 -0.4054  0.2841 -1.4244
 1945TIP3   OH227325   5.274   3.603   3.425  0.1471 -0.4151  0.0940
 1945TIP3    H127326   5.188   3.578   3.392  0.2263 -2.1932  1.1525
 1945TIP3    H227327   5.263   3.694   3.454 -1.5037 -0.7641  0.6358
 1946TIP3   OH227328   1.144   3.758   0.974 -0.4704  0.3018 -0.3247
 1946TIP3    H127329   1.138   3.665   0.997  1.4272  0.2067 -0.1019
 1946TIP3    H227330   1.193   3.760   0.892 -0.6641  1.1142 -0.4342
 1947TIP3   OH227331   4.338   2.448  13.838  0.3551  0.4186 -0.5964
 1947TIP3    H127332   4.260   2.395  13.850  1.3885 -0.8458  0.9657
 1947TIP3    H227333   4.348   2.497  13.920 -0.2225  2.6557 -1.7625
 1948TIP3   OH227334   4.554   6.101  16.146  0.4767  0.6801 -0.1533
 1948TIP3    H127335   4.552   6.152  16.227  0.9584  0.4903 -0.0210
 1948TIP3    H227336   4.646   6.078  16.133  0.1315 -1.2986  0.5106
 1949TIP3   OH227337   1.775   4.994  15.805 -0.6432  0.0259 -0.3433
 1949TIP3    H127338   1.812   4.936  15.872 -0.2088  1.8888  1.1328
 1949TIP3    H227339   1.686   5.011  15.834 -0.8859 -0.1878 -0.9568
 1950TIP3   OH227340   6.742   0.637   6.163  0.5268  0.3627 -0.1350
 1950TIP3    H127341   6.666   0.621   6.219  1.6072 -1.8830  0.8338
 1950TIP3    H227342   6.794   0.701   6.212  0.2285  0.3582  0.1948
 1951TIP3   OH227343   1.596   5.222  12.283 -0.6246 -0.1475 -0.2968
 1951TIP3    H127344   1.593   5.192  12.192 -0.7708 -0.0712 -0.3175
 1951TIP3    H227345   1.518   5.184  12.323  1.3333 -3.4286  0.8227
 1952TIP3   OH227346   2.683   1.288   0.797  0.7568  0.1175  0.4086
 1952TIP3    H127347   2.683   1.237   0.717 -4.4224  1.1205 -0.5897
 1952TIP3    H227348   2.746   1.359   0.781  1.5448 -1.0072 -1.7845
 1953TIP3   OH227349   5.760   4.972   1.001 -0.2131  0.3278 -0.4299
 1953TIP3    H127350   5.723   5.060   0.996  0.6700  0.6474 -1.7079
 1953TIP3    H227351   5.816   4.964   0.924  2.8653  0.0623  1.6411
 1954TIP3   OH227352   6.522   6.480   5.946 -0.4254 -0.4490  0.2028
 1954TIP3    H127353   6.530   6.422   6.022 -0.5626 -0.5959  0.1043
 1954TIP3    H227354   6.597   6.539   5.953 -0.6199 -0.2512  0.6365
 1955TIP3   OH227355   0.013   3.115   5.560  0.1133  0.2122  0.4388
 1955TIP3    H127356   0.010   3.195   5.507  1.4123  0.6369  0.9605
 1955TIP3    H227357  -0.053   3.058   5.521  0.7051  0.6844 -1.3800
 1956TIP3   OH227358   3.542   3.402   2.027 -0.2743 -0.2786 -0.7485
 1956TIP3    H127359   3.526   3.314   2.060  1.0453  0.1786  1.3370
 1956TIP3    H227360   3.637   3.408   2.019 -0.4186  0.5464 -2.1568
 1957TIP3   OH227361   5.115   2.611  15.328 -0.1954 -0.4012 -0.0604
 1957TIP3    H127362   5.197   2.598  15.376 -0.7155 -1.0345  0.6802
 1957TIP3    H227363   5.047   2.577  15.386 -0.9848  0.0370 -0.6984
 1958TIP3   OH227364   3.351   5.938   5.051 -0.4965 -0.7203 -0.2262
 1958TIP3    H127365   3.336   5.954   5.145 -2.0800  0.8999 -0.6806
 1958TIP3    H227366   3.392   5.852   5.048  0.2618 -0.5190  1.9974
 1959TIP3   OH227367   5.049   3.556  14.870  0.2488 -0.0865  0.0414
 1959TIP3    H127368   5.018   3.498  14.800 -1.2905  0.7313 -0.0098
 1959TIP3    H227369   5.090   3.629  14.824  0.5271 -0.2483  0.0356
 1960TIP3   OH227370   3.834   5.785  16.738 -0.0655 -0.4007  0.3743
 1960TIP3    H127371   3.785   5.723  16.793 -0.9284 -0.1588 -0.1042
 1960TIP3    H227372   3.846   5.739  16.655  0.7682 -0.5562  0.5658
 1961TIP3   OH227373   1.776   3.238  17.140  0.8509 -0.0368 -0.1565
 1961TIP3    H127374   1.699   3.181  17.140  2.5280 -2.4831 -0.0282
 1961TIP3    H227375   1.772   3.284  17.224 -0.1617 -0.5785  0.1023
 1962TIP3   OH227376   4.719   2.049   3.291  0.2725 -0.8264  0.4793
 1962TIP3    H127377   4.732   2.037   3.197 -0.7436  0.9931  0.0626
 1962TIP3    H227378   4.800   2.090   3.322  0.5873 -1.3791  0.3933
 1963TIP3   OH227379   3.221   4.325  15.443  0.0542  0.1617 -0.5804
 1963TIP3    H127380   3.222   4.231  15.424  2.0061  0.0124  0.0425
 1963TIP3    H227381   3.170   4.363  15.371 -0.7078 -1.3520 -0.8839
 1964TIP3   OH227382   2.177   6.704   0.175  0.4816 -0.1298  0.1768
 1964TIP3    H127383   2.205   6.618   0.143 -2.2071 -0.7524 -0.7011
 1964TIP3    H227384   2.252   6.761   0.157  2.2253 -2.1705  0.4939
 1965TIP3   OH227385   6.762   1.350   0.708 -0.5775 -0.2056  0.1547
 1965TIP3    H127386   6.769   1.424   0.769 -2.9092 -0.8449  1.2990
 1965TIP3    H227387   6.795   1.275   0.757 -1.6292 -0.5578  0.3493
 1966TIP3   OH227388   5.177   0.654   6.872 -0.3561  0.1614  0.1009
 1966TIP3    H127389   5.182   0.579   6.812 -1.0968  0.4042 -0.2661
 1966TIP3    H227390   5.264   0.695   6.866 -0.1638 -0.2807 -0.1890
 1967TIP3   OH227391   0.434   3.245   3.265  0.0762 -0.5594  0.0808
 1967TIP3    H127392   0.403   3.189   3.336 -1.0770  0.5868  0.5019
 1967TIP3    H227393   0.375   3.320   3.265 -1.5835 -1.6111 -3.6530
 1968TIP3   OH227394   3.568   5.325  15.506  0.2236 -0.2858  0.2892
 1968TIP3    H127395   3.478   5.303  15.484  0.3557 -0.9396  0.3578
 1968TIP3    H227396   3.616   5.242  15.496  1.2078  0.4589 -1.7541
 1969TIP3   OH227397   0.124   2.374  17.130  0.0754  0.1071  0.3883
 1969TIP3    H127398   0.070   2.296  17.146 -0.1120 -0.7505 -3.5869
 1969TIP3    H227399   0.214   2.342  17.137  0.0692  0.3122  1.7359
 1970TIP3   OH227400   1.050   0.699  14.929  0.3634  0.4045 -0.6158
 1970TIP3    H127401   0.987   0.710  15.000 -0.8402 -3.0707 -0.9611
 1970TIP3    H227402   1.098   0.620  14.952  0.2538 -0.5803 -3.4022
 1971TIP3   OH227403   2.737   2.824   1.502  0.4378  0.1807 -0.0876
 1971TIP3    H127404   2.696   2.754   1.553 -0.9468 -0.9888 -2.6073
 1971TIP3    H227405   2.831   2.806   1.508  0.2902 -0.2448  1.4922
 1972TIP3   OH227406   0.966   3.589   5.032  0.1766  0.0706  0.0437
 1972TIP3    H127407   1.033   3.633   4.979 -0.5287  1.2998  0.1440
 1972TIP3    H227408   0.887   3.592   4.978 -0.5307  1.2725  1.1012
 1973TIP3   OH227409   2.233   4.062  16.917  0.2973 -0.6595  0.6010
 1973TIP3    H127410   2.246   4.025  17.005  3.5489  0.8829  0.9579
 1973TIP3    H227411   2.319   4.096  16.894 -1.3497  2.4830 -1.5671
 1974TIP3   OH227412   6.215   5.782   3.123  0.6270  0.1245  0.3485
 1974TIP3    H127413   6.220   5.713   3.189 -2.0194  0.6988  1.2950
 1974TIP3    H227414   6.306   5.805   3.105  1.4948 -0.8739  2.9579
 1975TIP3   OH227415   4.042   6.054  13.130  0.1393 -0.1843 -0.6728
 1975TIP3    H127416   4.092   6.082  13.054  0.0887 -0.7653 -0.9197
 1975TIP3    H227417   4.065   6.117  13.199  2.4525 -1.3441 -0.2868
 1976TIP3   OH227418   5.070   3.052   2.753  0.7506  0.3478 -0.0445
 1976TIP3    H127419   4.978   3.045   2.778  0.7077 -0.6014 -0.4404
 1976TIP3    H227420   5.113   2.980   2.798  1.0358 -0.1098 -1.0225
 1977TIP3   OH227421   3.487   0.071   5.346  0.1942  0.0028  0.1089
 1977TIP3    H127422   3.482  -0.024   5.349  0.3916  0.0148  1.0207
 1977TIP3    H227423   3.404   0.099   5.308 -0.0414 -0.5048  0.2511
 1978TIP3   OH227424   6.705   6.817   3.172  0.8095  0.2036  0.1027
 1978TIP3    H127425   6.644   6.771   3.229  0.6331  0.9054  0.4965
 1978TIP3    H227426   6.769   6.751   3.146  0.5427 -0.2654  0.6226
 1979TIP3   OH227427   0.177   0.224   3.553  0.0168 -0.5320  0.3654
 1979TIP3    H127428   0.107   0.230   3.619 -0.6770  0.8399 -0.4461
 1979TIP3    H227429   0.133   0.195   3.473  0.5733 -0.6685  0.1021
 1980TIP3   OH227430   5.268   0.340  12.318 -0.0682  0.0031 -0.1643
 1980TIP3    H127431   5.311   0.415  12.276  0.2224  0.6503  1.2460
 1980TIP3    H227432   5.322   0.321  12.395 -0.9281 -0.7692  0.2623
 1981TIP3   OH227433   2.840   4.573   2.846 -0.0983  0.4822  0.3671
 1981TIP3    H127434   2.828   4.491   2.894  1.4860  0.3760  0.6610
 1981TIP3    H227435   2.919   4.558   2.793 -1.4574  0.8034 -1.8838
 1982TIP3   OH227436   4.011   1.315   5.669 -0.2037  0.2394  0.1090
 1982TIP3    H127437   3.942   1.380   5.651 -1.0052 -0.1447  1.6271
 1982TIP3    H227438   4.069   1.358   5.732 -0.5821 -0.3852  0.9071
 1983TIP3   OH227439   0.268   5.865   0.361  0.6190 -0.1931  0.1254
 1983TIP3    H127440   0.321   5.943   0.345 -1.4335  1.1849 -0.3982
 1983TIP3    H227441   0.264   5.822   0.276 -2.4425  2.0182 -1.0615
 1984TIP3   OH227442   1.026   1.040   1.736  0.2027  0.2436  0.2045
 1984TIP3    H127443   1.080   1.033   1.657  1.0367  0.4073  0.7518
 1984TIP3    H227444   1.067   0.982   1.799  0.1968  0.9627  0.8841
 1985TIP3   OH227445   6.568   2.206  13.457 -0.0284  0.1026  0.1548
 1985TIP3    H127446   6.603   2.280  13.408 -0.7410  0.2510 -0.1388
 1985TIP3    H227447   6.543   2.142  13.391 -0.9262  0.2728  0.3120
 1986TIP3   OH227448   3.433   2.342  12.237  0.0116  0.4506  0.0625
 1986TIP3    H127449   3.464   2.322  12.325 -0.4754  1.7197  0.5527
 1986TIP3    H227450   3.475   2.277  12.181  0.0844 -0.5711  1.2660
 1987TIP3   OH227451   5.868   2.271   5.796  0.7224 -0.7047 -0.4999
 1987TIP3    H127452   5.922   2.293   5.872  0.2303 -0.3437 -0.2510
 1987TIP3    H227453   5.905   2.189   5.763  1.3723 -0.5020 -0.2866
 1988TIP3   OH227454   4.033   6.342  17.017  0.3912 -0.7573  0.2706
 1988TIP3    H127455   4.072   6.342  16.930  1.6112  2.0055  0.7042
 1988TIP3    H227456   4.105   6.365  17.076 -1.2484  1.9075  1.4279
 1989TIP3   OH227457   1.436   5.962   6.750 -0.2736 -0.5733 -0.0972
 1989TIP3    H127458   1.343   5.947   6.768 -0.2426  0.4386  1.0107
 1989TIP3    H227459   1.458   5.896   6.684 -1.6910 -1.0464 -0.1385
 1990TIP3   OH227460   1.470   4.416  14.568 -0.4609  0.3751  0.9694
 1990TIP3    H127461   1.504   4.481  14.630 -0.1489  1.5472 -0.3637
 1990TIP3    H227462   1.446   4.468  14.491 -0.9916 -1.0133  0.1778
 1991TIP3   OH227463   4.963   1.093  17.006  0.2274 -0.9320  0.1615
 1991TIP3    H127464   4.950   1.091  17.100  0.4508  0.1993  0.2339
 1991TIP3    H227465   4.973   1.186  16.985  2.4212 -1.2957 -0.6678
 1992TIP3   OH227466   0.657   3.246   4.891  0.8985  0.4181  0.9137
 1992TIP3    H127467   0.597   3.294   4.833 -0.9991  0.4025  2.7520
 1992TIP3    H227468   0.728   3.217   4.833  0.0675  1.9956 -1.0123
 1993TIP3   OH227469   5.585   6.487  14.395  0.3904  0.0972  0.3086
 1993TIP3    H127470   5.679   6.499  14.381  0.3206 -0.8572 -1.1992
 1993TIP3    H227471   5.544   6.535  14.323 -0.1477 -1.6687 -0.6341
 1994TIP3   OH227472   5.373   5.838   0.366  0.2801  0.1912 -0.0082
 1994TIP3    H127473   5.383   5.920   0.415  1.8226 -0.1249  0.2593
 1994TIP3    H227474   5.287   5.846   0.325 -0.5839  0.9533  1.8151
 1995TIP3   OH227475   2.147   2.231  17.049  0.2322 -0.6801 -0.0539
 1995TIP3    H127476   2.146   2.294  17.121  0.2700 -0.3532 -0.3386
 1995TIP3    H227477   2.086   2.162  17.077 -1.8049  0.7318 -0.8524
 1996TIP3   OH227478   3.114   6.780   4.207 -0.4140  0.1714  0.2244
 1996TIP3    H127479   3.019   6.789   4.198 -0.5973 -1.1709  0.5579
 1996TIP3    H227480   3.144   6.867   4.232 -1.2957  1.1223 -1.7571
 1997TIP3   OH227481   3.973   6.219   0.182  0.2210 -0.1502 -0.3709
 1997TIP3    H127482   3.972   6.164   0.104 -0.3438  0.2157 -0.6309
 1997TIP3    H227483   4.007   6.162   0.252 -0.6464 -0.9256 -0.5660
 1998TIP3   OH227484   5.068   6.750   3.189  0.4160  0.1321  0.1158
 1998TIP3    H127485   5.046   6.797   3.269 -0.5342  1.3584 -0.8224
 1998TIP3    H227486   5.022   6.798   3.120  0.1092 -1.6990 -1.0073
 1999TIP3   OH227487   4.820   3.075   2.442 -0.1281  0.0681  0.1144
 1999TIP3    H127488   4.897   3.125   2.414  0.6124 -0.3177  1.3696
 1999TIP3    H227489   4.746   3.123   2.406  0.5451  2.1010  1.2196
 2000TIP3   OH227490   2.693   2.737   5.537  0.3148 -0.8510  0.1773
 2000TIP3    H127491   2.722   2.828   5.535 -1.0617 -0.4046 -0.9761
 2000TIP3    H227492   2.740   2.695   5.465 -0.6889 -0.4962 -0.7087
 2001TIP3   OH227493   5.541   0.521   3.199  0.0404  0.2646 -0.0037
 2001TIP3    H127494   5.469   0.552   3.254 -0.2102  1.0805 -0.7786
 2001TIP3    H227495   5.528   0.426   3.194 -0.8955  0.3884 -0.0180
 2002TIP3   OH227496   4.689   3.486  12.450  0.4201  0.1104  0.0647
 2002TIP3    H127497   4.634   3.451  12.520  0.8668 -1.3495 -0.2835
 2002TIP3    H227498   4.651   3.571  12.431  0.1805  0.4833  1.9542
 2003TIP3   OH227499   3.671   4.591   5.461 -0.4806 -0.4829 -0.1751
 2003TIP3    H127500   3.755   4.603   5.505 -1.7282  2.4006  1.7348
 2003TIP3    H227501   3.628   4.521   5.510 -0.5864  0.5413  1.2566
 2004TIP3   OH227502   4.486   4.629  14.474 -0.7256 -0.3291 -0.2197
 2004TIP3    H127503   4.541   4.684  14.418  0.1717 -1.2165 -0.2446
 2004TIP3    H227504   4.473   4.681  14.553 -0.6228  0.2704 -0.5883
 2005TIP3   OH227505   4.560   2.574   2.425 -0.4289  0.0208 -0.6991
 2005TIP3    H127506   4.584   2.646   2.367 -0.6121  1.4376  0.9215
 2005TIP3    H227507   4.466   2.585   2.439 -0.4982 -0.6643 -0.5913
 2006TIP3   OH227508   0.514   0.198   5.222  0.1496  0.4965 -0.1157
 2006TIP3    H127509   0.433   0.248   5.223 -0.2328 -0.0273 -1.8180
 2006TIP3    H227510   0.581   0.261   5.193  0.2547  0.7665  0.6820
 2007TIP3   OH227511   4.040   2.067   6.050 -0.4109  0.4592  0.3666
 2007TIP3    H127512   3.983   2.043   5.977  1.0878 -1.4292 -0.2711
 2007TIP3    H227513   3.992   2.039   6.128 -0.4271 -1.0927 -0.1603
 2008TIP3   OH227514   6.289   4.429   5.329  0.1460  0.9533 -0.0821
 2008TIP3    H127515   6.302   4.502   5.269 -2.9137  0.5943 -1.3559
 2008TIP3    H227516   6.297   4.351   5.274 -0.6868  0.5211  0.4007
 2009TIP3   OH227517   6.793   3.845   1.086  0.2338 -0.5329  0.2201
 2009TIP3    H127518   6.793   3.801   1.171  2.5299 -0.2342  0.4299
 2009TIP3    H227519   6.783   3.938   1.107 -2.2958 -0.6587 -0.0884
 2010TIP3   OH227520   6.570   4.602  12.426 -0.3954 -0.6667  0.6538
 2010TIP3    H127521   6.575   4.616  12.521  1.6642 -3.3524  1.0985
 2010TIP3    H227522   6.638   4.659  12.390  0.4772 -1.3838  1.1182
 2011TIP3   OH227523   5.544   2.548  14.580  0.4391 -0.2471  0.0505
 2011TIP3    H127524   5.598   2.475  14.548 -0.0596 -0.4690 -0.2952
 2011TIP3    H227525   5.603   2.624  14.579  1.4807 -0.9493  2.0383
 2012TIP3   OH227526   3.540   5.333  13.112  0.6949  0.0613 -0.3139
 2012TIP3    H127527   3.496   5.375  13.186 -0.1750 -1.2781 -0.0330
 2012TIP3    H227528   3.593   5.264  13.153  3.0516  1.5736 -0.6470
 2013TIP3   OH227529   0.855   2.023   5.482  0.0745 -0.1449 -0.8057
 2013TIP3    H127530   0.764   1.994   5.491 -0.0406  0.2840 -0.5717
 2013TIP3    H227531   0.886   2.033   5.572 -0.0993  1.1086 -0.8661
 2014TIP3   OH227532   2.838   4.523  11.742 -0.3528 -0.2425  0.0342
 2014TIP3    H127533   2.767   4.495  11.800  0.9173 -1.0838  1.2566
 2014TIP3    H227534   2.857   4.613  11.769  0.7646 -0.8921  1.5342
 2015TIP3   OH227535   5.221   2.602   3.432  0.6854 -0.2597  0.2086
 2015TIP3    H127536   5.136   2.592   3.389  1.7976 -1.6145 -1.7944
 2015TIP3    H227537   5.250   2.690   3.408 -0.8683  0.9941  2.4523
 2016TIP3   OH227538   5.807   4.650  12.166  0.4095  0.4881 -0.3360
 2016TIP3    H127539   5.744   4.584  12.137  0.9274 -0.1119 -0.1121
 2016TIP3    H227540   5.760   4.700  12.233 -0.1294  0.6254 -0.8147
 2017TIP3   OH227541   0.990   2.412   0.202  0.4779  0.6322  0.3146
 2017TIP3    H127542   0.906   2.456   0.183  0.6303  0.4485 -0.9067
 2017TIP3    H227543   0.971   2.352   0.273 -0.8163 -0.4782 -0.9072
 2018TIP3   OH227544   4.457   0.697   4.616 -0.7272 -0.1348 -0.3537
 2018TIP3    H127545   4.527   0.731   4.672 -0.7541  0.8078 -0.8621
 2018TIP3    H227546   4.379   0.745   4.644 -0.3617  1.8667 -2.4933
 2019TIP3   OH227547   1.022   0.706  13.168 -0.0530 -0.0263 -0.3461
 2019TIP3    H127548   1.114   0.682  13.175 -0.4111 -1.0752  1.6180
 2019TIP3    H227549   1.007   0.766  13.241 -1.3257 -1.4080  0.5989
 2020TIP3   OH227550   6.564   3.360   4.801 -0.0990 -0.4542 -0.0942
 2020TIP3    H127551   6.501   3.433   4.805  0.8769  0.4130 -0.0911
 2020TIP3    H227552   6.641   3.393   4.846 -0.0047 -1.9009  0.8568
 2021TIP3   OH227553   5.616   4.284  13.427  0.0275  0.2926 -0.5040
 2021TIP3    H127554   5.676   4.226  13.380  0.5217  0.3201  0.0779
 2021TIP3    H227555   5.649   4.372  13.408  0.6622  0.2739  0.4579
 2022TIP3   OH227556   6.009   5.355   4.379  0.2560  0.1407 -0.0842
 2022TIP3    H127557   6.030   5.371   4.287  1.3872 -0.9308 -0.0523
 2022TIP3    H227558   5.963   5.433   4.408  2.6505  1.9114 -0.7383
 2023TIP3   OH227559   3.052   6.014   2.601 -0.1876  0.1757  0.2380
 2023TIP3    H127560   2.967   5.998   2.561  1.1187 -0.6354 -2.5061
 2023TIP3    H227561   3.071   6.106   2.580  0.9359 -0.5120 -2.1993
 2024TIP3   OH227562   0.911   0.839   6.201  0.1615  0.1074  0.1957
 2024TIP3    H127563   0.956   0.767   6.157  1.3073 -0.7025  2.5405
 2024TIP3    H227564   0.973   0.912   6.196  0.5903 -0.1857  0.9860
 2025TIP3   OH227565   2.396   5.936   4.723  0.7971 -0.0066 -0.5666
 2025TIP3    H127566   2.318   5.945   4.669  0.2866  1.9033  0.3887
 2025TIP3    H227567   2.363   5.944   4.813  1.9509 -0.4326 -0.0877
 2026TIP3   OH227568   3.750   6.376  14.691 -0.3440 -0.2636  0.1085
 2026TIP3    H127569   3.654   6.373  14.693 -0.6069  3.5822  0.5905
 2026TIP3    H227570   3.770   6.428  14.613  1.3382 -0.4810  0.3634
 2027TIP3   OH227571   3.946   1.567  13.144 -0.5916 -0.4284 -0.5204
 2027TIP3    H127572   3.992   1.539  13.223  0.2466 -0.0401 -0.8599
 2027TIP3    H227573   3.869   1.613  13.176 -0.3642 -0.4517  0.0692
 2028TIP3   OH227574   5.187   1.534  12.081 -0.5768  0.1604  0.4912
 2028TIP3    H127575   5.257   1.498  12.027  0.4211  2.2397  0.3074
 2028TIP3    H227576   5.216   1.518  12.171 -0.0221  0.7166  0.4141
 2029TIP3   OH227577   4.584   6.110  15.165 -0.1149  0.6586  0.0361
 2029TIP3    H127578   4.507   6.166  15.165  0.7107  1.9755  3.0420
 2029TIP3    H227579   4.557   6.031  15.211 -0.0457  0.5225 -0.1544
 2030TIP3   OH227580   3.674   6.387  12.588 -0.1062 -0.4993 -0.2603
 2030TIP3    H127581   3.723   6.456  12.544 -0.6890  0.1256  0.0466
 2030TIP3    H227582   3.723   6.370  12.669  1.2507 -2.0142 -1.3512
 2031TIP3   OH227583   1.518   5.368   3.722 -0.0413 -0.1389  0.1253
 2031TIP3    H127584   1.575   5.294   3.744  1.5701  0.6800 -1.1122
 2031TIP3    H227585   1.523   5.375   3.627  0.8467  2.3101  0.2795
 2032TIP3   OH227586   3.304   5.803  13.043  0.3133 -0.2024  0.7082
 2032TIP3    H127587   3.287   5.793  12.950 -1.2327 -0.4131  0.9917
 2032TIP3    H227588   3.387   5.851  13.047 -0.7760  1.9571 -0.8155
 2033TIP3   OH227589   3.567   3.824   1.203 -0.0253  0.0666 -0.1898
 2033TIP3    H127590   3.618   3.905   1.206  0.2116  0.0222 -2.0055
 2033TIP3    H227591   3.629   3.755   1.228  0.1265  0.2955  0.0630
 2034TIP3   OH227592   6.026   2.857  16.287 -0.2894 -0.5765  0.4577
 2034TIP3    H127593   6.022   2.770  16.247  0.1347 -0.2640 -0.2764
 2034TIP3    H227594   6.117   2.865  16.317 -1.0244 -1.5673  3.2638
 2035TIP3   OH227595   0.717   0.745  12.758 -0.0334  0.2342  0.1241
 2035TIP3    H127596   0.641   0.689  12.770  1.1821 -1.4895  0.2183
 2035TIP3    H227597   0.703   0.788  12.673 -0.6936 -0.7302 -0.2670
 2036TIP3   OH227598   4.804   3.723  14.678  0.5887  0.1405 -0.2791
 2036TIP3    H127599   4.743   3.732  14.605  2.8449 -0.3142 -2.3604
 2036TIP3    H227600   4.784   3.637  14.716 -0.0559  0.0003 -0.9158
 2037TIP3   OH227601   6.495   3.615  14.373 -0.1363  0.4222  0.3419
 2037TIP3    H127602   6.439   3.539  14.359 -1.0914  0.7235  2.1693
 2037TIP3    H227603   6.551   3.591  14.447  1.9576  0.2610 -1.2323
 2038TIP3   OH227604   2.321   0.406  15.605  0.1905  0.0292 -0.1273
 2038TIP3    H127605   2.234   0.445  15.602  0.0252 -0.3777 -2.0923
 2038TIP3    H227606   2.363   0.434  15.524  2.0957  0.6141  0.9936
 2039TIP3   OH227607   5.247   1.678  15.850 -0.3157 -0.0918  0.3999
 2039TIP3    H127608   5.218   1.758  15.806 -1.2233 -2.0197 -2.8053
 2039TIP3    H227609   5.166   1.637  15.880  0.2315  0.7446  3.3418
 2040TIP3   OH227610   2.330   0.949  14.271 -0.1328 -0.0931  0.6137
 2040TIP3    H127611   2.257   0.910  14.223  1.5126  0.2664 -2.4605
 2040TIP3    H227612   2.334   1.039  14.238  1.5240 -0.0318  0.9280
 2041TIP3   OH227613   3.692   5.991   2.409 -0.2266  0.0180 -0.2101
 2041TIP3    H127614   3.734   5.968   2.326  0.9336 -0.8635  0.5872
 2041TIP3    H227615   3.699   5.912   2.462 -1.0003  0.5469  0.7186
 2042TIP3   OH227616   6.470   4.516  15.439 -0.5930  0.0300 -0.2073
 2042TIP3    H127617   6.555   4.553  15.415 -0.4345  1.4066  2.1674
 2042TIP3    H227618   6.463   4.435  15.387  3.6158 -1.8942  1.7795
 2043TIP3   OH227619   2.128   0.425   4.146 -0.5639 -0.4880 -0.5908
 2043TIP3    H127620   2.136   0.336   4.179  0.4230 -0.7765 -1.5767
 2043TIP3    H227621   2.157   0.421   4.055  2.0732  1.3046  0.0500
 2044TIP3   OH227622   1.675   0.502   4.951  0.5696  0.1641  0.1982
 2044TIP3    H127623   1.726   0.577   4.920 -0.4708  1.0267  0.4885
 2044TIP3    H227624   1.737   0.430   4.955  1.7256  1.1506  0.4193
 2045TIP3   OH227625   1.164   2.365   4.098  0.0213  0.0587  0.2748
 2045TIP3    H127626   1.119   2.334   4.176 -0.0612  0.4632  0.3928
 2045TIP3    H227627   1.093   2.393   4.039  0.0249 -1.4113 -0.4598
 2046TIP3   OH227628   1.713   0.418   1.481  0.0740  0.1145 -0.0025
 2046TIP3    H127629   1.632   0.466   1.500  0.6851  1.5000 -0.7860
 2046TIP3    H227630   1.701   0.385   1.392  0.8647  1.4646 -0.6463
 2047TIP3   OH227631   0.268   6.161  14.952  0.1804 -0.4101 -0.2981
 2047TIP3    H127632   0.225   6.076  14.946  2.7881 -1.7901 -1.3975
 2047TIP3    H227633   0.309   6.160  15.039 -0.0527 -0.1205 -0.1840
 2048TIP3   OH227634   0.329   3.902  13.779 -0.6898  0.2468 -0.4053
 2048TIP3    H127635   0.404   3.898  13.838 -0.0923 -0.3262 -1.1825
 2048TIP3    H227636   0.347   3.979  13.724 -0.1224 -0.4799 -1.2772
 2049TIP3   OH227637   4.443   6.724  10.588  0.1741  0.7206 -0.4407
 2049TIP3    H127638   4.517   6.664  10.581 -0.4354 -0.0402 -0.3949
 2049TIP3    H227639   4.467   6.783  10.660  0.1906 -0.2881  0.3935
 2050TIP3   OH227640   0.589   3.359  16.650  0.6185  0.2385 -0.5032
 2050TIP3    H127641   0.637   3.374  16.731  1.4308  1.2900 -1.1641
 2050TIP3    H227642   0.651   3.380  16.580 -0.3843  0.3341 -1.3909
 2051TIP3   OH227643   4.964   2.997   1.332  0.4787 -0.5470  0.2272
 2051TIP3    H127644   5.005   3.010   1.418  2.3479  0.1991 -0.7165
 2051TIP3    H227645   4.930   2.908   1.335  2.3519 -1.2913  1.0452
 2052TIP3   OH227646   2.363   0.094   1.119  0.2361  0.1585  0.0108
 2052TIP3    H127647   2.297   0.102   1.188 -0.0515  1.2641 -0.3578
 2052TIP3    H227648   2.446   0.116   1.162  0.3071 -0.8182  0.3801
 2053TIP3   OH227649   1.631   2.617  14.150  0.3109 -0.2908  0.5616
 2053TIP3    H127650   1.576   2.539  14.158 -0.7163  0.3603  0.0711
 2053TIP3    H227651   1.705   2.601  14.209 -0.0765 -1.4688  0.7416
 2054TIP3   OH227652   0.589   3.502   1.980 -0.0317 -0.5598 -0.2517
 2054TIP3    H127653   0.670   3.547   1.957 -0.2868  1.2584  1.9892
 2054TIP3    H227654   0.527   3.573   1.999 -1.4289 -1.8855  0.3830
 2055TIP3   OH227655   0.898   1.653  15.053  0.4751  0.1435 -0.4141
 2055TIP3    H127656   0.939   1.577  15.013 -1.2563 -0.8893 -0.3444
 2055TIP3    H227657   0.947   1.668  15.133  0.6596 -1.0854 -0.2785
 2056TIP3   OH227658   2.557   2.149   2.340  0.1156  0.4207 -0.1131
 2056TIP3    H127659   2.474   2.147   2.292  0.0569  1.2280 -0.0503
 2056TIP3    H227660   2.608   2.219   2.299  0.1050  1.0677  0.9304
 2057TIP3   OH227661   3.229   0.388  13.958  0.2530 -0.0837 -0.0071
 2057TIP3    H127662   3.312   0.414  13.918 -1.2091  0.4806 -2.9600
 2057TIP3    H227663   3.222   0.294  13.940  0.2040 -0.1144  0.1702
 2058TIP3   OH227664   0.194   3.946  16.868  0.1044  0.1106  0.2422
 2058TIP3    H127665   0.137   3.977  16.939  0.1860  1.0769 -0.1018
 2058TIP3    H227666   0.149   3.971  16.788  0.6116  0.1244 -0.0442
 2059TIP3   OH227667   1.051   5.094   6.324 -0.5731 -0.2711 -0.2274
 2059TIP3    H127668   1.028   5.165   6.263 -0.6218 -0.7303 -0.7560
 2059TIP3    H227669   0.968   5.048   6.337 -0.8566  0.5897  1.2259
 2060TIP3   OH227670   0.900   1.863   4.540  0.3731  0.4749  0.7011
 2060TIP3    H127671   0.900   1.830   4.630  0.7211 -2.7561 -0.3626
 2060TIP3    H227672   0.936   1.791   4.488 -1.6290  1.4373 -2.2926
 2061TIP3   OH227673   1.526   1.391   1.806 -0.3685 -0.3638 -0.6061
 2061TIP3    H127674   1.535   1.350   1.721 -2.2337 -0.7345 -0.6629
 2061TIP3    H227675   1.541   1.321   1.869 -0.0529 -0.3300 -0.6429
 2062TIP3   OH227676   3.156   3.118   6.338  0.0166  0.3762  0.3914
 2062TIP3    H127677   3.243   3.106   6.300 -0.6460  1.7584 -1.7519
 2062TIP3    H227678   3.158   3.206   6.375 -0.8388  0.9451 -0.8630
 2063TIP3   OH227679   2.109   2.453  12.891  0.0878 -0.3243  0.3872
 2063TIP3    H127680   2.109   2.549  12.890 -1.4842 -0.2644 -1.2573
 2063TIP3    H227681   2.102   2.429  12.798  2.1434 -2.0952  0.6297
 2064TIP3   OH227682   2.727   1.040   4.985  0.1387  0.2881  0.4707
 2064TIP3    H127683   2.666   1.039   5.059  0.0998  1.8341  0.4897
 2064TIP3    H227684   2.799   0.984   5.013 -0.5008 -0.2179  1.1351
 2065TIP3   OH227685   4.453   5.309  12.357  0.2711  0.1372  0.3086
 2065TIP3    H127686   4.465   5.396  12.396  1.0282 -0.6014  1.7833
 2065TIP3    H227687   4.538   5.266  12.366  0.6647  0.0779 -2.7013
 2066TIP3   OH227688   6.609   6.436  16.810  0.3016  0.4390  0.5515
 2066TIP3    H127689   6.673   6.508  16.814  0.8222  0.1664 -1.7632
 2066TIP3    H227690   6.633   6.386  16.733  0.0608 -2.3982  2.1559
 2067TIP3   OH227691   5.742   3.196   3.873  0.1004 -0.2118 -0.1788
 2067TIP3    H127692   5.819   3.252   3.877 -0.5879  0.7189  0.4778
 2067TIP3    H227693   5.721   3.191   3.780  0.4135  0.2867 -0.2815
 2068TIP3   OH227694   1.466   4.972  16.228 -1.0185  0.3176  0.6321
 2068TIP3    H127695   1.524   5.036  16.187 -0.8334  0.3628  0.9592
 2068TIP3    H227696   1.436   4.917  16.156  0.1734 -0.2894  0.5882
 2069TIP3   OH227697   4.880   4.365   5.824 -0.6131  0.5057  0.1980
 2069TIP3    H127698   4.797   4.379   5.779 -0.7726  1.9094  0.8670
 2069TIP3    H227699   4.881   4.271   5.843 -0.3921 -0.2076 -2.8973
 2070TIP3   OH227700   1.886   1.459  14.525  0.0325 -0.1762  0.0909
 2070TIP3    H127701   1.904   1.522  14.595 -0.5113  0.0666  0.0142
 2070TIP3    H227702   1.953   1.477  14.459  0.5362 -0.3924  0.5344
 2071TIP3   OH227703   1.768   3.777  15.755  0.4429 -0.0723 -0.7447
 2071TIP3    H127704   1.780   3.694  15.801  0.0169 -0.7300 -1.7895
 2071TIP3    H227705   1.683   3.769  15.713 -0.4604  1.6342  0.6244
 2072TIP3   OH227706   3.764   6.406  15.594 -0.9528 -1.1328 -0.8345
 2072TIP3    H127707   3.783   6.499  15.585 -1.1019 -1.0812 -0.6233
 2072TIP3    H227708   3.827   6.363  15.535 -0.2114 -0.9604 -0.1948
 2073TIP3   OH227709   1.642   4.484   3.636 -0.4137  0.1283 -0.1221
 2073TIP3    H127710   1.605   4.564   3.673  0.3396  0.1332  0.6446
 2073TIP3    H227711   1.614   4.485   3.544 -1.7334  0.4670  0.2565
 2074TIP3   OH227712   4.761   4.418  14.385 -0.2233  0.5247 -0.2944
 2074TIP3    H127713   4.697   4.422  14.456  1.2354 -0.0801  1.1265
 2074TIP3    H227714   4.828   4.482  14.409  1.1768 -0.9143 -0.1455
 2075TIP3   OH227715   0.679   5.978  12.783  0.6222  0.1897  0.4620
 2075TIP3    H127716   0.588   5.999  12.804  0.9375  1.8361  0.3362
 2075TIP3    H227717   0.706   6.047  12.723  1.9330 -0.3149  0.4364
 2076TIP3   OH227718   4.045   1.955  12.067  0.6731  0.0552  0.1301
 2076TIP3    H127719   3.996   2.022  12.114 -3.4968 -0.9342 -2.3117
 2076TIP3    H227720   4.069   1.996  11.984  1.7591 -0.2895  0.2585
 2077TIP3   OH227721   6.245   5.901  15.495  0.1782  0.2437 -0.4019
 2077TIP3    H127722   6.164   5.868  15.534  1.3404  0.1460  2.1570
 2077TIP3    H227723   6.312   5.880  15.560  1.9395  2.1335 -1.5030
 2078TIP3   OH227724   6.619   4.219   4.137  0.1212 -0.0425 -0.3364
 2078TIP3    H127725   6.702   4.173   4.147  1.5407  2.4499  0.3539
 2078TIP3    H227726   6.626   4.263   4.052  0.0427  1.1414  0.2511
 2079TIP3   OH227727   4.746   4.970   4.859 -0.1198 -0.2785  0.1341
 2079TIP3    H127728   4.827   4.964   4.909 -1.0737  2.7324  2.3338
 2079TIP3    H227729   4.697   5.041   4.900 -1.3201  2.1963 -4.7572
 2080TIP3   OH227730   0.118   1.892  12.571  0.1894  0.1168  0.2005
 2080TIP3    H127731   0.153   1.962  12.517 -0.5260 -0.1918 -0.6879
 2080TIP3    H227732   0.023   1.902  12.566  0.0874 -0.6499  0.4039
 2081TIP3   OH227733   4.712   0.159   6.566  0.0035 -0.3256  0.0234
 2081TIP3    H127734   4.805   0.152   6.544  0.6284  1.5612  1.7758
 2081TIP3    H227735   4.684   0.243   6.529 -0.6482 -0.2552  0.6491
 2082TIP3   OH227736   5.022   1.244  12.294 -0.6633  0.3160 -0.1460
 2082TIP3    H127737   5.052   1.235  12.385 -1.4235 -0.2170  0.0623
 2082TIP3    H227738   5.101   1.268  12.245 -0.2626  0.7303  0.6700
 2083TIP3   OH227739   0.367   6.326   4.382 -0.1382  0.6769 -0.4782
 2083TIP3    H127740   0.370   6.356   4.292 -0.1749  1.3410 -0.2619
 2083TIP3    H227741   0.346   6.233   4.376  1.6672  0.2921 -1.2223
 2084TIP3   OH227742   5.244   2.826   4.925  0.2741  0.0863  0.4172
 2084TIP3    H127743   5.258   2.792   5.014  0.0265  0.8549  0.7561
 2084TIP3    H227744   5.184   2.899   4.937 -0.2202 -0.1667 -0.4592
 2085TIP3   OH227745   6.084   2.867  15.786 -0.0331 -0.1836 -0.3504
 2085TIP3    H127746   6.122   2.869  15.698 -1.3006  0.7098 -0.9124
 2085TIP3    H227747   6.157   2.845  15.843  0.8677 -0.5530 -1.5988
 2086TIP3   OH227748   1.312   5.173   4.573  0.0572 -0.4725  0.7618
 2086TIP3    H127749   1.385   5.194   4.516  1.3389  0.8354  2.7467
 2086TIP3    H227750   1.297   5.079   4.561 -0.1174 -0.1494 -2.0591
 2087TIP3   OH227751   0.137   1.139  16.887  0.2329 -0.2334 -0.1522
 2087TIP3    H127752   0.119   1.205  16.819 -0.9229  0.7876  1.0758
 2087TIP3    H227753   0.166   1.062  16.839  0.0909  0.6681 -1.7546
 2088TIP3   OH227754   0.893   2.755   3.740  0.0294 -0.0693 -0.0254
 2088TIP3    H127755   0.887   2.806   3.821  0.0806 -0.5703  0.3007
 2088TIP3    H227756   0.815   2.698   3.742  0.7233 -1.0267  0.3345
 2089TIP3   OH227757   0.294   5.089  12.023 -0.3077 -0.2501 -0.0159
 2089TIP3    H127758   0.326   5.022  12.084  1.0917 -0.9352 -1.4109
 2089TIP3    H227759   0.344   5.168  12.046 -0.1082 -0.3876  0.0296
 2090TIP3   OH227760   1.037   0.470  11.747  0.3391 -0.0790 -0.2188
 2090TIP3    H127761   1.120   0.425  11.761  0.3372  0.3408  1.3167
 2090TIP3    H227762   1.015   0.507  11.833 -1.1637  0.2711 -0.7253
 2091TIP3   OH227763   1.214   2.991  11.630  0.1644  0.1995  0.2915
 2091TIP3    H127764   1.171   2.956  11.708 -0.0713  1.8576  0.9465
 2091TIP3    H227765   1.307   2.984  11.649  0.2637 -2.2678 -0.6282
 2092TIP3   OH227766   2.513   3.786   0.003  0.3325 -0.4839 -0.4265
 2092TIP3    H127767   2.591   3.840   0.019  1.2455 -1.6375 -0.8009
 2092TIP3    H227768   2.444   3.829   0.053  1.0101  1.0313 -0.7235
 2093TIP3   OH227769   4.494   4.791  16.785  0.4615  0.3688  0.2688
 2093TIP3    H127770   4.467   4.871  16.830  2.7199  0.2817  1.9744
 2093TIP3    H227771   4.546   4.821  16.711 -0.5653  0.4577 -0.4450
 2094TIP3   OH227772   6.482   2.893  13.778  0.2497  0.2963 -0.1256
 2094TIP3    H127773   6.394   2.864  13.752 -1.0973  0.1298  3.9565
 2094TIP3    H227774   6.533   2.813  13.784  0.1311  0.1811 -0.5836
 2095TIP3   OH227775   0.247   5.611  11.448 -0.2774  0.2048 -0.3814
 2095TIP3    H127776   0.278   5.701  11.457 -0.8349  0.4601 -0.9294
 2095TIP3    H227777   0.157   5.620  11.418 -0.8989 -0.5239  1.1564
 2096TIP3   OH227778   3.761   4.565   4.245  0.5717 -0.4334  0.3249
 2096TIP3    H127779   3.684   4.579   4.191  0.7813 -1.1539 -0.1815
 2096TIP3    H227780   3.821   4.636   4.220 -0.5037  1.1048  1.8768
 2097TIP3   OH227781   4.041   1.129   2.869 -0.6479  0.2237  0.2938
 2097TIP3    H127782   3.991   1.049   2.849 -1.8239  1.1329 -0.5190
 2097TIP3    H227783   3.992   1.172   2.938 -1.2699  1.3389 -0.8052
 2098TIP3   OH227784   6.473   3.352  17.028 -0.2249  0.2328  0.2269
 2098TIP3    H127785   6.441   3.393  16.948 -0.8440 -0.4645  0.1130
 2098TIP3    H227786   6.401   3.358  17.089  0.4684  1.3512  0.9711
 2099TIP3   OH227787   0.309   6.809  16.172 -0.0743 -0.3867  0.4625
 2099TIP3    H127788   0.323   6.831  16.080  0.4813 -0.1522  0.6014
 2099TIP3    H227789   0.241   6.741  16.170 -0.8744  0.4190 -0.0432
 2100TIP3   OH227790   1.368   0.506  15.534 -0.4542  0.3074  0.0108
 2100TIP3    H127791   1.459   0.492  15.560 -0.2690  1.0414 -0.2085
 2100TIP3    H227792   1.355   0.601  15.543 -0.6474  0.4840 -1.6606
 2101TIP3   OH227793   1.826   3.194  12.108  0.6513 -0.0847 -0.2382
 2101TIP3    H127794   1.751   3.241  12.070  0.8369  1.5400  1.2669
 2101TIP3    H227795   1.901   3.224  12.058  0.5453 -0.0909 -0.3995
 2102TIP3   OH227796   0.304   4.764   2.645  0.0218 -0.5057 -0.6937
 2102TIP3    H127797   0.391   4.793   2.617  0.3499 -0.5993  0.1926
 2102TIP3    H227798   0.247   4.787   2.572  0.7895 -0.4403 -1.2888
 2103TIP3   OH227799   3.939   5.468  14.339 -0.0775 -0.6519  0.0469
 2103TIP3    H127800   3.953   5.548  14.390  2.5244 -1.1309  0.2283
 2103TIP3    H227801   3.959   5.397  14.399 -0.2144 -1.3496 -0.7134
 2104TIP3   OH227802   3.374   4.058  16.695  0.3505  0.6242 -0.7506
 2104TIP3    H127803   3.324   4.004  16.634  1.4459 -0.2643 -0.8976
 2104TIP3    H227804   3.372   4.146  16.658 -0.9338  0.5721 -0.8403
 2105TIP3   OH227805   6.504   5.827  14.571  0.3869 -0.1840  0.2159
 2105TIP3    H127806   6.537   5.876  14.496 -0.1492  1.3572  0.9283
 2105TIP3    H227807   6.567   5.756  14.583  0.1557 -0.8383 -2.0246
 2106TIP3   OH227808   1.240   4.998  13.634 -0.4864  0.1492 -0.9174
 2106TIP3    H127809   1.176   5.025  13.699  0.0993 -0.8247  0.1141
 2106TIP3    H227810   1.225   4.904  13.624  1.0035 -0.1759 -0.3624
 2107TIP3   OH227811   0.234   4.285  14.236  0.6997  0.1405  0.1113
 2107TIP3    H127812   0.139   4.270  14.228  0.3254  1.7029  1.1040
 2107TIP3    H227813   0.257   4.247  14.320  0.9672 -0.2567 -0.1394
 2108TIP3   OH227814   2.999   2.132  12.217  0.3366  0.0929  0.3060
 2108TIP3    H127815   3.034   2.043  12.225  1.4637  0.3556 -1.2334
 2108TIP3    H227816   2.996   2.165  12.307 -1.6311 -2.0174  1.1276
 2109TIP3   OH227817   2.203   1.900   2.697  0.3140 -0.5226 -0.0447
 2109TIP3    H127818   2.177   1.857   2.778 -1.3561 -0.6705 -0.6344
 2109TIP3    H227819   2.298   1.883   2.690  0.7506  0.5490  2.4707
 2110TIP3   OH227820   5.338   5.754  15.578 -0.5362  0.2642 -0.3473
 2110TIP3    H127821   5.287   5.823  15.621  0.4447  1.3192 -0.8095
 2110TIP3    H227822   5.339   5.780  15.486  2.1762  1.2064 -0.1269
 2111TIP3   OH227823   3.859   3.162  16.074 -0.2185  0.0134  0.2931
 2111TIP3    H127824   3.807   3.214  16.134 -0.5407  0.8577 -0.6887
 2111TIP3    H227825   3.950   3.173  16.103 -0.3621  0.4894  0.5522
 2112TIP3   OH227826   6.000   1.914  14.442 -0.3776  0.6323 -0.0902
 2112TIP3    H127827   6.024   1.990  14.496 -0.9135  0.7608 -0.0332
 2112TIP3    H227828   6.055   1.924  14.363 -0.1561  0.8613  0.0884
 2113TIP3   OH227829   3.480   0.325   2.266  0.0073  0.3401 -0.1732
 2113TIP3    H127830   3.510   0.345   2.355 -0.6522 -0.0686  0.1460
 2113TIP3    H227831   3.469   0.230   2.265 -2.7830  0.5855  0.2390
 2114TIP3   OH227832   4.048   3.583   4.627  0.1036  0.5213  0.2430
 2114TIP3    H127833   3.977   3.566   4.566 -0.0526  0.5956  0.4035
 2114TIP3    H227834   4.090   3.662   4.594 -1.1002  1.6257  1.2231
 2115TIP3   OH227835   3.821   0.464   2.595  0.1634 -0.7646 -0.1312
 2115TIP3    H127836   3.815   0.557   2.614  2.5456 -1.1842  3.6135
 2115TIP3    H227837   3.894   0.456   2.533  2.4705 -0.2504  2.3453
 2116TIP3   OH227838   0.351   1.959  16.345 -0.1128  0.0121  0.2381
 2116TIP3    H127839   0.270   1.947  16.296 -0.1221 -0.8664  0.4456
 2116TIP3    H227840   0.324   1.950  16.437  0.1472  0.1224  0.3229
 2117TIP3   OH227841   1.659   3.101  14.045  0.3687  0.4255 -0.3987
 2117TIP3    H127842   1.616   3.018  14.060 -1.2623  1.1012 -1.1237
 2117TIP3    H227843   1.720   3.084  13.973  2.3071 -0.8326  1.4376
 2118TIP3   OH227844   2.750   4.938   5.272 -0.5903  0.8299 -0.1633
 2118TIP3    H127845   2.774   4.981   5.354 -0.3923  0.6205 -0.1109
 2118TIP3    H227846   2.799   4.986   5.205 -0.6039  0.8795 -0.1382
 2119TIP3   OH227847   2.490   4.303  16.261 -0.3854  0.2433 -0.1012
 2119TIP3    H127848   2.422   4.269  16.318  0.0184  0.0383  0.2675
 2119TIP3    H227849   2.527   4.225  16.218  0.0200  0.2859  0.1586
 2120TIP3   OH227850   2.511   0.062   2.014  0.0437  0.1673 -0.0434
 2120TIP3    H127851   2.566   0.094   1.943  0.9459 -0.8046  0.1978
 2120TIP3    H227852   2.435   0.024   1.971 -0.1399  0.9278 -0.4099
 2121TIP3   OH227853   6.722   5.915   0.185 -0.1252  0.4363  0.0382
 2121TIP3    H127854   6.808   5.955   0.187  0.2721 -0.3867  1.5615
 2121TIP3    H227855   6.730   5.844   0.122  0.3452  0.3190  0.2243
 2122TIP3   OH227856   2.546   5.299  14.705 -0.5848 -0.5150 -0.3760
 2122TIP3    H127857   2.635   5.318  14.733  0.3657 -1.0010 -2.8068
 2122TIP3    H227858   2.533   5.206  14.725 -0.4330 -0.5166 -0.2843
 2123TIP3   OH227859   1.104   0.880   4.966 -0.1481 -0.4783 -0.2735
 2123TIP3    H127860   1.100   0.784   4.964  0.8205 -0.5983  1.5491
 2123TIP3    H227861   1.019   0.906   5.003 -0.4114 -0.6380 -0.7651
 2124TIP3   OH227862   5.873   5.619   2.268 -0.5536  0.0874 -0.1547
 2124TIP3    H127863   5.802   5.605   2.205 -2.8149 -0.2369  2.2995
 2124TIP3    H227864   5.937   5.551   2.248 -1.5671 -0.4851 -1.5850
 2125TIP3   OH227865   5.496   4.495  12.417 -0.0846  0.2616  0.1479
 2125TIP3    H127866   5.410   4.453  12.427 -0.5737  1.4107  0.9473
 2125TIP3    H227867   5.524   4.513  12.506  0.4601  0.9309 -0.1532
 2126TIP3   OH227868   4.261   1.255  12.306 -0.2253  0.0637  0.4593
 2126TIP3    H127869   4.249   1.296  12.221 -0.5541  0.4082  0.6671
 2126TIP3    H227870   4.312   1.176  12.288  1.8998  1.4199  0.2580
 2127TIP3   OH227871   5.852   6.476   4.459 -0.1358  0.1281  0.5819
 2127TIP3    H127872   5.927   6.532   4.442  0.9634 -1.8453 -1.6580
 2127TIP3    H227873   5.778   6.536   4.465  0.8658  1.8364 -2.4008
 2128TIP3   OH227874   1.518   5.117   5.593 -0.4124 -0.3421  0.7623
 2128TIP3    H127875   1.442   5.147   5.642 -1.1212 -0.0812 -0.4430
 2128TIP3    H227876   1.530   5.183   5.524  1.3232 -0.0207  1.3105
 2129TIP3   OH227877   4.199   1.169   0.702  0.3563  0.5429 -0.5320
 2129TIP3    H127878   4.138   1.223   0.652  2.0003  0.6834 -2.5006
 2129TIP3    H227879   4.202   1.086   0.654  1.2039  0.3059 -0.0810
 2130TIP3   OH227880   5.337   5.976   5.613 -0.7084 -1.0489 -0.4706
 2130TIP3    H127881   5.431   5.995   5.606 -0.2522 -2.7790  0.4573
 2130TIP3    H227882   5.307   5.968   5.522  0.1162 -0.8304 -0.7662
 2131TIP3   OH227883   6.206   4.800   5.687 -0.1706  0.0270  1.2424
 2131TIP3    H127884   6.157   4.718   5.672 -1.0997  0.4068  2.1136
 2131TIP3    H227885   6.166   4.862   5.627  0.7225 -0.2062  0.3778
 2132TIP3   OH227886   0.698   5.891   1.100 -0.3703 -0.1770 -0.2038
 2132TIP3    H127887   0.705   5.915   1.193  0.4106  0.0534 -0.3091
 2132TIP3    H227888   0.610   5.857   1.090  0.0794 -1.8182  1.0078
 2133TIP3   OH227889   5.499   1.475   1.881 -0.0824 -0.1220 -1.1591
 2133TIP3    H127890   5.432   1.438   1.938  0.1533  0.2155 -0.6587
 2133TIP3    H227891   5.517   1.405   1.818  0.5303 -0.9706 -0.0863
 2134TIP3   OH227892   2.497   6.388  11.241 -0.5550 -0.5381  0.2777
 2134TIP3    H127893   2.443   6.309  11.238 -1.3397  0.0039 -0.5589
 2134TIP3    H227894   2.513   6.403  11.334 -4.1989  0.7933  0.8547
 2135TIP3   OH227895   2.762   3.550  12.966 -0.3336  0.1172  0.2779
 2135TIP3    H127896   2.682   3.601  12.964  0.2307  1.0159 -0.0131
 2135TIP3    H227897   2.781   3.531  12.874  0.4954  1.0575  0.2465
 2136TIP3   OH227898   4.239   5.995   1.131 -0.2161 -0.2803 -0.1767
 2136TIP3    H127899   4.207   6.036   1.051  0.0332 -0.2034 -0.2358
 2136TIP3    H227900   4.221   6.059   1.200  0.8321  0.2460 -0.3712
 2137TIP3   OH227901   4.722   5.116  14.462 -0.6380 -0.5209  0.2872
 2137TIP3    H127902   4.643   5.107  14.515 -1.1100 -0.7677 -0.4545
 2137TIP3    H227903   4.699   5.179  14.394  0.1565  0.2527  0.7129
 2138TIP3   OH227904   1.126   3.391  11.512 -0.5702 -0.2548 -0.1661
 2138TIP3    H127905   1.125   3.335  11.434  1.4173 -2.3278  1.1710
 2138TIP3    H227906   1.175   3.340  11.577 -0.4952  2.2056  1.8340
 2139TIP3   OH227907   2.691   1.949   0.951 -0.0355  0.1651  0.1867
 2139TIP3    H127908   2.604   1.911   0.960 -0.0715 -0.3835 -1.8756
 2139TIP3    H227909   2.677   2.031   0.904  0.5728 -0.2713 -0.8210
 2140TIP3   OH227910   4.810   4.018   2.869  0.1783 -0.0977  0.5531
 2140TIP3    H127911   4.799   3.925   2.853 -0.1391  0.4034 -2.8917
 2140TIP3    H227912   4.904   4.034   2.860  0.5030 -0.2825  2.9889
 2141TIP3   OH227913   6.496   3.946   1.086  0.2910 -0.1514 -0.0976
 2141TIP3    H127914   6.535   3.906   1.008 -0.9713 -0.1091 -0.7747
 2141TIP3    H227915   6.483   4.038   1.062 -0.5065 -0.2355 -0.0086
 2142TIP3   OH227916   3.625   5.847   3.732  0.4050  0.2220  0.1248
 2142TIP3    H127917   3.699   5.875   3.787 -0.6385 -1.0782  2.3288
 2142TIP3    H227918   3.567   5.923   3.729  1.0771  0.7296 -0.3000
 2143TIP3   OH227919   6.020   1.368   3.405  0.4891 -0.9025 -0.6780
 2143TIP3    H127920   5.998   1.316   3.481 -1.1170 -0.0568 -0.5238
 2143TIP3    H227921   6.102   1.412   3.428 -0.4418  0.0549  0.9565
 2144TIP3   OH227922   5.165   1.018   2.831  0.5355  0.1912  0.0764
 2144TIP3    H127923   5.108   1.016   2.907  3.0942  1.5596  2.1863
 2144TIP3    H227924   5.150   0.934   2.788 -1.5302 -0.3146  1.6409
 2145TIP3   OH227925   4.915   2.987  13.659 -0.0389 -0.2526  0.3579
 2145TIP3    H127926   4.845   3.039  13.619 -1.0282 -1.5223  0.3626
 2145TIP3    H227927   4.958   2.943  13.585 -1.0345 -1.5885  0.5257
 2146TIP3   OH227928   0.929   5.361   1.701  0.1044  0.0656  0.0778
 2146TIP3    H127929   0.883   5.421   1.642  1.0921  1.7455  0.9530
 2146TIP3    H227930   0.864   5.336   1.766  0.3179  2.4027  1.2894
 2147TIP3   OH227931   4.323   2.716  12.573 -0.0259  0.0517  0.2452
 2147TIP3    H127932   4.265   2.675  12.637  1.6424 -1.7747  0.6731
 2147TIP3    H227933   4.284   2.696  12.488  0.0802 -1.3904  0.5173
 2148TIP3   OH227934   2.700   2.602   1.759 -0.3856  0.3475  0.2374
 2148TIP3    H127935   2.618   2.641   1.728 -0.9416  0.6215  1.9490
 2148TIP3    H227936   2.732   2.662   1.826  0.6524 -0.3211  0.3701
 2149TIP3   OH227937   4.128   5.800   1.579 -0.4792 -0.4767 -0.4459
 2149TIP3    H127938   4.151   5.811   1.671  0.6475 -1.1855 -0.6306
 2149TIP3    H227939   4.129   5.705   1.565 -1.6805 -0.4367 -0.9425
 2150TIP3   OH227940   4.909   0.879   3.943 -0.3290 -0.0023 -0.1065
 2150TIP3    H127941   5.004   0.880   3.930 -0.4596 -0.5798 -1.1769
 2150TIP3    H227942   4.898   0.889   4.038  0.9057 -2.3597  0.3656
 2151TIP3   OH227943   6.410   5.017   3.734 -0.2871  0.1672  0.2093
 2151TIP3    H127944   6.443   5.106   3.719 -1.9033  0.9205  0.9379
 2151TIP3    H227945   6.378   4.989   3.648  2.8933 -0.9579 -0.7727
 2152TIP3   OH227946   0.375   5.431  13.832 -0.1298  0.0391  0.2160
 2152TIP3    H127947   0.465   5.432  13.866  0.0998  2.6778 -0.3190
 2152TIP3    H227948   0.376   5.362  13.766  0.8530 -1.5134  1.7575
 2153TIP3   OH227949   4.203   1.993   0.335  0.0533  0.1178 -0.0493
 2153TIP3    H127950   4.131   2.009   0.396 -1.3256 -2.2946 -0.9345
 2153TIP3    H227951   4.192   2.060   0.267 -0.9128  0.2301  0.2052
 2154TIP3   OH227952   3.435   2.852   6.203  0.4422 -0.6202 -0.1187
 2154TIP3    H127953   3.373   2.802   6.256  0.2947  0.1699  0.4961
 2154TIP3    H227954   3.497   2.888   6.267  0.3166  0.2774 -0.4751
 2155TIP3   OH227955   4.719   5.272   4.139 -0.4746 -0.1927  0.3794
 2155TIP3    H127956   4.692   5.287   4.230  2.3036  1.7054  1.0234
 2155TIP3    H227957   4.726   5.177   4.131  0.4857 -0.3821  2.6344
 2156TIP3   OH227958   4.889   1.086  13.659  0.3542 -0.3484  0.0227
 2156TIP3    H127959   4.946   1.056  13.730  0.4718  0.3139  0.2204
 2156TIP3    H227960   4.868   1.177  13.683 -1.2821 -0.7626  0.2935
 2157TIP3   OH227961   5.480   5.607  11.084  0.5283  0.6519 -0.5194
 2157TIP3    H127962   5.576   5.603  11.090  0.6067 -2.1762 -2.1713
 2157TIP3    H227963   5.463   5.671  11.015  1.4328 -0.9842 -2.3586
 2158TIP3   OH227964   3.216   0.408   2.012 -0.2998  0.1330  0.3355
 2158TIP3    H127965   3.287   0.456   2.056 -0.5457 -1.2572  2.3310
 2158TIP3    H227966   3.223   0.319   2.045 -1.8359 -0.4776 -0.8872
 2159TIP3   OH227967   6.635   5.426  12.644 -0.6058  0.4957  0.2840
 2159TIP3    H127968   6.609   5.351  12.698 -0.2347  1.0421  1.2589
 2159TIP3    H227969   6.729   5.435  12.660  0.1255 -0.9390 -2.5213
 2160TIP3   OH227970   1.033   6.548   5.770 -0.0157  0.1443  0.7852
 2160TIP3    H127971   1.049   6.635   5.807  0.2172 -0.4802  2.2058
 2160TIP3    H227972   1.101   6.493   5.808 -0.0917 -0.6479 -0.1881
 2161TIP3   OH227973   0.269   3.916  12.199  0.2123 -0.0586  0.2382
 2161TIP3    H127974   0.175   3.922  12.218 -0.2586  1.2814 -2.1173
 2161TIP3    H227975   0.310   3.972  12.264 -0.8734  1.1433 -0.0803
 2162TIP3   OH227976   1.215   6.270  11.416 -0.2423 -0.0587  0.8373
 2162TIP3    H127977   1.297   6.246  11.459 -0.6720 -0.7629  1.2992
 2162TIP3    H227978   1.232   6.356  11.377  0.2482  0.5016  2.2147
 2163TIP3   OH227979   6.668   6.564   1.609  0.0369  0.6858 -0.0153
 2163TIP3    H127980   6.605   6.492   1.601 -0.3958  0.7847  1.9798
 2163TIP3    H227981   6.667   6.587   1.702  1.7331  1.8791 -0.2384
 2164TIP3   OH227982   5.278   0.567   4.704 -0.1830 -0.1562  0.1166
 2164TIP3    H127983   5.260   0.528   4.619  1.5073 -0.4089 -0.1490
 2164TIP3    H227984   5.367   0.540   4.725  1.4468  4.0552 -0.4373
 2165TIP3   OH227985   1.153   3.524   0.145 -0.1115 -0.4497 -0.6646
 2165TIP3    H127986   1.069   3.568   0.153 -0.7375 -1.9044  2.7833
 2165TIP3    H227987   1.135   3.445   0.094 -0.5899 -0.2123 -0.8587
 2166TIP3   OH227988   5.239   3.885  13.315 -0.1076  0.7030  0.2774
 2166TIP3    H127989   5.292   3.814  13.279 -0.3938  1.3787 -1.6287
 2166TIP3    H227990   5.300   3.959  13.321 -0.4740  1.0889 -0.5723
 2167TIP3   OH227991   5.471   6.657   1.994 -0.6247 -0.3678 -0.4423
 2167TIP3    H127992   5.477   6.745   1.955  1.1553  0.3723  1.3009
 2167TIP3    H227993   5.378   6.645   2.013 -1.6131 -0.7037 -4.5002
 2168TIP3   OH227994   4.389   4.123  15.248 -0.1866 -0.6657  0.0792
 2168TIP3    H127995   4.481   4.126  15.271 -0.2894 -2.4675  0.9183
 2168TIP3    H227996   4.347   4.077  15.321 -1.5015 -1.2046 -0.9552
 2169TIP3   OH227997   6.494   6.593  12.345 -0.5134 -0.1080  0.2449
 2169TIP3    H127998   6.416   6.613  12.397 -0.5616  0.0861  0.0981
 2169TIP3    H227999   6.460   6.551  12.265 -0.4241 -0.6298  0.4738
 2170TIP3   OH228000   0.750   4.485   5.456  0.0778 -0.4623  0.4377
 2170TIP3    H128001   0.682   4.419   5.465  0.5954 -1.3552 -1.6495
 2170TIP3    H228002   0.762   4.520   5.544 -2.5990 -0.7338  0.9775
 2171TIP3   OH228003   6.258   4.978   0.425  0.4945 -0.3321  0.0879
 2171TIP3    H128004   6.347   4.958   0.395  1.6866  1.3339  2.2594
 2171TIP3    H228005   6.247   4.924   0.504 -0.0841  0.1370  0.3278
 2172TIP3   OH228006   2.059   2.227  13.892 -0.0157 -0.5117  0.0200
 2172TIP3    H128007   1.991   2.292  13.873 -0.0680 -0.1168  1.4377
 2172TIP3    H228008   2.012   2.152  13.927  0.2143 -0.5318  0.2898
 2173TIP3   OH228009   2.821   3.635   3.587 -0.6821  0.3117  0.0003
 2173TIP3    H128010   2.770   3.674   3.657 -0.9814  1.4214 -0.8085
 2173TIP3    H228011   2.786   3.546   3.579 -1.1177  0.4035  0.7760
 2174TIP3   OH228012   1.768   0.603  16.811 -0.0588  0.0912 -0.1616
 2174TIP3    H128013   1.752   0.544  16.737 -1.2214  0.4814 -0.2428
 2174TIP3    H228014   1.681   0.635  16.836  0.4268  0.8251  0.6670
 2175TIP3   OH228015   2.248   3.992  16.014 -0.1956  0.0449 -0.1341
 2175TIP3    H128016   2.171   4.046  16.029 -0.0466 -0.1586  1.6125
 2175TIP3    H228017   2.321   4.046  16.044  0.2017 -0.2778 -0.5054
 2176TIP3   OH228018   0.698   5.966   0.317 -0.0074  0.5199 -0.1003
 2176TIP3    H128019   0.684   5.955   0.411 -1.4819 -3.5838 -0.5937
 2176TIP3    H228020   0.611   5.984   0.282 -0.1486 -1.5160 -0.9255
 2177TIP3   OH228021   4.463   3.720   5.467 -0.0275  0.0984 -0.5026
 2177TIP3    H128022   4.429   3.644   5.514  0.8357 -0.1156 -0.2037
 2177TIP3    H228023   4.530   3.684   5.408  1.3648  0.7574  0.6173
 2178TIP3   OH228024   5.508   3.303  10.676  0.4333  0.1479  0.0311
 2178TIP3    H128025   5.599   3.332  10.668  1.4723 -2.2700  1.6637
 2178TIP3    H228026   5.464   3.339  10.599  2.3704  2.6537 -0.0420
 2179TIP3   OH228027   4.684   5.496   0.940 -0.2167 -0.7410  0.3652
 2179TIP3    H128028   4.663   5.506   0.848 -2.6438  1.3755  1.0186
 2179TIP3    H228029   4.602   5.513   0.986  0.9975 -1.2146  2.9421
 2180TIP3   OH228030   0.513   6.776   5.811  0.3873 -0.5487 -0.4625
 2180TIP3    H128031   0.482   6.773   5.901 -0.4490  0.8306 -0.6691
 2180TIP3    H228032   0.434   6.777   5.758  0.7555  1.5130 -1.0716
 2181TIP3   OH228033   2.829   2.262  13.892 -0.8574 -0.1679  0.3280
 2181TIP3    H128034   2.741   2.300  13.900 -0.2144  2.6276 -3.0623
 2181TIP3    H228035   2.873   2.286  13.973 -2.8407 -0.7107  1.6455
 2182TIP3   OH228036   4.016   4.791  12.245 -0.0580  0.2338 -0.3506
 2182TIP3    H128037   4.112   4.799  12.241 -0.0498  0.8185  0.7782
 2182TIP3    H228038   3.987   4.818  12.158  0.7893  0.3418 -0.6144
 2183TIP3   OH228039   5.206   3.411  13.936  0.1043 -0.3049  0.0808
 2183TIP3    H128040   5.142   3.389  14.004 -1.0358  1.3042 -0.4108
 2183TIP3    H228041   5.176   3.363  13.858 -1.1696  1.2417 -0.4315
 2184TIP3   OH228042   2.398   1.357  16.827 -0.1081 -0.0916  0.2648
 2184TIP3    H128043   2.329   1.327  16.886 -1.2937 -0.5594 -1.2926
 2184TIP3    H228044   2.355   1.419  16.768  1.3203  1.3049  0.6042
 2185TIP3   OH228045   5.015   5.949  13.624  0.1550  0.0299 -0.4897
 2185TIP3    H128046   5.087   5.945  13.686 -0.3804 -1.8831  0.0876
 2185TIP3    H228047   5.051   5.912  13.543  0.3269  0.7818 -0.7618
 2186TIP3   OH228048   3.524   1.717  15.884  0.5650  0.0102  0.2231
 2186TIP3    H128049   3.461   1.647  15.904  0.7077 -0.1819 -0.0003
 2186TIP3    H228050   3.609   1.674  15.886  0.9382  0.7070  2.7794
 2187TIP3   OH228051   4.233   2.352   6.324  0.2917  0.0761  0.5789
 2187TIP3    H128052   4.205   2.268   6.290 -1.2703 -0.5309  3.0954
 2187TIP3    H228053   4.323   2.337   6.354  0.5594 -0.2388 -0.3677
 2188TIP3   OH228054   5.768   3.774   0.836  0.1007 -0.1442  0.3849
 2188TIP3    H128055   5.831   3.702   0.843  1.6680  1.0728 -0.4963
 2188TIP3    H228056   5.709   3.761   0.910  1.0171 -1.6989  0.8946
 2189TIP3   OH228057   1.126   5.654  13.559 -0.1898 -0.0077 -0.0949
 2189TIP3    H128058   1.196   5.676  13.497 -0.7075  2.9153  0.2266
 2189TIP3    H228059   1.063   5.605  13.508  0.0784  1.0868 -1.5471
 2190TIP3   OH228060   4.160   5.162  14.543 -0.0013  0.3768 -0.0479
 2190TIP3    H128061   4.223   5.225  14.578  1.1490  0.2526 -1.7750
 2190TIP3    H228062   4.199   5.132  14.461 -2.3895  0.4289 -1.3002
 2191TIP3   OH228063   1.214   3.381   3.673 -0.1958 -0.6783  0.2207
 2191TIP3    H128064   1.255   3.357   3.590 -0.6475  0.3921 -0.3253
 2191TIP3    H228065   1.280   3.359   3.739  0.7958 -0.1108 -0.5452
 2192TIP3   OH228066   0.444   5.898   1.713  0.5858 -0.7297  0.1308
 2192TIP3    H128067   0.361   5.941   1.691  0.9076 -0.2357 -0.1545
 2192TIP3    H228068   0.467   5.848   1.634  1.1684  0.1238 -0.2549
 2193TIP3   OH228069   6.430   1.168  12.621  0.6006 -0.3321  0.2703
 2193TIP3    H128070   6.413   1.086  12.668  1.6818 -1.9173 -1.9189
 2193TIP3    H228071   6.512   1.200  12.657  0.8791 -0.9685  0.2244
 2194TIP3   OH228072   1.139   1.972  13.020  0.3331 -0.1520 -0.4461
 2194TIP3    H128073   1.168   1.892  12.976  4.9535  0.3954  1.0576
 2194TIP3    H228074   1.169   1.961  13.110 -0.4768  2.5626  0.2268
 2195TIP3   OH228075   3.801   1.696  14.042 -0.3532 -0.3170 -0.2754
 2195TIP3    H128076   3.791   1.706  13.948  1.7245  0.0001 -0.5273
 2195TIP3    H228077   3.895   1.681  14.054 -0.6765 -1.0617  1.6923
 2196TIP3   OH228078   5.025   2.574  16.297 -0.1082  0.4660 -0.1906
 2196TIP3    H128079   5.023   2.615  16.211  0.1105  0.5740 -0.1464
 2196TIP3    H228080   4.935   2.546  16.313  0.0707 -0.5782 -0.9376
 2197TIP3   OH228081   4.251   3.085  13.190 -0.1462  0.3210  0.1317
 2197TIP3    H128082   4.167   3.130  13.199 -0.4307 -0.3174  0.7254
 2197TIP3    H228083   4.239   3.027  13.114  0.1192  1.0151 -0.4449
 2198TIP3   OH228084   3.051   1.825  12.086 -0.0918 -0.4274  0.2211
 2198TIP3    H128085   3.048   1.781  12.171  2.7556  0.1308  0.7251
 2198TIP3    H228086   2.960   1.842  12.064 -0.9943 -1.9179  2.4399
 2199TIP3   OH228087   3.504   3.902   0.058 -0.4903 -0.1150  0.3547
 2199TIP3    H128088   3.598   3.885   0.052 -0.8347 -2.5176  0.9243
 2199TIP3    H228089   3.475   3.847   0.130 -2.4966 -0.1260 -0.4222
 2200TIP3   OH228090   5.972   5.414  17.130  0.4238 -0.0721  0.6696
 2200TIP3    H128091   5.910   5.381  17.195 -1.9465 -0.3946 -1.5872
 2200TIP3    H228092   5.988   5.505  17.156 -1.4058  0.1666  1.0841
 2201TIP3   OH228093   4.466   4.416  15.461 -0.2935  0.2171  0.4012
 2201TIP3    H128094   4.531   4.351  15.484 -0.2757 -0.2135 -0.7916
 2201TIP3    H228095   4.429   4.385  15.378 -0.8011  1.3382  0.1881
 2202TIP3   OH228096   6.413   5.140  11.908 -0.1433 -0.2138  0.2232
 2202TIP3    H128097   6.380   5.215  11.858  2.0254 -0.1179 -1.1858
 2202TIP3    H228098   6.465   5.090  11.845 -1.1008 -2.6727  1.2526
 2203TIP3   OH228099   0.153   4.416  11.763 -0.2816 -0.2758 -0.0685
 2203TIP3    H128100   0.133   4.347  11.826  0.5247 -1.0294 -0.6101
 2203TIP3    H228101   0.248   4.413  11.754 -0.4711 -1.4621 -2.6792
 2204TIP3   OH228102   6.771   5.052   5.421  0.0417 -0.0535 -0.5791
 2204TIP3    H128103   6.679   5.067   5.442  0.1339  0.1527 -0.3136
 2204TIP3    H228104   6.780   5.083   5.331  0.0415  0.7400 -0.3160
 2205TIP3   OH228105   0.018   4.024   2.879  0.4427 -0.1326  0.8655
 2205TIP3    H128106   0.066   3.953   2.922  0.9438  0.1553  0.7848
 2205TIP3    H228107   0.026   4.004   2.785  0.3688 -0.1078  0.8542
 2206TIP3   OH228108   0.489   5.460   5.793  0.0139 -0.0925  0.0106
 2206TIP3    H128109   0.459   5.371   5.814 -2.5037  0.7562  0.3412
 2206TIP3    H228110   0.456   5.514   5.864  1.2408  1.1971 -0.3432
 2207TIP3   OH228111   2.785   5.426  14.703 -0.4805  0.2190 -0.3898
 2207TIP3    H128112   2.866   5.463  14.669 -1.4468  3.1689  0.2087
 2207TIP3    H228113   2.805   5.401  14.793 -0.0013  0.0144 -0.5534
 2208TIP3   OH228114   0.737   5.487   2.711  0.1025 -0.1835 -0.2366
 2208TIP3    H128115   0.802   5.442   2.766 -0.0470  0.2046  0.2659
 2208TIP3    H228116   0.785   5.562   2.675  0.2507 -0.5345 -0.7905
 2209TIP3   OH228117   3.798   4.949   5.686 -0.3193 -0.2429  0.3431
 2209TIP3    H128118   3.844   4.909   5.760 -0.2879 -0.4296  0.2230
 2209TIP3    H228119   3.706   4.949   5.713 -0.4285 -1.1388  0.0156
 2210TIP3   OH228120   1.395   3.567  16.013  0.0101  0.0149  0.1104
 2210TIP3    H128121   1.349   3.486  15.990 -0.5180  0.2653  0.2814
 2210TIP3    H228122   1.378   3.626  15.939  1.1989 -0.3419 -0.4810
 2211TIP3   OH228123   3.561   1.433   4.764 -0.7025  0.4387  0.1123
 2211TIP3    H128124   3.502   1.371   4.807  0.0393  0.1736  0.7616
 2211TIP3    H228125   3.642   1.384   4.750  0.9278  1.9350  3.1668
 2212TIP3   OH228126   1.409   3.549  16.634  0.5527  0.0105 -0.2309
 2212TIP3    H128127   1.445   3.563  16.721 -0.5138  0.3231  0.1848
 2212TIP3    H228128   1.483   3.520  16.581  1.2878  0.1616  0.6909
 2213TIP3   OH228129   4.645   0.610   1.018 -0.9366 -0.0645  0.4391
 2213TIP3    H128130   4.603   0.640   1.099  0.7630 -2.2296  2.2249
 2213TIP3    H228131   4.730   0.577   1.046 -0.1364 -0.5493 -2.3225
 2214TIP3   OH228132   0.215   4.708  16.805  0.0512  0.3650  0.2266
 2214TIP3    H128133   0.209   4.794  16.847 -1.0930 -0.0232  0.9039
 2214TIP3    H228134   0.161   4.716  16.726 -0.2395  0.2104  0.4069
 2215TIP3   OH228135   6.586   4.311  11.963 -0.1771 -0.1803 -0.1361
 2215TIP3    H128136   6.645   4.239  11.946  0.7791  0.6538 -0.4488
 2215TIP3    H228137   6.597   4.329  12.057  0.8137  0.5911 -0.3824
 2216TIP3   OH228138   5.260   3.026   4.090 -0.1405  0.4773 -0.4186
 2216TIP3    H128139   5.311   3.012   4.170  1.4864 -0.1303 -1.5090
 2216TIP3    H228140   5.238   3.119   4.092  2.0490  1.0552 -0.4516
 2217TIP3   OH228141   1.273   4.829  12.865  0.1876  0.3285  0.4914
 2217TIP3    H128142   1.227   4.871  12.793 -0.0764  1.2974  1.1977
 2217TIP3    H228143   1.346   4.887  12.885  0.4365 -0.0811  0.8000
 2218TIP3   OH228144   6.030   0.159   1.069 -0.0106  0.0510 -0.1729
 2218TIP3    H128145   5.950   0.117   1.036 -0.3384 -0.2350  0.9710
 2218TIP3    H228146   6.008   0.252   1.073  0.3057  0.2092 -1.5109
 2219TIP3   OH228147   6.254   5.824  12.490 -0.6044  0.4937  0.2449
 2219TIP3    H128148   6.260   5.818  12.585  1.5581 -1.0441  0.0780
 2219TIP3    H228149   6.173   5.779  12.467 -0.5068 -0.2159  1.2798
 2220TIP3   OH228150   2.188   1.204  14.404  0.0515  0.4921 -0.4028
 2220TIP3    H128151   2.174   1.298  14.412 -0.0543  0.4996 -0.6635
 2220TIP3    H228152   2.107   1.164  14.435 -0.0756  0.4995 -0.7279
 2221TIP3   OH228153   4.951   3.214  15.300  0.2255  0.1620  0.2723
 2221TIP3    H128154   4.942   3.299  15.344  1.9724  0.3739  0.2623
 2221TIP3    H228155   4.987   3.235  15.214  1.6772 -0.6595  0.6570
 2222TIP3   OH228156   6.086   0.470   6.198 -0.0721 -0.2918  0.2585
 2222TIP3    H128157   6.132   0.407   6.254  0.5297  0.0329  0.1387
 2222TIP3    H228158   6.082   0.428   6.112 -0.7321 -0.6636  0.4584
 2223TIP3   OH228159   2.010   6.823  15.120 -0.4875 -0.2493 -0.1160
 2223TIP3    H128160   1.916   6.808  15.120 -0.6160  0.4086  1.3221
 2223TIP3    H228161   2.033   6.834  15.213  0.8676  0.3938 -0.4987
 2224TIP3   OH228162   4.013   2.081  11.825  0.6033  0.6417 -0.1759
 2224TIP3    H128163   4.064   2.080  11.744  2.3495  3.4009  0.7094
 2224TIP3    H228164   4.003   2.174  11.845  1.0540  0.1034  3.2029
 2225TIP3   OH228165   4.303   3.695  11.253  0.1969  0.2206  0.0788
 2225TIP3    H128166   4.243   3.625  11.278 -0.3011  0.3298 -0.7529
 2225TIP3    H228167   4.257   3.741  11.182  1.0393  0.6278 -0.2131
 2226TIP3   OH228168   2.869   6.692  15.737 -0.0784 -0.5775 -0.3654
 2226TIP3    H128169   2.824   6.774  15.756 -0.4957 -0.8737 -0.0527
 2226TIP3    H228170   2.798   6.629  15.721  0.1692 -1.3030  1.1446
 2227TIP3   OH228171   6.338   6.249  14.035  0.0594 -0.4189  0.4095
 2227TIP3    H128172   6.368   6.202  13.958 -0.8908  0.5871 -0.6072
 2227TIP3    H228173   6.302   6.331  14.002 -0.6923 -0.1057  1.8781
 2228TIP3   OH228174   2.124   3.908   0.942  0.1539  0.2647 -0.1362
 2228TIP3    H128175   2.066   3.837   0.915 -0.3554 -1.7046  4.9559
 2228TIP3    H228176   2.212   3.873   0.928  0.0128  0.3145 -1.2591
 2229TIP3   OH228177   3.815   2.622  15.129  0.4693 -0.1721  0.0873
 2229TIP3    H128178   3.793   2.665  15.046  0.4982  0.4998  0.4210
 2229TIP3    H228179   3.752   2.659  15.192  0.6708 -0.4223  0.4376
 2230TIP3   OH228180   4.697   3.476   0.388  0.1678 -0.4387  0.9585
 2230TIP3    H128181   4.788   3.459   0.414  0.7267  0.4057 -0.3469
 2230TIP3    H228182   4.686   3.424   0.308 -0.2040  0.1916  0.6002
 2231TIP3   OH228183   1.504   5.203   3.297 -0.0184 -0.7764  0.0092
 2231TIP3    H128184   1.564   5.164   3.234 -0.3129 -0.0728 -0.7152
 2231TIP3    H228185   1.560   5.249   3.359  0.1893  2.3584 -2.2673
 2232TIP3   OH228186   6.035   3.953   1.071  0.4003  0.5308  0.2937
 2232TIP3    H128187   6.091   3.973   1.146  0.3959  1.1093  0.1438
 2232TIP3    H228188   5.949   3.937   1.110  0.8478 -1.3505  0.6304
 2233TIP3   OH228189   5.168   6.201  15.790  0.9152 -0.6801  0.2940
 2233TIP3    H128190   5.239   6.262  15.770  0.3686 -0.2262 -0.3355
 2233TIP3    H228191   5.111   6.251  15.849  0.2795 -0.4246 -0.5050
 2234TIP3   OH228192   3.274   5.183  17.117  0.4360  0.2534  0.2147
 2234TIP3    H128193   3.189   5.217  17.145 -1.0468 -2.0299 -1.2406
 2234TIP3    H228194   3.298   5.119  17.185 -0.0838 -0.6557 -0.4375
 2235TIP3   OH228195   3.638   4.264   6.410 -0.1985 -0.0585  0.7464
 2235TIP3    H128196   3.670   4.355   6.412  1.2329 -0.4858 -0.8191
 2235TIP3    H228197   3.677   4.224   6.487  2.2968 -0.2712 -0.5260
 2236TIP3   OH228198   4.095   4.102  11.718  0.0564  0.1844  0.0961
 2236TIP3    H128199   4.034   4.030  11.738  0.7810 -0.4497  0.0750
 2236TIP3    H228200   4.050   4.181  11.749 -0.5965 -0.3192  0.4576
 2237TIP3   OH228201   2.110   6.373   0.296  0.2871 -0.0509  0.2854
 2237TIP3    H128202   2.060   6.306   0.248  1.3752 -0.9129  0.3284
 2237TIP3    H228203   2.190   6.384   0.246 -0.1955  1.8175 -0.1480
 2238TIP3   OH228204   4.002   1.939  17.048 -0.0196 -0.3491 -0.0368
 2238TIP3    H128205   3.934   1.897  16.996  0.3070  1.6957 -2.3040
 2238TIP3    H228206   4.055   1.868  17.083 -0.7632 -1.8436 -1.8417
 2239TIP3   OH228207   1.237   5.804   5.753  0.1658  0.2127 -0.4399
 2239TIP3    H128208   1.273   5.820   5.840 -0.5507  0.0589 -0.1097
 2239TIP3    H228209   1.144   5.787   5.768  0.4228 -2.0275 -0.9763
 2240TIP3   OH228210   4.219   0.875  17.023 -0.1477  0.2822  0.5853
 2240TIP3    H128211   4.153   0.813  16.993  1.7976 -2.0443  0.8411
 2240TIP3    H228212   4.254   0.914  16.944  0.2432 -0.7299  0.2512
 2241TIP3   OH228213   5.032   4.885   4.298  0.4295  0.4820 -0.3960
 2241TIP3    H128214   5.090   4.831   4.353  1.3058  1.6422 -0.1547
 2241TIP3    H228215   5.078   4.892   4.214 -0.0035  0.3137 -0.6516
 2242TIP3   OH228216   3.413   0.950  15.222 -0.3055  0.1980 -0.4213
 2242TIP3    H128217   3.417   1.034  15.268  0.2782  0.3771 -0.7860
 2242TIP3    H228218   3.394   0.886  15.290  0.7415  0.4306  0.1094
 2243TIP3   OH228219   4.263   4.089  16.355  0.2926 -0.7050 -0.2802
 2243TIP3    H128220   4.172   4.090  16.384  0.5717  0.6810  0.6119
 2243TIP3    H228221   4.259   4.108  16.262 -0.2020  2.2625  0.2689
 2244TIP3   OH228222   3.146   5.608  16.020 -0.3568 -0.7486  0.3154
 2244TIP3    H128223   3.086   5.666  16.068  1.5683  1.4727  0.1922
 2244TIP3    H228224   3.133   5.522  16.061 -1.6851  0.2073  2.0624
 2245TIP3   OH228225   3.474   2.039  14.442  0.9238  0.0118  0.3037
 2245TIP3    H128226   3.537   1.982  14.398 -0.4624 -1.5674  0.2643
 2245TIP3    H228227   3.431   1.983  14.506  0.8783  1.5458  1.6869
 2246TIP3   OH228228   3.202   6.485   3.977  0.3533  0.5813  0.2674
 2246TIP3    H128229   3.117   6.499   4.018  0.2922  0.7355  0.0865
 2246TIP3    H228230   3.230   6.399   4.009  1.4743  1.7497  2.7123
 2247TIP3   OH228231   5.987   4.007   1.794  0.3849 -0.1293 -0.5452
 2247TIP3    H128232   5.998   4.095   1.829  0.7168 -1.2595  2.4720
 2247TIP3    H228233   5.898   3.981   1.821  0.5099 -0.9353 -0.8816
 2248TIP3   OH228234   5.099   5.767  13.413 -0.4044  0.1186 -0.2425
 2248TIP3    H128235   5.183   5.737  13.379 -0.8150 -1.3980 -0.0038
 2248TIP3    H228236   5.046   5.783  13.335 -0.2264  0.0730 -0.3732
 2249TIP3   OH228237   6.169   6.530   3.719 -0.0659 -0.0992 -0.0958
 2249TIP3    H128238   6.179   6.612   3.768 -0.1399  2.0082 -3.2467
 2249TIP3    H228239   6.078   6.504   3.734 -0.2272  0.7566  0.4915
 2250TIP3   OH228240   4.378   6.235  11.721 -0.1038 -0.3494  0.0619
 2250TIP3    H128241   4.443   6.233  11.651 -0.8692 -1.9640 -0.6544
 2250TIP3    H228242   4.295   6.247  11.675 -0.5214 -0.5170  0.7736
 2251TIP3   OH228243   1.472   5.498  12.341  0.7515  0.0486 -0.0889
 2251TIP3    H128244   1.555   5.510  12.295  0.0598  2.0798 -0.9214
 2251TIP3    H228245   1.450   5.406  12.327  2.7145 -0.4785 -0.0459
 2252TIP3   OH228246   4.119   0.318   5.337  0.3830  0.1954  0.1688
 2252TIP3    H128247   4.055   0.256   5.372 -0.4401  1.0469  0.2011
 2252TIP3    H228248   4.203   0.290   5.374  0.0203 -0.8711  0.2043
 2253TIP3   OH228249   2.462   1.026   0.712 -0.0696  0.0332 -0.2237
 2253TIP3    H128250   2.547   1.069   0.708 -0.3414  0.4840 -1.7129
 2253TIP3    H228251   2.461   0.983   0.798  1.2792  0.7693  0.1925
 2254TIP3   OH228252   2.463   2.436   5.193  0.1579 -0.0167 -0.1793
 2254TIP3    H128253   2.483   2.371   5.260  0.9516  0.8131  0.4182
 2254TIP3    H228254   2.490   2.519   5.232  1.1711  0.4210 -1.7550
 2255TIP3   OH228255   1.358   6.472  15.785 -0.5049 -0.6786 -0.1629
 2255TIP3    H128256   1.303   6.518  15.722  0.5659  0.6146 -0.2092
 2255TIP3    H228257   1.413   6.540  15.823 -1.0487 -1.4196  2.1346
 2256TIP3   OH228258   4.356   4.967  15.741  0.0820  0.3147 -0.3946
 2256TIP3    H128259   4.398   4.958  15.655 -2.0129 -3.9183 -1.2151
 2256TIP3    H228260   4.263   4.973  15.722 -0.2642  4.1925  1.5716
 2257TIP3   OH228261   4.361   3.501   1.326 -0.1955  0.4290  0.2603
 2257TIP3    H128262   4.294   3.502   1.394 -0.0271 -0.2383  0.4436
 2257TIP3    H228263   4.397   3.413   1.329 -0.9380  0.0399 -1.4365
 2258TIP3   OH228264   6.166   1.435   0.132 -0.2595  0.0355 -0.4414
 2258TIP3    H128265   6.252   1.449   0.172  0.6401  0.0909 -2.2923
 2258TIP3    H228266   6.117   1.515   0.150  1.0465  1.1625 -1.6681
 2259TIP3   OH228267   1.383   2.076   0.540 -0.1489 -0.6861 -0.4713
 2259TIP3    H128268   1.466   2.117   0.566 -0.7114  0.0488  0.2464
 2259TIP3    H228269   1.333   2.148   0.501 -1.0160 -0.7522  0.4683
 2260TIP3   OH228270   4.578   3.134   6.637  0.0931  0.2382 -0.1948
 2260TIP3    H128271   4.509   3.158   6.699 -0.0265 -0.6721  0.0432
 2260TIP3    H228272   4.648   3.197   6.652 -0.6485  1.1282 -0.3801
 2261TIP3   OH228273   6.723   0.549  15.323  0.2392  0.0681  0.6765
 2261TIP3    H128274   6.651   0.496  15.358 -0.0325 -0.3293 -0.4363
 2261TIP3    H228275   6.766   0.491  15.259  1.2324  0.4810  0.9567
 2262TIP3   OH228276   1.444   1.133  17.259  0.2803  0.5221  0.0686
 2262TIP3    H128277   1.536   1.152  17.275  0.0310  1.9990 -0.1576
 2262TIP3    H228278   1.397   1.205  17.299 -0.7338  0.3191 -0.7056
 2263TIP3   OH228279   5.368   4.629  13.421  0.4880  0.1875 -0.4169
 2263TIP3    H128280   5.318   4.707  13.396  0.4845  0.3244  0.0001
 2263TIP3    H228281   5.363   4.628  13.517  0.4162 -0.3743 -0.4238
 2264TIP3   OH228282   4.902   4.187   6.064 -0.1289  0.2886 -0.2603
 2264TIP3    H128283   4.876   4.278   6.077 -0.6912  0.2373 -0.9696
 2264TIP3    H228284   4.985   4.193   6.016 -0.7688  0.4262 -1.3734
 2265TIP3   OH228285   5.784   6.209  12.414 -0.3828  0.1291  0.2456
 2265TIP3    H128286   5.822   6.123  12.431 -1.9110 -0.5656  0.2908
 2265TIP3    H228287   5.845   6.270  12.456  1.6123 -0.7509 -1.1709
 2266TIP3   OH228288   2.355   4.231  13.078 -0.6574  0.2076  0.2396
 2266TIP3    H128289   2.383   4.218  13.169  1.5265  1.1628 -0.2329
 2266TIP3    H228290   2.293   4.303  13.083 -1.9388 -0.9029  1.1458
 2267TIP3   OH228291   2.613   6.488  16.638  0.0423  0.2478  0.7517
 2267TIP3    H128292   2.629   6.394  16.643  0.9486  0.3561  0.1206
 2267TIP3    H228293   2.537   6.496  16.580  1.7036  0.0170 -1.5689
 2268TIP3   OH228294   5.769   0.410  14.422  0.2888  0.3633 -0.3486
 2268TIP3    H128295   5.797   0.388  14.511 -2.1196 -0.6998  0.2155
 2268TIP3    H228296   5.768   0.505  14.419 -0.5717  0.4179  1.1061
 2269TIP3   OH228297   1.300   2.079   1.124 -0.1244 -0.0240 -0.1511
 2269TIP3    H128298   1.294   2.082   1.029  2.8488 -0.4871 -0.4426
 2269TIP3    H228299   1.339   1.994   1.144  0.8122  0.7006  1.3319
 2270TIP3   OH228300   0.573   1.865  16.178  0.1804 -0.3094 -0.3004
 2270TIP3    H128301   0.649   1.923  16.186 -0.5042  1.0308 -2.5561
 2270TIP3    H228302   0.498   1.919  16.202 -0.2186 -1.1856  0.4968
 2271TIP3   OH228303   0.387   5.762   1.480 -0.0142 -1.0165 -0.1898
 2271TIP3    H128304   0.330   5.752   1.404 -0.2745  0.0803 -0.1520
 2271TIP3    H228305   0.462   5.705   1.461  0.9555  0.7849 -2.2853
 2272TIP3   OH228306   6.391   4.160  12.257  0.0932 -0.1551 -0.1829
 2272TIP3    H128307   6.336   4.102  12.309  0.2100  1.1889  1.5377
 2272TIP3    H228308   6.358   4.151  12.167 -2.4052 -0.0226  0.6459
 2273TIP3   OH228309   1.035   3.334   0.686 -0.4646 -0.1528  0.3281
 2273TIP3    H128310   0.972   3.263   0.672 -0.0496 -0.5421  0.4388
 2273TIP3    H228311   1.078   3.346   0.602 -0.5244 -0.0398  0.3130
 2274TIP3   OH228312   4.321   3.276  15.464 -0.1445  0.0726 -0.4785
 2274TIP3    H128313   4.291   3.322  15.386  1.6288  2.0819 -0.0640
 2274TIP3    H228314   4.379   3.338  15.509  0.8027 -1.8651  1.1881
 2275TIP3   OH228315   3.274   2.055   0.264  0.2167 -0.6176  0.7352
 2275TIP3    H128316   3.299   2.010   0.184 -1.3240 -1.3974  0.6446
 2275TIP3    H228317   3.304   1.998   0.335  0.1761 -0.7245  0.6662
 2276TIP3   OH228318   3.918   5.040  14.254  0.6486  0.3657 -0.1785
 2276TIP3    H128319   3.910   4.959  14.204 -1.2893  0.0648  0.5442
 2276TIP3    H228320   3.938   5.013  14.343 -0.1992  0.6542  0.1094
 2277TIP3   OH228321   5.735   5.122   3.940 -0.0793 -0.4390 -0.0902
 2277TIP3    H128322   5.803   5.055   3.936 -1.8400 -2.3753  0.5909
 2277TIP3    H228323   5.747   5.163   4.026  2.0942  1.4776 -1.1753
 2278TIP3   OH228324   4.960   5.425  13.712 -0.0399  0.2665 -0.0861
 2278TIP3    H128325   4.907   5.407  13.790 -0.3806  1.7794  0.0460
 2278TIP3    H228326   4.898   5.458  13.647  0.6320  1.4897 -0.1313
 2279TIP3   OH228327   6.470   4.411   6.066  0.1541 -0.3246 -0.2525
 2279TIP3    H128328   6.380   4.401   6.099 -0.1000  0.5420 -0.6493
 2279TIP3    H228329   6.462   4.399   5.972  0.4509 -0.2339 -0.2892
 2280TIP3   OH228330   6.753   6.758  13.847  0.4689  0.4811  0.1792
 2280TIP3    H128331   6.760   6.736  13.940  0.2603 -1.2671 -0.1724
 2280TIP3    H228332   6.695   6.834  13.844  0.2212  0.3563  1.4714
 2281TIP3   OH228333   2.108   2.861  17.246  0.1572  0.2661 -0.1055
 2281TIP3    H128334   2.070   2.853  17.159  1.2169  0.2336 -0.5836
 2281TIP3    H228335   2.093   2.776  17.287 -1.2760  0.6192  0.1481
 2282TIP3   OH228336   0.046   4.960  13.006  0.5058  0.4537  0.0679
 2282TIP3    H128337  -0.012   4.909  12.949  1.0304  0.4890 -0.5146
 2282TIP3    H228338  -0.013   5.003  13.068  0.0642 -1.0294  0.7258
 2283TIP3   OH228339   4.897   4.111   5.197  0.7650  0.2989  0.0018
 2283TIP3    H128340   4.908   4.186   5.138  0.8814 -0.4827 -0.9877
 2283TIP3    H228341   4.901   4.149   5.284 -1.9423  1.8440 -0.4571
 2284TIP3   OH228342   3.834   6.265  15.865  0.3288  0.5093 -0.2745
 2284TIP3    H128343   3.801   6.291  15.779 -0.3354  0.8286  0.0748
 2284TIP3    H228344   3.921   6.229  15.847  0.7216  1.7460 -0.9177
 2285TIP3   OH228345   4.774   1.350  16.361 -0.1320  0.2145 -0.8972
 2285TIP3    H128346   4.855   1.299  16.359 -0.5079 -0.4251 -3.3373
 2285TIP3    H228347   4.803   1.441  16.370  0.8043 -0.0769 -0.8656
 2286TIP3   OH228348   0.852   0.319   0.947  0.5872  0.1019  0.0579
 2286TIP3    H128349   0.820   0.401   0.909  2.0154  1.1013  0.8936
 2286TIP3    H228350   0.787   0.297   1.014 -0.1343  0.1930 -0.5909
 2287TIP3   OH228351   6.273   6.716   2.286  0.2753 -0.2066 -0.4595
 2287TIP3    H128352   6.185   6.747   2.262  0.3159 -0.6197 -1.1812
 2287TIP3    H228353   6.258   6.662   2.364 -0.4006 -1.7747 -1.6191
 2288TIP3   OH228354   0.894   5.485  13.473  0.3989  0.2062 -0.0771
 2288TIP3    H128355   0.851   5.411  13.431  0.3207 -0.2509  0.7769
 2288TIP3    H228356   0.867   5.561  13.421 -1.3277 -0.0779  0.3186
 2289TIP3   OH228357   4.641   2.872  16.786 -0.0615  0.3344 -0.1869
 2289TIP3    H128358   4.563   2.849  16.835  0.0352 -0.3566 -0.3419
 2289TIP3    H228359   4.685   2.939  16.839  0.6217 -1.1833  1.2285
 2290TIP3   OH228360   4.036   4.793   5.189  0.4089  0.5392 -0.1464
 2290TIP3    H128361   3.952   4.837   5.182  0.9519  1.5836 -0.3083
 2290TIP3    H228362   4.068   4.816   5.277  0.5118  0.1148 -0.0687
 2291TIP3   OH228363   3.302   3.353   3.693  0.5653 -0.2639  0.1506
 2291TIP3    H128364   3.218   3.395   3.674  1.4061  0.5563 -2.0323
 2291TIP3    H228365   3.363   3.390   3.629  2.5063 -1.1906  1.3604
 2292TIP3   OH228366   6.091   1.577   2.901  0.6029  0.1952  0.5092
 2292TIP3    H128367   6.013   1.610   2.857 -0.2896 -1.2757  0.8961
 2292TIP3    H228368   6.103   1.635   2.977  1.0680  1.6103 -0.6038
 2293TIP3   OH228369   2.094   5.856  12.056 -0.1087 -0.1792 -0.0233
 2293TIP3    H128370   2.171   5.830  12.006  1.6912  0.8332  2.0758
 2293TIP3    H228371   2.029   5.878  11.990  1.3948 -1.0281 -1.8678
 2294TIP3   OH228372   5.192   3.647  11.326 -0.2043 -0.3626 -0.1663
 2294TIP3    H128373   5.250   3.593  11.381  0.4580  0.8250  0.3483
 2294TIP3    H228374   5.113   3.658  11.378 -0.9151 -1.9597 -0.8547
 2295TIP3   OH228375   0.152   2.397   1.019  0.0608 -0.4728 -0.0444
 2295TIP3    H128376   0.202   2.479   1.019  1.2349 -1.1641 -0.0528
 2295TIP3    H228377   0.094   2.405   1.094  0.2228  0.3320  0.0098
 2296TIP3   OH228378   5.588   4.662  11.265  0.3554 -0.9148  0.4499
 2296TIP3    H128379   5.613   4.584  11.314 -0.4822 -0.9257  0.8775
 2296TIP3    H228380   5.542   4.717  11.329  2.4989  0.7706  0.6564
 2297TIP3   OH228381   0.680   3.420   2.471  0.0188 -0.5029 -0.1531
 2297TIP3    H128382   0.618   3.355   2.502  0.8697 -0.6363  1.3996
 2297TIP3    H228383   0.663   3.497   2.526  1.9566 -0.9379  1.1675
 2298TIP3   OH228384   1.328   6.121  14.415  0.6554 -0.0773 -0.6259
 2298TIP3    H128385   1.304   6.086  14.329  1.9543  0.1479 -1.0909
 2298TIP3    H228386   1.332   6.044  14.472  1.0775 -0.3949 -1.0736
 2299TIP3   OH228387   2.725   0.890   2.855  0.4082  0.7227 -0.0641
 2299TIP3    H128388   2.748   0.908   2.764  0.5604  1.1551  0.0542
 2299TIP3    H228389   2.646   0.942   2.871 -0.7594 -0.8410 -0.4995
 2300TIP3   OH228390   2.408   5.514  13.353  0.2620  0.2501  0.0112
 2300TIP3    H128391   2.336   5.493  13.294 -0.2929 -0.1211  0.7947
 2300TIP3    H228392   2.382   5.595  13.395 -0.4209 -0.6298  1.3721
 2301TIP3   OH228393   1.757   3.115   2.044  0.5800  0.3659 -0.6776
 2301TIP3    H128394   1.712   3.081   1.967  1.6513  0.5487 -1.4048
 2301TIP3    H228395   1.850   3.102   2.025  0.8461 -0.6320  1.0772
 2302TIP3   OH228396   0.203   1.604   2.012  0.2162  0.1820 -0.8250
 2302TIP3    H128397   0.257   1.680   1.989  0.8738  0.3698  1.1750
 2302TIP3    H228398   0.116   1.640   2.028  0.5397  0.5553  0.1756
 2303TIP3   OH228399   4.281   5.181  15.208  0.0859  0.1004 -0.5504
 2303TIP3    H128400   4.296   5.231  15.288 -2.3366 -0.9227  0.6477
 2303TIP3    H228401   4.299   5.243  15.137 -1.8805  2.4392  0.8329
 2304TIP3   OH228402   0.092   0.702  16.010 -0.0852 -0.1071 -0.0125
 2304TIP3    H128403  -0.000   0.709  16.034  0.0638  1.2625  0.2808
 2304TIP3    H228404   0.137   0.683  16.092 -0.0534 -0.3140 -0.0764
 2305TIP3   OH228405   6.735   1.538  11.036 -0.0566  0.4686 -0.0277
 2305TIP3    H128406   6.668   1.567  10.974  0.1625 -2.5186 -1.8793
 2305TIP3    H228407   6.701   1.456  11.072  1.9671 -0.4035  0.0344
 2306TIP3   OH228408   3.644   4.157  16.497  0.6038  0.0930  0.4827
 2306TIP3    H128409   3.722   4.192  16.540  0.1163  1.1500  0.5272
 2306TIP3    H228410   3.630   4.072  16.539  1.7293 -0.1162  0.4672
 2307TIP3   OH228411   4.276   2.506  11.947 -0.4628  0.0086 -0.1212
 2307TIP3    H128412   4.279   2.600  11.931  1.0839 -0.4025 -2.9235
 2307TIP3    H228413   4.187   2.480  11.921 -0.7127  0.6324  0.1173
 2308TIP3   OH228414   1.764   6.804   5.221 -0.5689 -0.4136 -0.2162
 2308TIP3    H128415   1.681   6.851   5.211  0.1448  0.9807  0.2120
 2308TIP3    H228416   1.780   6.805   5.315  0.7466  0.7955 -0.4335
 2309TIP3   OH228417   6.301   2.769   4.412  0.2329  0.3415 -0.0915
 2309TIP3    H128418   6.283   2.725   4.329 -0.1773 -1.3147  0.8340
 2309TIP3    H228419   6.238   2.842   4.414 -1.3141 -0.9249 -0.2667
 2310TIP3   OH228420   5.256   3.474  10.849  0.4091 -0.0159  0.3011
 2310TIP3    H128421   5.172   3.428  10.840  0.2311  0.4180 -0.3242
 2310TIP3    H228422   5.309   3.416  10.904 -0.5919  0.1011  1.4454
 2311TIP3   OH228423   2.338   5.170   2.801  0.2707  0.3536  0.1912
 2311TIP3    H128424   2.349   5.233   2.730 -0.6750 -0.1704 -0.4365
 2311TIP3    H228425   2.355   5.220   2.881 -2.2617  1.9278 -0.1487
 2312TIP3   OH228426   2.335   1.120   0.469 -0.0417  0.4340 -0.0897
 2312TIP3    H128427   2.312   1.058   0.538 -1.7750  0.6411 -0.4457
 2312TIP3    H228428   2.297   1.203   0.497  0.8876  0.9696 -0.3858
 2313TIP3   OH228429   3.764   5.702   3.536  0.1426  0.2534  0.6546
 2313TIP3    H128430   3.722   5.619   3.511 -1.2250  0.8642  0.8546
 2313TIP3    H228431   3.736   5.717   3.626  1.0529  0.5391  0.9007
 2314TIP3   OH228432   3.762   1.855   5.245  0.6857 -0.2480  0.1983
 2314TIP3    H128433   3.762   1.941   5.288 -0.8490  0.5870 -1.3025
 2314TIP3    H228434   3.738   1.793   5.314 -2.2059  1.0925  0.5504
 2315TIP3   OH228435   4.605   2.540   3.718 -0.0896  0.1625  0.5133
 2315TIP3    H128436   4.593   2.456   3.762  0.7708 -0.4182 -0.3167
 2315TIP3    H228437   4.564   2.529   3.632  0.4721  0.4091  0.2048
 2316TIP3   OH228438   0.545   5.423  15.336  0.1949  0.2007 -0.0277
 2316TIP3    H128439   0.532   5.358  15.266  0.3260 -1.2066  1.2028
 2316TIP3    H228440   0.639   5.420  15.354  0.0982  0.2230  0.5015
 2317TIP3   OH228441   0.043   5.160   2.645  0.1913  0.3801  0.1011
 2317TIP3    H128442   0.112   5.208   2.599  1.2662 -0.3324  0.9140
 2317TIP3    H228443   0.002   5.106   2.577  0.0262  1.2538 -0.5039
 2318TIP3   OH228444   6.010   2.187   5.338 -0.2628  0.0831 -0.1596
 2318TIP3    H128445   6.064   2.153   5.267  1.1616  1.6189  0.0963
 2318TIP3    H228446   5.922   2.191   5.302  0.2190 -0.2862 -1.4405
 2319TIP3   OH228447   4.674   4.383  14.650  0.6786  0.7264  0.2769
 2319TIP3    H128448   4.702   4.459  14.702  2.7195  0.7079 -0.6964
 2319TIP3    H228449   4.693   4.308  14.705  1.4077  0.7892  0.1240
 2320TIP3   OH228450   0.522   2.181  15.365 -0.5537 -0.2319  0.4726
 2320TIP3    H128451   0.578   2.256  15.384 -0.6053  0.1431 -0.7352
 2320TIP3    H228452   0.565   2.107  15.408 -0.5032  0.4725  1.6831
 2321TIP3   OH228453   1.437   1.021   1.689 -0.6753  0.3499 -0.5384
 2321TIP3    H128454   1.523   1.063   1.684 -0.1689 -0.7466 -1.4007
 2321TIP3    H228455   1.392   1.066   1.761  1.4689 -0.5922  1.5241
 2322TIP3   OH228456   5.861   5.545  13.243  0.0027  0.1078  0.2720
 2322TIP3    H128457   5.891   5.636  13.247  0.8349 -0.1688  0.5946
 2322TIP3    H228458   5.797   5.544  13.173 -1.4275  1.3439  1.4957
 2323TIP3   OH228459   0.435   4.810   2.894  0.3055  0.1731 -0.3947
 2323TIP3    H128460   0.530   4.823   2.885  0.3910 -0.0838  0.1213
 2323TIP3    H228461   0.404   4.797   2.804  0.9231 -0.8537 -0.4684
 2324TIP3   OH228462   3.936   1.265  14.749  0.1219  0.5509 -0.5518
 2324TIP3    H128463   3.961   1.353  14.779 -0.5874  0.4245  0.4479
 2324TIP3    H228464   3.917   1.276  14.656  1.2738  1.1903 -0.7323
 2325TIP3   OH228465   4.426   3.238  11.030 -0.7493 -0.4679 -0.1571
 2325TIP3    H128466   4.483   3.210  10.959 -1.2635  0.5659 -0.9973
 2325TIP3    H228467   4.435   3.169  11.096  0.3321 -1.0525 -0.8825
 2326TIP3   OH228468   5.217   6.645  11.206 -0.2161  0.0754 -0.6677
 2326TIP3    H128469   5.235   6.595  11.286 -0.6536 -0.5916 -0.9755
 2326TIP3    H228470   5.200   6.578  11.140  0.4810  0.6123 -1.4047
 2327TIP3   OH228471   2.610   4.828  15.026 -0.4445  0.3563 -0.0971
 2327TIP3    H128472   2.625   4.785  14.941  1.5629 -0.0226  0.4076
 2327TIP3    H228473   2.630   4.920  15.009 -1.5689  0.5614 -0.3874
 2328TIP3   OH228474   5.404   3.757  15.066  0.2154  0.0478 -0.0401
 2328TIP3    H128475   5.358   3.683  15.106  1.1648 -0.1408  0.7553
 2328TIP3    H228476   5.405   3.737  14.973 -1.6663  0.2691 -0.1537
 2329TIP3   OH228477   6.408   2.952   1.946  0.5647 -0.1860  0.4633
 2329TIP3    H128478   6.376   2.964   2.036  1.6417  1.0631  0.7193
 2329TIP3    H228479   6.330   2.932   1.895 -0.1789 -0.1442  1.5570
 2330TIP3   OH228480   2.817   4.031   4.016 -0.1627 -0.4183  0.9248
 2330TIP3    H128481   2.748   4.069   4.071 -0.3692 -1.2654  1.2566
 2330TIP3    H228482   2.848   3.955   4.064  0.0712 -0.8285  0.1453
 2331TIP3   OH228483   3.591   6.429  16.895  0.9107 -0.0991  0.3777
 2331TIP3    H128484   3.661   6.392  16.948  1.0591  0.1203  0.3403
 2331TIP3    H228485   3.636   6.492  16.838  0.8058 -0.5922 -0.2563
 2332TIP3   OH228486   6.382   2.362   2.246 -0.5470  0.0685 -0.1892
 2332TIP3    H128487   6.381   2.387   2.153 -0.4246  0.4235 -0.0944
 2332TIP3    H228488   6.452   2.297   2.253 -2.1221 -1.8133 -0.8272
 2333TIP3   OH228489   0.887   4.266   0.682 -0.1891  0.3925  0.2935
 2333TIP3    H128490   0.795   4.239   0.692  0.1827 -1.5332 -0.7967
 2333TIP3    H228491   0.886   4.327   0.609 -0.8994  2.5115  1.9838
 2334TIP3   OH228492   3.148   2.013   4.356 -0.3951  0.0741 -0.5320
 2334TIP3    H128493   3.126   1.924   4.385  0.7208  0.3502  1.3325
 2334TIP3    H228494   3.124   2.069   4.430 -0.0131  1.1848 -1.2319
 2335TIP3   OH228495   2.393   0.160  15.719  0.0639  0.2145 -0.5496
 2335TIP3    H128496   2.381   0.255  15.713 -1.1512  0.1737  0.8131
 2335TIP3    H228497   2.306   0.124  15.699  0.4506 -0.6174 -0.7844
 2336TIP3   OH228498   3.100   4.996  16.426  0.2604  0.2944  0.3888
 2336TIP3    H128499   3.046   4.922  16.455  0.1327  0.0594 -0.4262
 2336TIP3    H228500   3.094   4.994  16.331  1.1016  0.7299  0.3176
 2337TIP3   OH228501   4.158   3.411   6.560 -0.4820  0.0955  0.1245
 2337TIP3    H128502   4.066   3.395   6.536 -1.0171  1.5601  1.1075
 2337TIP3    H228503   4.178   3.495   6.520  0.3239 -0.0269  0.2702
 2338TIP3   OH228504   6.672   4.586   1.611 -0.0120 -0.1888 -0.6940
 2338TIP3    H128505   6.681   4.625   1.523  2.7899 -2.1013 -1.3957
 2338TIP3    H228506   6.639   4.498   1.594 -0.1117 -0.3354  0.2571
 2339TIP3   OH228507   5.594   3.891  17.103 -0.2417 -0.5161  0.2401
 2339TIP3    H128508   5.555   3.853  17.182  0.2990 -0.7135  0.4185
 2339TIP3    H228509   5.535   3.865  17.032 -1.2601  0.4787  0.6990
 2340TIP3   OH228510   5.779   3.374  10.669 -0.0492 -0.2223  0.2989
 2340TIP3    H128511   5.848   3.318  10.635  0.4221  0.8495 -0.5874
 2340TIP3    H228512   5.819   3.420  10.743  0.3132  0.6181 -0.3971
 2341TIP3   OH228513   1.642   2.710  17.062 -0.4994 -0.6935 -0.3019
 2341TIP3    H128514   1.722   2.734  17.016 -1.6650  0.2819 -1.8959
 2341TIP3    H228515   1.622   2.786  17.116 -1.6387  0.0897 -1.7689
 2342TIP3   OH228516   0.562   5.373  11.204  0.2939  0.1828 -0.5745
 2342TIP3    H128517   0.494   5.358  11.139 -2.0143  1.5712  1.3613
 2342TIP3    H228518   0.606   5.453  11.176 -0.1011  0.2885 -0.8982
 2343TIP3   OH228519   3.855   0.928   4.218 -0.0077 -0.3059  0.3593
 2343TIP3    H128520   3.845   1.022   4.230  0.1645 -0.1352 -0.6824
 2343TIP3    H228521   3.769   0.900   4.185  0.9570  0.1498 -2.8812
 2344TIP3   OH228522   2.625   1.132   4.333  0.2871 -0.1651  0.1107
 2344TIP3    H128523   2.602   1.109   4.243 -0.2108 -1.0915  0.4566
 2344TIP3    H228524   2.718   1.154   4.330  0.9067 -2.5320 -0.2449
 2345TIP3   OH228525   4.296   3.847   3.922  0.3482 -0.1669 -0.5067
 2345TIP3    H128526   4.240   3.889   3.988 -0.7123  1.2973 -2.2286
 2345TIP3    H228527   4.264   3.757   3.917 -1.6208  0.5139 -1.1243
 2346TIP3   OH228528   4.687   4.835   1.302 -0.0440 -0.1726 -0.0875
 2346TIP3    H128529   4.640   4.765   1.348 -1.0511 -0.9274 -2.1254
 2346TIP3    H228530   4.693   4.804   1.211  1.0302  1.6340 -0.6773
 2347TIP3   OH228531   5.715   2.344  13.887 -0.1601  0.1522 -0.5190
 2347TIP3    H128532   5.765   2.389  13.819  0.3132  1.2278  0.5046
 2347TIP3    H228533   5.782   2.314  13.949 -0.5728 -0.9418 -0.5903
 2348TIP3   OH228534   2.101   3.792  16.224  0.0545  0.5441 -0.0573
 2348TIP3    H128535   2.029   3.802  16.287 -0.1307 -1.8651  0.2171
 2348TIP3    H228536   2.062   3.817  16.140 -1.7372 -2.2253 -0.1999
 2349TIP3   OH228537   5.181   4.425  11.867 -0.3310 -0.2515 -0.1610
 2349TIP3    H128538   5.093   4.393  11.883  0.3389 -0.5772  3.7309
 2349TIP3    H228539   5.238   4.358  11.903  1.5831  0.0273 -2.4185
 2350TIP3   OH228540   4.223   6.413   0.001 -0.1864  0.4298 -0.3500
 2350TIP3    H128541   4.286   6.417   0.073 -1.1150 -1.1830  0.6110
 2350TIP3    H228542   4.140   6.441   0.039 -0.2708  1.6899 -1.3821
 2351TIP3   OH228543   3.362   2.886  11.810 -0.0147  0.1563  0.2748
 2351TIP3    H128544   3.302   2.924  11.874 -0.2614  0.4003 -0.0954
 2351TIP3    H228545   3.432   2.950  11.801 -0.3567  0.4619 -0.2418
 2352TIP3   OH228546   2.601   3.381  14.556  0.7105  0.2302  0.1873
 2352TIP3    H128547   2.510   3.365  14.532  0.8601 -0.1095 -0.1785
 2352TIP3    H228548   2.651   3.356  14.478  0.9474  3.1289 -0.7102
 2353TIP3   OH228549   1.292   5.333   4.127 -0.3667 -0.4904 -0.0486
 2353TIP3    H128550   1.316   5.241   4.138  0.3194 -0.2453  0.6065
 2353TIP3    H228551   1.245   5.336   4.044  0.0970 -1.3436 -0.3536
 2354TIP3   OH228552   5.953   6.787  13.585  0.4734 -0.3273  0.0910
 2354TIP3    H128553   6.020   6.724  13.613  0.0070 -0.9324 -0.1317
 2354TIP3    H228554   5.910   6.745  13.511  0.3849  0.4137 -0.2828
 2355TIP3   OH228555   3.255   4.591  11.087 -0.6249 -0.3709 -0.1510
 2355TIP3    H128556   3.174   4.548  11.061 -1.9574  2.2881 -0.7696
 2355TIP3    H228557   3.313   4.581  11.013 -1.4218  0.0620 -0.8533
 2356TIP3   OH228558   4.418   5.156   6.296 -0.6723 -0.5863  0.7163
 2356TIP3    H128559   4.348   5.127   6.355 -1.0578 -0.0083  0.5451
 2356TIP3    H228560   4.401   5.249   6.281 -0.0401 -0.5067  0.4293
 2357TIP3   OH228561   3.947   2.319   6.185 -0.0595  0.0684 -0.1671
 2357TIP3    H128562   3.853   2.321   6.172 -0.0893 -0.0766  0.0199
 2357TIP3    H228563   3.977   2.243   6.135  0.0699  0.6085 -0.9254
 2358TIP3   OH228564   5.602   3.110  13.616  0.4832  0.5811  0.0422
 2358TIP3    H128565   5.546   3.149  13.549  0.6323  1.1389  0.2388
 2358TIP3    H228566   5.675   3.073  13.566 -0.6623 -1.2859 -0.3368
 2359TIP3   OH228567   2.097   4.410  16.483 -0.2197 -0.1638  0.7051
 2359TIP3    H128568   2.049   4.410  16.401 -1.3365  0.0716  1.3360
 2359TIP3    H228569   2.116   4.502  16.500 -0.1115 -0.1994  0.7780
 2360TIP3   OH228570   5.118   0.904  13.831  0.5066 -0.0519 -0.1256
 2360TIP3    H128571   5.185   0.927  13.767 -0.9756  0.0394 -1.7202
 2360TIP3    H228572   5.058   0.845  13.784 -2.0107  1.9581  0.3074
 2361TIP3   OH228573   3.783   0.770  14.644 -0.0374 -0.2684  0.7583
 2361TIP3    H128574   3.725   0.763  14.568 -2.7767 -0.5457  2.7259
 2361TIP3    H228575   3.814   0.680  14.658  1.0415 -0.1043 -0.3583
 2362TIP3   OH228576   3.354   5.745  12.766 -0.2929 -0.2254 -0.4042
 2362TIP3    H128577   3.368   5.663  12.813 -3.2326  0.3522  1.7307
 2362TIP3    H228578   3.308   5.720  12.686  0.0790 -0.7827 -0.4414
 2363TIP3   OH228579   6.700   2.892   1.548  0.3579  0.2509 -0.7606
 2363TIP3    H128580   6.675   2.924   1.635 -1.6313  1.3596 -1.6753
 2363TIP3    H228581   6.767   2.954   1.518  1.0535 -0.1367 -0.0578
 2364TIP3   OH228582   4.870   5.037  12.727  0.1754  0.4898  0.1864
 2364TIP3    H128583   4.803   5.015  12.791  1.2840  0.8021  1.5157
 2364TIP3    H228584   4.881   5.132  12.736  1.5676  0.2941  0.8249
 2365TIP3   OH228585   6.768   6.531   1.046  0.7083 -0.3641 -0.1321
 2365TIP3    H128586   6.713   6.545   1.123 -1.1789  0.3750 -1.5365
 2365TIP3    H228587   6.804   6.443   1.057 -0.9536 -0.9632  0.7449
 2366TIP3   OH228588   3.306   2.893   2.491  0.0552  0.0736 -0.1440
 2366TIP3    H128589   3.273   2.818   2.540  1.5550 -0.0958  0.6782
 2366TIP3    H228590   3.228   2.940   2.463 -0.8883 -1.3399  0.0419
 2367TIP3   OH228591   3.038   1.229   2.529 -0.0890 -0.3752 -0.8563
 2367TIP3    H128592   3.001   1.224   2.440 -0.3834  1.4704 -0.8859
 2367TIP3    H228593   3.119   1.279   2.518  0.1284 -0.5661 -0.1578
 2368TIP3   OH228594   3.639   1.397   1.798  0.4252 -0.1121  0.0175
 2368TIP3    H128595   3.702   1.379   1.868 -1.0782  1.1164  1.7587
 2368TIP3    H228596   3.694   1.424   1.724  2.0023 -0.3051  1.0551
 2369TIP3   OH228597   2.929   3.067  13.947  0.1778  0.4629 -0.2386
 2369TIP3    H128598   2.934   3.143  13.889 -0.6537  0.3611 -0.4666
 2369TIP3    H228599   2.835   3.056  13.964  0.3802  0.2718  0.8400
 2370TIP3   OH228600   0.888   2.647   0.397 -0.1315 -0.0931  0.4168
 2370TIP3    H128601   0.868   2.597   0.476  0.5885 -1.1755 -0.0470
 2370TIP3    H228602   0.959   2.597   0.355 -0.3417  0.5804 -0.7880
 2371TIP3   OH228603   3.961   6.102  14.358  0.1049 -0.0179  0.1640
 2371TIP3    H128604   3.890   6.142  14.308 -1.8343 -0.6867  2.2061
 2371TIP3    H228605   4.038   6.154  14.336 -1.4454  2.1679 -0.4678
 2372TIP3   OH228606   5.255   0.939   0.332 -0.4051  0.1506  0.2544
 2372TIP3    H128607   5.331   0.996   0.344  0.1396 -0.6935  0.9304
 2372TIP3    H228608   5.226   0.918   0.420 -0.1454 -1.1837  0.0488
 2373TIP3   OH228609   5.368   6.786   0.836  0.3664  0.2522 -0.5184
 2373TIP3    H128610   5.363   6.814   0.928 -1.1772  0.2629 -0.5774
 2373TIP3    H228611   5.407   6.861   0.791  1.2951  0.1842  0.1395
 2374TIP3   OH228612   4.103   2.003  12.747 -0.0256 -0.1461  0.1472
 2374TIP3    H128613   4.196   2.024  12.746 -0.3848  1.5829  0.6569
 2374TIP3    H228614   4.077   2.014  12.839  0.0142 -4.4173  0.9157
 2375TIP3   OH228615   3.616   0.049   0.796 -0.1773  0.5115 -0.1865
 2375TIP3    H128616   3.645  -0.041   0.787  0.6549  0.6902  0.5568
 2375TIP3    H228617   3.681   0.100   0.748  1.3599  0.9952  2.2004
 2376TIP3   OH228618   0.617   3.687  10.785 -0.0297 -0.6843 -0.1507
 2376TIP3    H128619   0.690   3.725  10.832  0.9340 -1.1559 -1.2311
 2376TIP3    H228620   0.620   3.727  10.698  0.3883 -2.4049 -0.9706
 2377TIP3   OH228621   3.946   1.407  12.572 -0.6156  0.1390 -0.7427
 2377TIP3    H128622   4.001   1.484  12.558 -0.3073  0.1240  0.2678
 2377TIP3    H228623   3.881   1.411  12.502 -1.1127  1.7768 -0.2321
 2378TIP3   OH228624   3.941   2.174  14.699 -0.2375  0.1606  0.1380
 2378TIP3    H128625   3.912   2.254  14.655 -2.4062 -1.1908 -1.1109
 2378TIP3    H228626   4.034   2.168  14.680 -0.2530  1.8113 -0.6475
 2379TIP3   OH228627   3.283   0.762   1.154  0.1419 -0.2994 -0.0850
 2379TIP3    H128628   3.253   0.842   1.198 -0.5143  0.6496 -2.1238
 2379TIP3    H228629   3.317   0.793   1.070 -0.4709 -2.1839 -1.0850
 2380TIP3   OH228630   4.953   1.183   2.256 -0.2157  0.0749  0.4272
 2380TIP3    H128631   4.926   1.171   2.347 -0.1562 -0.4522  0.3776
 2380TIP3    H228632   4.923   1.103   2.212  0.2592  0.0719  0.1047
 2381TIP3   OH228633   1.588   2.093   2.370  1.3212  0.1624  0.3729
 2381TIP3    H128634   1.528   2.094   2.295  2.5376 -0.3875 -0.6514
 2381TIP3    H228635   1.534   2.063   2.443  1.1525 -4.6084 -1.3208
 2382TIP3   OH228636   6.564   6.392  14.355  0.1325  0.5211 -0.3610
 2382TIP3    H128637   6.497   6.458  14.340 -0.7938 -0.4678 -0.7362
 2382TIP3    H228638   6.517   6.319  14.395  1.3006  0.4430  0.9872
 2383TIP3   OH228639   2.571   1.814   3.652  0.2232 -0.1335 -0.2491
 2383TIP3    H128640   2.607   1.903   3.651 -0.4102  0.1229 -0.4064
 2383TIP3    H228641   2.484   1.823   3.690  0.1773 -0.7002 -0.2040
 2384TIP3   OH228642   4.137   6.205  11.620  0.3317  0.1601  0.5605
 2384TIP3    H128643   4.100   6.150  11.551 -0.9918  0.8715  0.6715
 2384TIP3    H228644   4.112   6.294  11.595 -1.8004  0.3134  2.8595
 2385TIP3   OH228645   4.725   5.830   2.073  0.2292 -0.1186 -0.0848
 2385TIP3    H128646   4.674   5.910   2.071 -0.6379 -0.5724  1.8949
 2385TIP3    H228647   4.699   5.783   1.994  0.9400  1.6021 -1.4198
 2386TIP3   OH228648   5.320   0.379  14.903 -0.3040  0.2814  0.2110
 2386TIP3    H128649   5.276   0.459  14.874 -0.0389  0.4940  0.3829
 2386TIP3    H228650   5.413   0.399  14.895 -0.2251 -0.6421 -1.4369
 2387TIP3   OH228651   0.835   5.393   2.283 -0.2212 -0.3709 -0.0604
 2387TIP3    H128652   0.776   5.438   2.223 -1.2292 -2.6207 -0.8606
 2387TIP3    H228653   0.889   5.463   2.321 -1.9146  1.4967 -0.9364
 2388TIP3   OH228654   1.038   5.505  16.881  0.2046  0.3121  0.0362
 2388TIP3    H128655   1.105   5.476  16.819 -0.1326 -3.2517  1.1171
 2388TIP3    H228656   1.083   5.506  16.966 -0.5561  0.0983  0.4509
 2389TIP3   OH228657   0.265   4.235  12.464  0.4860 -0.0609 -0.5141
 2389TIP3    H128658   0.203   4.264  12.398 -0.1118 -0.9900 -0.3825
 2389TIP3    H228659   0.345   4.216  12.414 -0.4504 -2.3652 -1.3066
 2390TIP3   OH228660   2.026   3.578  11.170  0.4568  0.7178  0.2366
 2390TIP3    H128661   1.967   3.565  11.245 -0.2479  1.5194 -0.1660
 2390TIP3    H228662   2.044   3.489  11.139 -0.9090  0.4589  0.0890
 2391TIP3   OH228663   0.220   0.212  11.272  0.0704  0.2099  0.4662
 2391TIP3    H128664   0.149   0.268  11.303  1.3838  1.9907  0.4395
 2391TIP3    H228665   0.296   0.238  11.325  1.1313 -0.2981 -0.7432
 2392TIP3   OH228666   1.197   5.885  13.879  0.0614  0.0268 -0.1056
 2392TIP3    H128667   1.244   5.802  13.868  1.0657  0.2315  2.2286
 2392TIP3    H228668   1.130   5.866  13.944  0.9774  1.2668  1.2449
 2393TIP3   OH228669   2.634   4.087  15.272 -0.0357 -0.0373  0.1134
 2393TIP3    H128670   2.573   4.070  15.200  2.7334 -1.3420 -2.1039
 2393TIP3    H228671   2.633   4.007  15.324  0.9370 -0.7130 -0.8734
 2394TIP3   OH228672   4.813   4.119   1.886  0.4708  0.0974 -0.0941
 2394TIP3    H128673   4.897   4.073   1.890  0.1380 -0.5161 -0.0318
 2394TIP3    H228674   4.812   4.176   1.963  0.8159  0.0902 -0.0839
 2395TIP3   OH228675   5.739   5.046  11.200  0.0216 -0.3840  0.9701
 2395TIP3    H128676   5.645   5.060  11.192 -0.1723 -1.0016  2.0562
 2395TIP3    H228677   5.758   5.060  11.293  1.4532  2.3256  0.3708
 2396TIP3   OH228678   4.748   3.056   4.402  0.7417  0.2042 -0.0896
 2396TIP3    H128679   4.777   3.032   4.490 -2.5340  1.4179  1.4846
 2396TIP3    H228680   4.725   2.973   4.360 -0.5543 -0.2225  1.3891
 2397TIP3   OH228681   6.297   3.531  12.527 -0.0591  0.2980 -0.3823
 2397TIP3    H128682   6.290   3.445  12.485  0.5991 -0.0979  0.3001
 2397TIP3    H228683   6.358   3.517  12.599 -1.0856  0.9873  0.6490
 2398TIP3   OH228684   1.283   1.596   4.128  0.3743  0.1995  0.0131
 2398TIP3    H128685   1.227   1.536   4.177  0.2379 -0.6228 -1.1140
 2398TIP3    H228686   1.242   1.602   4.042  1.3925  0.4910 -0.4644
 2399TIP3   OH228687   5.657   2.546  12.495  0.3268 -0.5686 -0.5948
 2399TIP3    H128688   5.731   2.518  12.549 -0.5338  1.1094  1.5581
 2399TIP3    H228689   5.614   2.464  12.470  1.5851 -1.4561  0.0104
 2400TIP3   OH228690   6.796   3.751   3.368  0.6378 -0.8294 -0.1019
 2400TIP3    H128691   6.764   3.684   3.429 -0.9071 -0.8040 -0.8396
 2400TIP3    H228692   6.725   3.761   3.304  1.4520  0.4674 -0.8431
 2401TIP3   OH228693   5.134   2.878   3.469  0.0652 -0.0051 -0.1050
 2401TIP3    H128694   5.151   2.968   3.497  1.6638 -1.1916  3.2250
 2401TIP3    H228695   5.078   2.841   3.537 -0.6174 -1.5626 -1.4327
 2402TIP3   OH228696   1.810   0.572  13.408 -0.1765  0.4179  0.0824
 2402TIP3    H128697   1.787   0.650  13.357  0.3810  0.2786 -0.3983
 2402TIP3    H228698   1.790   0.595  13.498  0.4241  1.2871  0.0016
 2403TIP3   OH228699   0.158   6.559  10.903  0.0618 -0.1101 -0.0338
 2403TIP3    H128700   0.212   6.492  10.861 -1.5270 -1.6296  0.2748
 2403TIP3    H228701   0.168   6.636  10.847  1.6641 -0.6775 -0.5748
 2404TIP3   OH228702   5.438   2.341   3.011 -0.2030 -0.0477  0.5032
 2404TIP3    H128703   5.434   2.260   2.961 -0.9755 -0.9288  1.9149
 2404TIP3    H228704   5.362   2.391   2.983  0.0801  0.0501 -0.1136
 2405TIP3   OH228705   2.501   1.334  12.051  0.2357 -0.1841 -0.7485
 2405TIP3    H128706   2.566   1.360  11.986  0.4975 -0.7587 -0.7229
 2405TIP3    H228707   2.547   1.271  12.107 -0.6372 -1.4050 -1.3589
 2406TIP3   OH228708   2.722   0.703   5.481  0.1863 -0.1469  0.1626
 2406TIP3    H128709   2.749   0.634   5.541  1.7974 -0.7393 -1.1563
 2406TIP3    H228710   2.801   0.757   5.469 -0.6253  1.0555  0.0273
 2407TIP3   OH228711   2.735   5.684   2.462 -0.0172 -0.4238  0.2172
 2407TIP3    H128712   2.712   5.596   2.491  0.7827 -0.6275  0.2377
 2407TIP3    H228713   2.795   5.671   2.389 -0.6333  0.1012 -0.4010
 2408TIP3   OH228714   0.020   1.419   4.964 -0.1574  0.0460 -0.3302
 2408TIP3    H128715   0.052   1.425   5.054  1.0368  0.7026 -0.7696
 2408TIP3    H228716   0.052   1.334   4.932 -1.2068 -0.5214  0.0723
 2409TIP3   OH228717   5.812   3.650  12.925 -0.0161  0.2113 -0.3198
 2409TIP3    H128718   5.757   3.639  13.003 -1.1047 -0.8470 -1.1922
 2409TIP3    H228719   5.831   3.561  12.897 -1.8067  0.4768 -2.6972
 2410TIP3   OH228720   3.796   5.412  12.958 -0.1455 -0.0383 -0.0776
 2410TIP3    H128721   3.716   5.405  13.009 -0.5544  0.7239 -0.5841
 2410TIP3    H228722   3.829   5.323  12.951  0.2594 -0.0990  1.9990
 2411TIP3   OH228723   1.162   1.857   6.506 -0.1512 -0.4999 -0.2123
 2411TIP3    H128724   1.207   1.937   6.533 -0.0121 -0.7780  0.3861
 2411TIP3    H228725   1.069   1.877   6.517 -0.0993 -0.5897  0.4314
 2412TIP3   OH228726   5.262   4.148  17.212  0.5230 -0.8023  0.0262
 2412TIP3    H128727   5.193   4.193  17.261  1.0554 -0.2346  0.2473
 2412TIP3    H228728   5.318   4.109  17.279 -0.0868 -2.0584 -0.1560
 2413TIP3   OH228729   5.863   4.002  12.165  0.2351 -0.0884 -0.0446
 2413TIP3    H128730   5.933   3.945  12.196  0.9447  0.5765 -0.3753
 2413TIP3    H228731   5.783   3.964  12.201  0.8156 -0.5634  0.7849
 2414TIP3   OH228732   6.411   1.599  16.288 -0.3314  0.1645 -0.2768
 2414TIP3    H128733   6.351   1.668  16.315  1.7680  0.6317  3.8681
 2414TIP3    H228734   6.357   1.520  16.286 -1.9140  1.2088 -1.1120
 2415TIP3   OH228735   3.220   0.509   3.778  0.6537  0.4645 -0.2689
 2415TIP3    H128736   3.239   0.470   3.693  0.1760  0.2086 -0.2551
 2415TIP3    H228737   3.295   0.484   3.832  1.0626  0.8011 -0.6645
 2416TIP3   OH228738   6.392   2.513   1.987  0.2931 -0.2258 -0.2179
 2416TIP3    H128739   6.298   2.527   1.975  0.0304  0.3831  2.1164
 2416TIP3    H228740   6.417   2.455   1.915 -2.2196 -1.8123  0.0500
 2417TIP3   OH228741   0.813   1.413  16.441 -0.3698  0.1554  0.5984
 2417TIP3    H128742   0.820   1.433  16.534  0.5956  0.3166  0.5016
 2417TIP3    H228743   0.720   1.393  16.428 -1.0903  2.7268  1.0699
 2418TIP3   OH228744   1.340   0.960   4.158  0.2200 -0.1300  0.2879
 2418TIP3    H128745   1.408   0.922   4.214  1.1780  0.0748 -0.7112
 2418TIP3    H228746   1.361   1.053   4.153 -0.9735  0.2150  1.1105
 2419TIP3   OH228747   5.900   5.822  14.493  0.3320  0.4338 -0.2429
 2419TIP3    H128748   5.963   5.786  14.555 -1.2624 -2.3695 -0.0680
 2419TIP3    H228749   5.832   5.861  14.548 -1.0669 -2.0258 -0.0940
 2420TIP3   OH228750   2.660   2.402  15.885  0.2369  0.0012 -0.7359
 2420TIP3    H128751   2.660   2.455  15.805  1.8067  0.6412 -0.3446
 2420TIP3    H228752   2.580   2.350  15.878  0.4277 -0.1255 -2.8275
 2421TIP3   OH228753   2.018   5.374  11.064  0.3237  0.1034 -0.8548
 2421TIP3    H128754   1.960   5.431  11.115  0.1189  0.6174 -1.6495
 2421TIP3    H228755   2.090   5.431  11.037  0.2845 -0.0884 -1.3764
 2422TIP3   OH228756   6.566   3.990   2.313  0.6152  0.2334  0.6972
 2422TIP3    H128757   6.527   4.057   2.257  0.4330  0.7614  1.4308
 2422TIP3    H228758   6.563   3.910   2.261 -1.2736  0.2923  0.6370
 2423TIP3   OH228759   0.505   6.051  12.400  0.9407 -1.0389 -0.3836
 2423TIP3    H128760   0.593   6.026  12.428  0.0879 -0.1340  3.7786
 2423TIP3    H228761   0.518   6.126  12.342  2.8892 -1.0952 -0.0771
 2424TIP3   OH228762   0.013   3.248  13.123  0.4530 -0.6490  0.3139
 2424TIP3    H128763   0.057   3.221  13.204  1.7280  0.5767  0.0670
 2424TIP3    H228764  -0.028   3.168  13.091  2.5307 -1.8971  0.5610
 2425TIP3   OH228765   3.536   1.682  16.865  0.4030  0.0140  0.3356
 2425TIP3    H128766   3.467   1.725  16.916 -0.3908 -0.1076 -0.5903
 2425TIP3    H228767   3.604   1.660  16.928 -0.4355  0.1028  1.2840
 2426TIP3   OH228768   5.593   5.346  12.417  0.0962 -0.2044 -0.3122
 2426TIP3    H128769   5.672   5.386  12.381 -0.6342  0.2664 -1.4641
 2426TIP3    H228770   5.527   5.416  12.415 -0.5973 -0.8336 -0.2526
 2427TIP3   OH228771   2.570   3.083  13.697 -0.2814  0.2088  0.8115
 2427TIP3    H128772   2.623   3.163  13.697 -0.0771  0.1177 -1.0346
 2427TIP3    H228773   2.630   3.014  13.724 -0.0986  0.4553  1.0415
 2428TIP3   OH228774   1.981   0.324   1.583  0.7122  0.0841 -0.1817
 2428TIP3    H128775   1.990   0.262   1.655  1.3510  1.3320  0.8580
 2428TIP3    H228776   1.893   0.309   1.549  0.8862 -1.4241 -0.0130
 2429TIP3   OH228777   6.481   3.621  15.865  0.5218 -0.0506  0.1852
 2429TIP3    H128778   6.504   3.615  15.772 -1.7164  0.3454 -0.4466
 2429TIP3    H228779   6.525   3.700  15.896 -0.5608  1.1389 -1.1701
 2430TIP3   OH228780   1.134   3.410  16.641  0.2145  0.2688 -0.8082
 2430TIP3    H128781   1.089   3.468  16.580  0.1939  1.3947  0.2547
 2430TIP3    H228782   1.219   3.394  16.600  0.3473  1.3170 -0.9631
 2431TIP3   OH228783   0.682   1.950   2.422  0.2658  0.1400 -0.4424
 2431TIP3    H128784   0.606   1.922   2.473  1.5260 -1.4225  0.6665
 2431TIP3    H228785   0.681   1.894   2.344  0.1977  0.2377 -0.5126
 2432TIP3   OH228786   5.244   3.902   0.092 -0.4080 -0.1652  0.3096
 2432TIP3    H128787   5.154   3.935   0.098 -0.8660 -1.0844 -1.0625
 2432TIP3    H228788   5.248   3.832   0.157 -0.1405  0.9714  1.5658
 2433TIP3   OH228789   1.412   1.210   4.159 -0.3970  0.4973  0.2857
 2433TIP3    H128790   1.479   1.268   4.195 -0.6598  1.3869 -0.6166
 2433TIP3    H228791   1.352   1.268   4.114 -0.4932 -0.5055 -0.9253
 2434TIP3   OH228792   3.101   5.107   2.537  0.2061 -0.6766  0.2100
 2434TIP3    H128793   3.141   5.193   2.548 -0.6565  0.0440 -1.9129
 2434TIP3    H228794   3.033   5.105   2.605 -0.7664  0.9671 -0.6423
 2435TIP3   OH228795   3.924   0.714   0.682 -0.1682  0.4090  0.5538
 2435TIP3    H128796   3.917   0.809   0.670  1.4820  0.3428 -1.4085
 2435TIP3    H228797   4.010   0.692   0.648 -1.0023 -1.9645 -0.1999
 2436TIP3   OH228798   4.724   0.259  12.403  0.1572 -0.3041  0.0352
 2436TIP3    H128799   4.787   0.329  12.417 -1.6887  0.9088  3.4645
 2436TIP3    H228800   4.641   0.304  12.388 -0.7282 -1.7872  0.2634
 2437TIP3   OH228801   3.288   2.409  13.593 -0.5598 -0.3936  0.4463
 2437TIP3    H128802   3.250   2.463  13.524  0.5772 -0.6823 -0.4260
 2437TIP3    H228803   3.223   2.339  13.607 -0.7895 -0.3408 -0.3421
 2438TIP3   OH228804   4.243   1.391  10.876  0.0369 -0.0021  0.0212
 2438TIP3    H128805   4.147   1.396  10.878 -0.0110 -0.2061 -0.8699
 2438TIP3    H228806   4.272   1.481  10.860  0.1362  0.5019  2.6466
 2439TIP3   OH228807   5.744   5.021   0.358 -0.6706 -1.2263 -0.2171
 2439TIP3    H128808   5.759   5.039   0.451  1.4203  1.2101 -0.9149
 2439TIP3    H228809   5.831   5.025   0.319 -1.4568 -2.5898 -2.2654
 2440TIP3   OH228810   4.099   2.794   3.883  0.1674  0.6933  0.3841
 2440TIP3    H128811   4.054   2.759   3.960 -2.0078 -0.0260 -1.1174
 2440TIP3    H228812   4.029   2.826   3.826  1.6423  0.6624 -1.5646
 2441TIP3   OH228813   1.388   1.740  11.940  0.1020  0.5633  0.0641
 2441TIP3    H128814   1.349   1.796  12.008  0.1664 -0.0633  0.6243
 2441TIP3    H228815   1.434   1.672  11.989 -0.2424 -0.1647 -0.6085
 2442TIP3   OH228816   4.096   0.786  12.107 -0.1874  0.4047  0.1059
 2442TIP3    H128817   4.066   0.835  12.184 -0.2941  1.7013 -0.7293
 2442TIP3    H228818   4.141   0.709  12.144  0.0227  1.1403  1.4679
 2443TIP3   OH228819   4.618   4.666   5.917  0.6146  0.1511 -0.7468
 2443TIP3    H128820   4.631   4.712   6.000  0.4015  1.2901 -1.3339
 2443TIP3    H228821   4.572   4.585   5.942 -3.1365  2.2414 -0.0792
 2444TIP3   OH228822   1.873   1.773  16.296  0.2714  0.5216  0.1129
 2444TIP3    H128823   1.929   1.699  16.318 -0.7943 -0.2605  0.2691
 2444TIP3    H228824   1.899   1.796  16.207  1.2665  0.5851  0.4102
 2445TIP3   OH228825   1.430   5.609   1.345  0.6998  0.1965  0.2530
 2445TIP3    H128826   1.385   5.541   1.396  1.2074 -0.8524 -0.6646
 2445TIP3    H228827   1.370   5.628   1.273  0.8217  0.3065  0.1807
 2446TIP3   OH228828   4.758   6.752  13.174  0.0915  0.8474 -0.0260
 2446TIP3    H128829   4.713   6.679  13.133 -1.1641 -1.3721  4.6665
 2446TIP3    H228830   4.847   6.720  13.190  0.4036  1.4720 -0.4558
 2447TIP3   OH228831   5.777   1.442   2.449  0.4633 -0.0478  0.1826
 2447TIP3    H128832   5.765   1.503   2.522 -0.1781  0.8886 -0.6786
 2447TIP3    H228833   5.695   1.448   2.400  0.2450 -1.8695  0.2549
 2448TIP3   OH228834   0.933   2.816  15.819 -0.4074  0.1374  0.8911
 2448TIP3    H128835   0.884   2.832  15.738 -0.2241 -1.7825  0.3500
 2448TIP3    H228836   0.883   2.862  15.886 -0.0917  2.5133 -0.3975
 2449TIP3   OH228837   0.306   1.065  16.115  0.1828 -0.1176  0.1066
 2449TIP3    H128838   0.332   1.052  16.024 -0.8066  1.5133 -0.4611
 2449TIP3    H228839   0.326   0.982  16.158  3.9497  0.1779 -0.7623
 2450TIP3   OH228840   3.788   2.246  16.317  0.6687 -0.2019 -0.0352
 2450TIP3    H128841   3.753   2.281  16.235 -0.2874 -0.9663  0.0355
 2450TIP3    H228842   3.738   2.290  16.386  2.6447  1.7591  0.2528
 2451TIP3   OH228843   6.444   4.972  14.530  0.2563  0.0951  0.0621
 2451TIP3    H128844   6.359   4.928  14.524  0.8978 -1.1329 -0.3715
 2451TIP3    H228845   6.464   4.995  14.439 -0.2002  1.5853  0.3136
 2452TIP3   OH228846   6.339   2.564   1.033  0.0126 -0.0649 -0.0191
 2452TIP3    H128847   6.407   2.506   0.999  0.7522  0.5958  0.3166
 2452TIP3    H228848   6.286   2.587   0.957 -0.7531 -1.7606 -0.0499
 2453TIP3   OH228849   2.295   3.832  13.080 -0.5141 -0.7559 -0.2217
 2453TIP3    H128850   2.207   3.844  13.115 -0.5468 -0.7380 -0.3073
 2453TIP3    H228851   2.299   3.892  13.005  0.4837  1.3040  1.3765
 2454TIP3   OH228852   2.040   5.801   0.660  0.2136  0.6308 -0.4524
 2454TIP3    H128853   2.043   5.765   0.571  0.1848 -0.8292  0.1029
 2454TIP3    H228854   2.131   5.824   0.680 -0.0032  2.5790 -1.4402
 2455TIP3   OH228855   3.524   5.300  11.916 -0.2081  0.0906 -0.3884
 2455TIP3    H128856   3.489   5.341  11.837  1.1952  0.4458 -0.8565
 2455TIP3    H228857   3.601   5.352  11.938 -0.7199  0.1731  1.3939
 2456TIP3   OH228858   3.290   1.853  10.934 -0.5191 -0.0609 -0.0304
 2456TIP3    H128859   3.225   1.922  10.917  0.7639  1.2011  0.0096
 2456TIP3    H228860   3.256   1.776  10.889 -1.8985  0.6487 -0.2466
 2457TIP3   OH228861   4.546   6.575   3.073  0.3294  0.3527 -0.4751
 2457TIP3    H128862   4.635   6.544   3.087 -0.7402 -1.9672  2.2557
 2457TIP3    H228863   4.509   6.516   3.007  0.9323  1.7521 -2.1350
 2458TIP3   OH228864   1.674   0.972  16.103 -0.2971  0.4022  0.1649
 2458TIP3    H128865   1.624   0.960  16.185  0.9486 -1.0889  0.7633
 2458TIP3    H228866   1.610   1.008  16.042 -1.5778  0.4849  1.4718
 2459TIP3   OH228867   5.515   0.264  14.636 -0.8928 -0.0259 -0.4250
 2459TIP3    H128868   5.531   0.342  14.689  0.5334 -0.4942 -0.1218
 2459TIP3    H228869   5.518   0.191  14.698 -0.7522 -0.4432 -0.9051
 2460TIP3   OH228870   6.357   1.437  12.069 -1.2725 -0.1168  0.0967
 2460TIP3    H128871   6.265   1.420  12.091 -2.0044  2.6041 -0.5483
 2460TIP3    H228872   6.386   1.498  12.136  0.4013 -1.5776  0.7861
 2461TIP3   OH228873   3.908   6.708  12.142  0.5440  0.7582  0.4057
 2461TIP3    H128874   3.868   6.780  12.191  0.2143  1.0594 -0.2813
 2461TIP3    H228875   3.852   6.698  12.064  0.0837 -0.8262  0.9036
 2462TIP3   OH228876   3.825   0.811  12.937 -0.0388  0.2991 -0.0251
 2462TIP3    H128877   3.789   0.882  12.990  0.3034 -0.5391  1.3926
 2462TIP3    H228878   3.758   0.743  12.940  1.2237 -0.9853  2.0295
 2463TIP3   OH228879   1.997   2.399   0.672 -0.5357  0.0760  0.2394
 2463TIP3    H128880   2.082   2.395   0.715 -0.3523 -2.5577 -0.2143
 2463TIP3    H228881   2.012   2.366   0.583 -1.1331  4.2836 -1.6716
 2464TIP3   OH228882   5.573   0.659   5.517 -0.5542 -0.0855  0.4395
 2464TIP3    H128883   5.485   0.698   5.521  0.2361  1.7294  1.5166
 2464TIP3    H228884   5.626   0.716   5.573  1.8853  0.3828 -2.1495
 2465TIP3   OH228885   2.082   0.949   0.567  0.0139  0.7359 -0.1712
 2465TIP3    H128886   2.061   0.998   0.487 -1.0330 -1.1705 -1.1112
 2465TIP3    H228887   2.078   0.857   0.541  0.1180  0.0776  1.9785
 2466TIP3   OH228888   4.911   5.322  12.803 -0.5653  0.0699  0.0005
 2466TIP3    H128889   4.954   5.371  12.874 -0.2997  1.1217 -0.8679
 2466TIP3    H228890   4.830   5.371  12.786  0.1800  0.8335 -1.5563
 2467TIP3   OH228891   2.353   6.487   0.134 -0.2592 -0.7511 -0.3189
 2467TIP3    H128892   2.388   6.398   0.129  1.0748 -0.3213  0.6615
 2467TIP3    H228893   2.413   6.539   0.081 -1.1682 -0.4477 -1.0809
 2468TIP3   OH228894   4.395   3.124  13.933  0.4076  0.4180  0.2603
 2468TIP3    H128895   4.435   3.090  13.853 -0.0079  1.5686 -0.4728
 2468TIP3    H228896   4.444   3.204  13.952 -0.7787  1.2284 -0.0046
 2469TIP3   OH228897   3.563   1.404   2.165  0.3074  0.4192 -0.1786
 2469TIP3    H128898   3.514   1.369   2.090  0.4969 -1.4764  0.5335
 2469TIP3    H228899   3.613   1.477   2.129 -0.3060  0.1302 -1.6979
 2470TIP3   OH228900   0.762   1.484   4.576  0.2923 -0.0498 -0.1749
 2470TIP3    H128901   0.805   1.491   4.491 -1.8590 -2.1513 -1.5650
 2470TIP3    H228902   0.673   1.514   4.561  0.0990  0.3894  1.6040
 2471TIP3   OH228903   4.478   0.263   3.423  0.1747 -0.1513  0.1791
 2471TIP3    H128904   4.568   0.275   3.393 -0.4286  0.9898 -1.2714
 2471TIP3    H228905   4.485   0.196   3.492  2.3588  1.2191  1.4249
 2472TIP3   OH228906   3.442   0.510  13.631 -0.0534  0.4841  0.0333
 2472TIP3    H128907   3.448   0.430  13.579 -2.5231 -0.0886  0.4681
 2472TIP3    H228908   3.494   0.574  13.584  2.2446 -1.4146 -0.1755
 2473TIP3   OH228909   3.243   0.985   1.293 -1.0080  0.0627 -0.2269
 2473TIP3    H128910   3.293   1.020   1.220 -0.8109  1.2911  0.4749
 2473TIP3    H228911   3.169   1.045   1.303 -0.9938 -0.0454  0.6184
 2474TIP3   OH228912   3.994   0.774   3.717  0.0231 -0.3137 -0.5189
 2474TIP3    H128913   4.085   0.802   3.728  0.4731 -2.0009  0.3666
 2474TIP3    H228914   3.999   0.699   3.657 -0.9714  0.4156 -1.5746
 2475TIP3   OH228915   3.303   3.341  13.331  0.0197 -0.1952  1.3130
 2475TIP3    H128916   3.273   3.431  13.347 -2.6096 -0.5755 -0.7095
 2475TIP3    H228917   3.345   3.345  13.245 -0.7665 -0.9609  0.8689
 2476TIP3   OH228918   6.438   1.276   4.020  0.0384  0.1107 -0.5430
 2476TIP3    H128919   6.504   1.343   4.038 -0.6513  0.9842 -1.2444
 2476TIP3    H228920   6.360   1.306   4.066  0.3368 -1.3862  1.0636
 2477TIP3   OH228921   3.393   2.401   4.331 -0.4608  0.8155  0.2242
 2477TIP3    H128922   3.466   2.347   4.362 -1.5279 -0.8040  0.0255
 2477TIP3    H228923   3.432   2.487   4.316  1.7435 -0.3250 -1.1562
 2478TIP3   OH228924   4.276   3.158  15.902 -0.4561  0.0723 -0.4369
 2478TIP3    H128925   4.255   3.134  15.812  0.5047 -1.7538 -0.2227
 2478TIP3    H228926   4.257   3.079  15.953  1.2794  0.2529  0.5795
 2479TIP3   OH228927   0.698   5.065  15.657 -0.2309 -0.0889 -0.0977
 2479TIP3    H128928   0.639   5.136  15.683  0.6012  0.2657  0.8716
 2479TIP3    H228929   0.733   5.031  15.740  2.3242  0.9183 -0.6895
 2480TIP3   OH228930   6.642   4.068  14.943 -0.0477  0.4457  0.0994
 2480TIP3    H128931   6.638   4.152  14.896 -2.1422 -0.5403 -1.6719
 2480TIP3    H228932   6.555   4.058  14.981 -0.0525 -1.2551 -0.3088
 2481TIP3   OH228933   3.596   1.428   6.002 -0.1105 -0.0959  0.3444
 2481TIP3    H128934   3.556   1.350   6.039  0.1333 -0.6159 -0.4479
 2481TIP3    H228935   3.689   1.420   6.023 -0.1897  0.3717  0.9138
 2482TIP3   OH228936   0.194   4.693  12.106  0.4342  0.2482  0.6861
 2482TIP3    H128937   0.103   4.668  12.093  0.5498  0.4440 -0.5995
 2482TIP3    H228938   0.244   4.633  12.050  0.9964  0.8932  0.4718
 2483TIP3   OH228939   4.894   2.080   0.596  0.0175 -0.0193  0.0618
 2483TIP3    H128940   4.918   2.170   0.619 -0.5785  0.0736  0.3499
 2483TIP3    H228941   4.974   2.041   0.562  0.2150  0.7110 -0.3280
 2484TIP3   OH228942   3.593   3.591   3.190 -0.3729  0.5926 -0.1729
 2484TIP3    H128943   3.589   3.686   3.202 -0.1536  0.7329 -1.1541
 2484TIP3    H228944   3.667   3.563   3.244 -1.9149  0.6268  2.0916
 2485TIP3   OH228945   6.035   3.279   2.145 -0.0632  0.0678 -0.6083
 2485TIP3    H128946   5.963   3.234   2.189  0.1819 -1.0100 -1.2705
 2485TIP3    H228947   6.004   3.291   2.055 -0.0561  1.0942 -0.4868
 2486TIP3   OH228948   1.885   2.863  16.686  0.4294 -0.2093 -0.6274
 2486TIP3    H128949   1.869   2.883  16.778 -0.0679 -2.9878 -0.0193
 2486TIP3    H228950   1.809   2.898  16.640 -0.0539 -0.1366  0.2137
 2487TIP3   OH228951   2.802   5.035  16.290  0.2302  0.1930 -0.0839
 2487TIP3    H128952   2.791   4.978  16.366  0.8547 -1.0524 -0.8982
 2487TIP3    H228953   2.833   4.977  16.220 -0.3101  1.3022 -1.2968
 2488TIP3   OH228954   1.461   3.396  11.274 -0.3368  0.1357 -0.2550
 2488TIP3    H128955   1.550   3.374  11.245 -1.3562 -2.0960 -2.0852
 2488TIP3    H228956   1.424   3.312  11.300 -1.5788  1.2048  1.6322
 2489TIP3   OH228957   2.474   2.944   2.489  0.3329 -0.0089 -0.3363
 2489TIP3    H128958   2.508   2.871   2.438 -1.3892  0.0319 -1.6275
 2489TIP3    H228959   2.438   2.903   2.568 -0.0353 -0.4908 -0.7487
 2490TIP3   OH228960   4.230   5.095   6.506  0.0539 -0.2089 -0.7210
 2490TIP3    H128961   4.167   5.157   6.471  0.3920  0.3001 -0.4489
 2490TIP3    H228962   4.186   5.010   6.502 -0.7516  0.1736 -0.2843
 2491TIP3   OH228963   4.411   2.496  15.978 -0.0501 -0.0097  0.0390
 2491TIP3    H128964   4.392   2.548  15.900 -0.1652  1.1871  0.8295
 2491TIP3    H228965   4.420   2.561  16.048  1.5856 -0.9239  0.7300
 2492TIP3   OH228966   0.833   4.788   4.268  0.8086  0.5808 -0.2611
 2492TIP3    H128967   0.765   4.726   4.291 -0.0027  0.9627 -1.5287
 2492TIP3    H228968   0.863   4.760   4.181  2.3349  0.3719  0.3032
 2493TIP3   OH228969   3.156   1.655  13.802  0.2109 -0.4949 -0.2878
 2493TIP3    H128970   3.123   1.736  13.841 -1.3916 -1.9309  1.5739
 2493TIP3    H228971   3.229   1.629  13.859 -1.4286 -2.0263  1.2404
 2494TIP3   OH228972   3.151   6.792  17.014  0.2548 -0.3395 -0.4378
 2494TIP3    H128973   3.062   6.777  17.047 -0.2011  0.3936 -1.3020
 2494TIP3    H228974   3.141   6.794  16.919  1.1748 -0.0530 -0.5343
 2495TIP3   OH228975   5.424   3.448   0.093 -0.2258 -0.5366 -0.0071
 2495TIP3    H128976   5.439   3.354   0.092 -1.0634 -0.7190  1.3630
 2495TIP3    H228977   5.407   3.469   0.185  1.4859  1.2242 -0.0087
 2496TIP3   OH228978   4.068   2.107  15.521  0.1158  0.4453  0.1467
 2496TIP3    H128979   4.018   2.039  15.566  0.9211 -0.7049 -0.6360
 2496TIP3    H228980   4.009   2.143  15.456  0.3341 -1.1005 -0.9704
 2497TIP3   OH228981   3.953   4.694  12.812 -0.3604  0.4649 -0.0189
 2497TIP3    H128982   3.880   4.658  12.863 -0.1527  0.5575  0.3487
 2497TIP3    H228983   3.935   4.667  12.722  0.3962 -1.5744  0.3866
 2498TIP3   OH228984   2.356   4.892   4.761  0.2102  0.7632 -0.1785
 2498TIP3    H128985   2.372   4.872   4.669 -0.3257  0.8840 -0.2989
 2498TIP3    H228986   2.440   4.927   4.793  0.9145 -0.8472 -0.1805
 2499TIP3   OH228987   2.393   2.621  10.532 -0.0301  0.8368  0.0911
 2499TIP3    H128988   2.463   2.555  10.535  0.5375  1.2694 -2.1080
 2499TIP3    H228989   2.312   2.570  10.534  0.3968  0.0820 -0.9000
 2500TIP3   OH228990   4.845   1.516   0.987  0.1385  0.2511 -0.0021
 2500TIP3    H128991   4.793   1.592   1.011  0.2623 -0.0261  1.1835
 2500TIP3    H228992   4.897   1.545   0.911 -0.7312  0.9422 -0.3452
 2501TIP3   OH228993   5.041   5.876  13.928  0.0820 -0.1573 -0.4872
 2501TIP3    H128994   5.130   5.905  13.948 -0.5083  1.4343  0.0447
 2501TIP3    H228995   5.039   5.784  13.951  1.0611  0.2451  1.3810
 2502TIP3   OH228996   0.731   1.772   0.113 -0.9537  0.4025 -0.4722
 2502TIP3    H128997   0.796   1.803   0.050  0.0152  2.6907  1.4702
 2502TIP3    H228998   0.659   1.835   0.107  0.1083  2.0534  2.0576
 2503TIP3   OH228999   0.384   2.587   5.606 -0.1676  0.2245 -0.5355
 2503TIP3    H129000   0.314   2.536   5.565 -0.7366  0.6265 -0.0977
 2503TIP3    H229001   0.454   2.524   5.623 -0.9179 -0.4493  0.1339
 2504TIP3   OH229002   4.245   1.309  14.448 -0.5531  0.2068  0.3434
 2504TIP3    H129003   4.208   1.285  14.363  1.9651  2.0720 -1.4326
 2504TIP3    H229004   4.265   1.402  14.440  0.2855  0.3187  2.8118
 2505TIP3   OH229005   6.426   5.437  16.263 -0.0865 -0.3173  0.5714
 2505TIP3    H129006   6.396   5.400  16.180 -0.6661  0.2618  0.5174
 2505TIP3    H229007   6.489   5.373  16.296  0.5372 -0.3127 -0.5541
 2506TIP3   OH229008   5.484   4.078  16.520 -0.7328  0.1240 -0.1381
 2506TIP3    H129009   5.452   3.988  16.509 -2.1830  0.6439 -0.4086
 2506TIP3    H229010   5.440   4.128  16.452 -0.0641  1.0782  0.1073
 2507TIP3   OH229011   2.659   1.966  15.176  0.7116 -0.0694 -0.5263
 2507TIP3    H129012   2.620   1.882  15.198 -0.0818  0.1672 -0.9959
 2507TIP3    H229013   2.733   1.975  15.236 -0.3420 -0.2352  0.8314
 2508TIP3   OH229014   5.170   4.976   0.700  0.1473 -0.0518  0.5632
 2508TIP3    H129015   5.168   4.881   0.696  1.1438 -0.0738  0.3126
 2508TIP3    H229016   5.169   5.004   0.609  2.5318  0.0702  0.5057
 2509TIP3   OH229017   4.243   5.277   0.179 -0.0486 -0.5701 -0.1366
 2509TIP3    H129018   4.335   5.260   0.198  0.6228  1.3417 -1.3914
 2509TIP3    H229019   4.222   5.215   0.109  0.7830  0.0553 -0.9679
 2510TIP3   OH229020   4.261   0.403  13.071  0.3520  0.1360 -0.2566
 2510TIP3    H129021   4.180   0.372  13.029 -0.7050  0.4489  1.4571
 2510TIP3    H229022   4.302   0.324  13.105  0.6381  0.0090 -0.8788
 2511TIP3   OH229023   5.828   4.168   3.186 -0.0646  0.3228  0.3439
 2511TIP3    H129024   5.813   4.075   3.203 -1.7802  0.6276  0.6764
 2511TIP3    H229025   5.865   4.171   3.098 -1.2426 -0.6066 -0.2012
 2512TIP3   OH229026   3.316   0.644  17.279  0.6549 -0.0160  0.1520
 2512TIP3    H129027   3.375   0.623  17.352 -0.6853  0.2766  1.3526
 2512TIP3    H229028   3.235   0.674  17.320 -1.0393 -2.1378 -1.3791
 2513TIP3   OH229029   2.847   5.847   1.379 -0.1496 -0.3090  0.2861
 2513TIP3    H129030   2.909   5.858   1.451 -2.3388 -1.0517  2.3903
 2513TIP3    H229031   2.781   5.787   1.412 -1.5964 -0.2067 -2.1445
 2514TIP3   OH229032   1.640   4.906  12.257  0.0015  0.3516  0.4307
 2514TIP3    H129033   1.640   4.963  12.334  1.0899  2.6615 -1.1684
 2514TIP3    H229034   1.556   4.923  12.214  0.6058  1.3246 -0.4061
 2515TIP3   OH229035   5.599   2.113   1.358  0.1853  0.2514 -0.2705
 2515TIP3    H129036   5.522   2.055   1.357  1.0507 -0.9301 -1.2789
 2515TIP3    H229037   5.671   2.057   1.388  0.5876  1.4766  1.1638
 2516TIP3   OH229038   2.338   4.462   5.689  0.1320  0.0124  0.2377
 2516TIP3    H129039   2.356   4.371   5.714 -2.2589 -0.4304  0.5995
 2516TIP3    H229040   2.306   4.456   5.599 -0.5492  0.4040  0.4449
 2517TIP3   OH229041   6.226   4.906  15.123 -0.2251  0.4101  0.7556
 2517TIP3    H129042   6.140   4.941  15.146 -0.8294 -0.6098  0.1119
 2517TIP3    H229043   6.246   4.843  15.193 -0.4852 -0.1274  0.3499
 2518TIP3   OH229044   3.687   3.343  15.562 -0.1675 -0.3029 -0.5094
 2518TIP3    H129045   3.733   3.291  15.628 -1.0685 -0.4270  0.0323
 2518TIP3    H229046   3.698   3.433  15.591 -0.6108 -0.3604 -0.1447
 2519TIP3   OH229047   2.095   0.131   4.747  0.2083 -0.3813  0.2266
 2519TIP3    H129048   2.053   0.205   4.792 -1.8174 -0.9497 -0.6270
 2519TIP3    H229049   2.097   0.156   4.655  1.0796 -0.7164  0.1371
 2520TIP3   OH229050   3.942   2.496  11.347  0.4965 -0.2382 -0.2899
 2520TIP3    H129051   3.995   2.576  11.338  1.8736 -1.2027 -0.9845
 2520TIP3    H229052   3.967   2.442  11.272 -1.6175 -0.6796 -0.7318
 2521TIP3   OH229053   0.568   1.089  11.337 -0.1202 -0.3953  0.4696
 2521TIP3    H129054   0.626   1.017  11.361 -0.0319 -0.4425  0.1249
 2521TIP3    H229055   0.547   1.073  11.245  0.3053  0.2866  0.2438
 2522TIP3   OH229056   6.636   2.734  11.656 -0.4419  0.1762  0.6055
 2522TIP3    H129057   6.716   2.774  11.622  0.3875 -1.8609  0.0554
 2522TIP3    H229058   6.648   2.736  11.751  0.4154 -0.3872  0.5184
 2523TIP3   OH229059   5.410   0.685  16.172 -0.2969 -0.0869 -0.3241
 2523TIP3    H129060   5.493   0.637  16.171  0.5260  1.3028 -0.6151
 2523TIP3    H229061   5.356   0.638  16.236  0.9519 -0.6324  0.3571
 2524TIP3   OH229062   0.916   3.376  13.622 -0.5441 -0.6082  0.3626
 2524TIP3    H129063   0.871   3.434  13.683 -3.2659 -1.2873 -0.8252
 2524TIP3    H229064   0.891   3.288  13.649 -1.6696 -0.9325 -1.5075
 2525TIP3   OH229065   2.276   4.303  16.077 -0.4256  0.1095 -0.2306
 2525TIP3    H129066   2.194   4.298  16.127 -0.0770  0.4449  0.3757
 2525TIP3    H229067   2.338   4.251  16.127 -0.7186 -1.6781 -1.6260
 2526TIP3   OH229068   1.065   4.729  12.991  0.6108 -0.1092 -0.8028
 2526TIP3    H129069   1.013   4.683  12.926 -0.9961  0.1668  0.2252
 2526TIP3    H229070   1.138   4.766  12.942 -0.7748  0.4672 -2.5244
 2527TIP3   OH229071   2.997   3.096   5.119  0.5437 -0.3216  0.1629
 2527TIP3    H129072   2.982   3.127   5.030 -1.4037  1.8107  1.1214
 2527TIP3    H229073   2.934   3.025   5.132 -0.3343  0.4558  0.2994
 2528TIP3   OH229074   1.139   1.301   4.532  0.2494 -0.4049 -0.5130
 2528TIP3    H129075   1.106   1.228   4.479 -2.5254  1.1229 -1.1213
 2528TIP3    H229076   1.177   1.361   4.468  1.4751 -0.7601 -0.1424
 2529TIP3   OH229077   2.819   1.496  12.588  0.4809  0.2700 -0.3413
 2529TIP3    H129078   2.741   1.442  12.601  1.9303 -2.9681 -3.5897
 2529TIP3    H229079   2.785   1.578  12.552 -1.5072 -0.3489 -0.0077
 2530TIP3   OH229080   2.684   4.482   1.644 -0.1403 -0.4464 -0.2663
 2530TIP3    H129081   2.750   4.506   1.709  0.9416 -1.0870 -1.0940
 2530TIP3    H229082   2.690   4.552   1.578 -0.8662 -0.0785  0.0467
 2531TIP3   OH229083   1.069   3.430   1.251 -0.1295 -0.1600  0.5092
 2531TIP3    H129084   1.096   3.463   1.165 -0.8279 -1.7423 -0.3670
 2531TIP3    H229085   0.997   3.487   1.277 -0.4376 -0.1368 -0.3447
 2532TIP3   OH229086   4.071   6.220   2.152  0.0251 -0.0615 -0.9479
 2532TIP3    H129087   4.121   6.300   2.137  0.9077 -0.5933 -0.9233
 2532TIP3    H229088   4.118   6.176   2.224 -0.3471 -0.6818 -1.0774
 2533TIP3   OH229089   5.570   4.311   0.942 -0.7934 -0.1231  0.1338
 2533TIP3    H129090   5.529   4.232   0.908 -1.3430  0.0938  0.2934
 2533TIP3    H229091   5.528   4.326   1.026 -2.5022  1.7224 -0.9648
 2534TIP3   OH229092   2.488   0.655   5.707 -0.3184 -0.2458  0.0453
 2534TIP3    H129093   2.402   0.614   5.697 -0.7848  0.6048  0.4485
 2534TIP3    H229094   2.547   0.582   5.722 -0.9659 -0.8480 -0.2326
 2535TIP3   OH229095   1.936   5.024  17.123  0.5704 -0.5151 -0.3001
 2535TIP3    H129096   1.991   4.984  17.056  0.3174 -0.2603 -0.6621
 2535TIP3    H229097   1.958   4.977  17.203 -1.4375 -3.0453 -1.1230
 2536TIP3   OH229098   3.922   0.306   4.667 -0.3669  0.2064 -0.0356
 2536TIP3    H129099   3.902   0.286   4.758 -1.1185 -1.1767 -0.4820
 2536TIP3    H229100   3.971   0.230   4.636  0.3229  0.8846 -0.6632
 2537TIP3   OH229101   6.177   2.607  11.505 -0.2351 -0.2114  0.4394
 2537TIP3    H129102   6.226   2.663  11.566  0.3132 -0.2859  0.0762
 2537TIP3    H229103   6.238   2.538  11.482  0.0979  0.6129 -1.3251
 2538TIP3   OH229104   3.562   5.583   0.680 -0.5769  0.2194 -0.0553
 2538TIP3    H129105   3.581   5.590   0.773  0.2604 -1.4419 -0.0682
 2538TIP3    H229106   3.563   5.489   0.662  1.9294  0.5484 -2.2429
 2539TIP3   OH229107   6.450   1.444   0.221 -0.3355 -0.4192  0.2186
 2539TIP3    H129108   6.532   1.491   0.236 -0.1750 -0.7629  0.4382
 2539TIP3    H229109   6.397   1.462   0.298 -0.5270 -0.0787  0.0106
 2540TIP3   OH229110   3.468   5.055  14.416  1.0938  0.8212 -0.1782
 2540TIP3    H129111   3.537   5.037  14.479  1.2711  1.0885 -0.2933
 2540TIP3    H229112   3.483   5.146  14.390  1.3901  0.5178 -1.0727
 2541TIP3   OH229113   0.148   5.228  16.032  0.5573 -0.4281 -0.3794
 2541TIP3    H129114   0.242   5.218  16.017  0.5094 -1.0333 -0.3266
 2541TIP3    H229115   0.108   5.222  15.945  0.4641 -1.5696 -0.2697
 2542TIP3   OH229116   1.846   5.173  11.826 -0.2259 -0.1654 -0.0609
 2542TIP3    H129117   1.865   5.258  11.864 -1.1608  0.3189 -0.6407
 2542TIP3    H229118   1.868   5.110  11.895  2.1127  0.3939 -0.1945
 2543TIP3   OH229119   4.145   2.300   0.924 -0.4831 -0.0017  0.7698
 2543TIP3    H129120   4.230   2.344   0.924 -0.5958  0.2326  1.6361
 2543TIP3    H229121   4.109   2.316   1.012 -1.3428 -0.2484  0.4757
 2544TIP3   OH229122   0.815   0.266  15.800  0.3261 -0.4970  0.3017
 2544TIP3    H129123   0.728   0.268  15.760 -0.1074 -0.4339  1.2262
 2544TIP3    H229124   0.819   0.345  15.854 -0.0828 -1.8037  2.3630
 2545TIP3   OH229125   0.779   1.478   0.370  0.0370  0.2282 -0.1107
 2545TIP3    H129126   0.799   1.434   0.288 -2.0415  0.5434 -0.8511
 2545TIP3    H229127   0.748   1.565   0.344  1.4367  1.1651  1.1662
 2546TIP3   OH229128   6.596   5.168  15.200 -0.1066  0.3244 -0.0372
 2546TIP3    H129129   6.590   5.257  15.234  0.3576  0.1870  0.4157
 2546TIP3    H229130   6.551   5.171  15.116  0.1859  1.0682 -0.1725
 2547TIP3   OH229131   3.137   1.428   0.085 -0.6756  0.5406 -0.0312
 2547TIP3    H129132   3.075   1.411   0.155  0.3708 -0.1684  0.7554
 2547TIP3    H229133   3.101   1.503   0.038 -2.3449 -0.1399  0.1169
 2548TIP3   OH229134   3.464   0.587   5.533 -0.2207  0.0132  0.0486
 2548TIP3    H129135   3.467   0.500   5.494 -1.9787  0.2887 -0.8241
 2548TIP3    H229136   3.438   0.573   5.624 -2.7693 -0.3202 -0.6503
 2549TIP3   OH229137   4.843   4.622   1.800 -0.2786 -0.5556 -0.3848
 2549TIP3    H129138   4.860   4.537   1.762 -2.0073 -0.7650 -0.7779
 2549TIP3    H229139   4.851   4.684   1.728 -1.9638 -0.7703 -0.8127
 2550TIP3   OH229140   3.715   1.625   5.043 -0.2296 -0.0185  0.3558
 2550TIP3    H129141   3.691   1.648   5.133  1.1040 -1.1217  1.0513
 2550TIP3    H229142   3.683   1.535   5.032  0.1971 -0.1263 -0.0368
 2551TIP3   OH229143   1.264   3.626   2.799  0.8133  0.3685 -0.0217
 2551TIP3    H129144   1.333   3.676   2.755 -0.0715  1.8594  0.2182
 2551TIP3    H229145   1.259   3.663   2.887 -2.5909  2.8212 -1.0348
 2552TIP3   OH229146   3.744   1.612  17.058  0.3138  0.4075  0.2565
 2552TIP3    H129147   3.830   1.626  17.098  0.1718  2.2026  0.0063
 2552TIP3    H229148   3.735   1.517  17.054  1.7739  0.1833  1.3722
 2553TIP3   OH229149   3.853   5.156   2.285 -0.7516 -0.2026 -0.9994
 2553TIP3    H129150   3.796   5.191   2.354  0.6853 -3.0321  1.8844
 2553TIP3    H229151   3.925   5.218   2.279 -1.5836  0.7853 -0.9901
 2554TIP3   OH229152   0.932   6.180   2.769  0.0298  0.4425 -0.0631
 2554TIP3    H129153   0.937   6.259   2.823 -0.4645  1.0321 -0.8384
 2554TIP3    H229154   0.851   6.137   2.797  0.1153  0.4000  0.1190
 2555TIP3   OH229155   6.541   5.665   4.237  0.2226 -0.0260  0.4560
 2555TIP3    H129156   6.545   5.569   4.228 -0.6113 -0.0095 -0.2880
 2555TIP3    H229157   6.558   5.698   4.149 -0.9307  0.4506  0.3901
 2556TIP3   OH229158   6.126   0.761   4.733 -0.1125  0.8432  0.4494
 2556TIP3    H129159   6.101   0.794   4.646  0.0535  0.8604  0.4066
 2556TIP3    H229160   6.079   0.817   4.794  2.1382  2.9432  0.4513
 2557TIP3   OH229161   5.847   5.332   3.418 -0.5704  0.0679 -0.5967
 2557TIP3    H129162   5.918   5.393   3.437 -0.7476  0.4049 -0.9890
 2557TIP3    H229163   5.872   5.291   3.335  0.3042 -1.5520  0.4363
 2558TIP3   OH229164   5.161   1.433  11.736 -0.0522  0.2162 -0.0622
 2558TIP3    H129165   5.157   1.343  11.768 -1.8552  0.7001  1.2661
 2558TIP3    H229166   5.175   1.425  11.642  2.5422 -1.3530  0.3621
 2559TIP3   OH229167   5.139   0.173  10.635  0.0812  0.1016 -0.1443
 2559TIP3    H129168   5.143   0.106  10.567 -0.5452 -0.0165 -0.0703
 2559TIP3    H229169   5.125   0.255  10.587  0.6905  0.1638 -0.2241
 2560TIP3   OH229170   1.955   6.403  13.982  0.5362 -0.7092  0.0546
 2560TIP3    H129171   1.883   6.375  13.925  1.5700 -0.3858 -1.4883
 2560TIP3    H229172   1.973   6.493  13.954  1.4786 -0.7588  0.4731
 2561TIP3   OH229173   5.099   1.012   4.670  0.0582 -0.7985  0.8737
 2561TIP3    H129174   5.100   0.917   4.671  2.4629 -0.8566 -0.9419
 2561TIP3    H229175   5.161   1.038   4.738  0.9138 -0.5972  0.0338
 2562TIP3   OH229176   5.949   3.147  16.085  0.1135 -0.1261 -0.1402
 2562TIP3    H129177   6.013   3.215  16.066  0.5181  0.0109  1.5812
 2562TIP3    H229178   5.995   3.085  16.141 -0.6089 -1.2105 -0.7125
 2563TIP3   OH229179   0.918   3.847   5.988 -0.0681 -0.5698  0.5331
 2563TIP3    H129180   0.927   3.837   6.083 -0.9622 -0.4594  0.6429
 2563TIP3    H229181   0.850   3.784   5.964 -2.3707  1.7432  0.5175
 2564TIP3   OH229182   4.887   0.813   5.725  0.3682 -0.3179  0.1139
 2564TIP3    H129183   4.921   0.796   5.813  0.0455  0.0266  0.3088
 2564TIP3    H229184   4.799   0.848   5.739  0.1494 -0.6605 -0.3640
 2565TIP3   OH229185   3.378   0.135  16.383  0.6488  0.0139 -0.0312
 2565TIP3    H129186   3.418   0.212  16.343 -1.9272  1.1501 -0.6962
 2565TIP3    H229187   3.402   0.062  16.326  0.0338  1.0095 -1.6339
 2566TIP3   OH229188   0.232   4.558  15.082  0.2168 -0.4786  0.0908
 2566TIP3    H129189   0.269   4.549  14.994 -2.5413  0.0967 -1.2501
 2566TIP3    H229190   0.242   4.651  15.103 -0.4611 -0.3125 -0.2939
 2567TIP3   OH229191   0.352   0.448   3.542  0.4536  0.8741  0.5029
 2567TIP3    H129192   0.309   0.364   3.559  0.7806  1.3760  4.9194
 2567TIP3    H229193   0.439   0.425   3.510  0.9535 -0.5713  2.7299
 2568TIP3   OH229194   5.443   3.348  15.163  0.2898  0.0708  0.2248
 2568TIP3    H129195   5.444   3.276  15.225 -3.2674 -1.3021 -1.0815
 2568TIP3    H229196   5.481   3.311  15.083  0.9879  0.5335  0.3336
 2569TIP3   OH229197   3.919   6.238  14.872 -0.4800  0.5350  0.2381
 2569TIP3    H129198   4.009   6.257  14.847 -0.1825 -0.9554  0.0538
 2569TIP3    H229199   3.866   6.301  14.824  0.3369  0.1219 -1.2390
 2570TIP3   OH229200   6.138   1.762   4.664 -0.4410 -0.3602 -0.6439
 2570TIP3    H129201   6.216   1.816   4.648  1.0668 -1.9079  0.8698
 2570TIP3    H229202   6.065   1.813   4.629  0.8080  2.7738  0.9139
 2571TIP3   OH229203   6.362   6.810   0.451 -0.3656  0.3826 -0.4728
 2571TIP3    H129204   6.355   6.881   0.387 -1.1237 -0.6763 -1.6270
 2571TIP3    H229205   6.377   6.854   0.534 -1.7204  1.9601 -0.9893
 2572TIP3   OH229206   6.633   3.482  14.614 -0.0854  0.3529 -0.0108
 2572TIP3    H129207   6.684   3.407  14.644  1.1370  0.7271 -1.0379
 2572TIP3    H229208   6.542   3.457  14.627  0.2543 -1.6614 -1.1158
 2573TIP3   OH229209   4.479   4.899   1.580 -0.2385 -0.2806 -0.1356
 2573TIP3    H129210   4.471   4.991   1.604  0.4486 -0.3671  0.4609
 2573TIP3    H229211   4.568   4.875   1.604 -0.9431 -1.5638  1.3661
 2574TIP3   OH229212   4.587   6.527   5.744  0.0131  0.1166 -0.3823
 2574TIP3    H129213   4.617   6.600   5.797  0.8594 -0.7468  0.3498
 2574TIP3    H229214   4.603   6.450   5.797 -1.2941 -0.5874 -0.9539
 2575TIP3   OH229215   0.661   1.065  16.571  0.3290 -0.0780 -0.6044
 2575TIP3    H129216   0.576   1.074  16.613 -0.1664  2.7650 -1.9462
 2575TIP3    H229217   0.640   1.046  16.479  1.2655 -2.1141 -0.4444
 2576TIP3   OH229218   3.928   5.185   3.325  0.3086  0.2423  0.3181
 2576TIP3    H129219   3.977   5.193   3.407  0.6777 -1.3683  0.2854
 2576TIP3    H229220   3.884   5.101   3.332  0.7749 -0.1729 -1.3731
 2577TIP3   OH229221   0.335   1.099  15.525 -0.1718  0.5229  0.9877
 2577TIP3    H129222   0.247   1.083  15.489  0.1315  0.2987  0.3360
 2577TIP3    H229223   0.355   1.189  15.499  0.9612 -0.3282 -1.4269
 2578TIP3   OH229224   2.890   5.499  12.400 -0.7901 -0.4932 -0.2730
 2578TIP3    H129225   2.902   5.420  12.452 -0.9501 -0.8777 -0.8157
 2578TIP3    H229226   2.812   5.540  12.437 -1.4233 -1.2259 -0.7738
 2579TIP3   OH229227   4.940   4.469   0.956  0.2117 -0.2682  0.1158
 2579TIP3    H129228   5.010   4.450   1.018 -0.2728 -1.3364  0.3642
 2579TIP3    H229229   4.972   4.542   0.904  0.8515  0.2849  1.2648
 2580TIP3   OH229230   2.172   3.121  12.918 -0.1961 -0.3114 -0.6451
 2580TIP3    H129231   2.177   3.213  12.894 -0.8471  0.9529  3.2912
 2580TIP3    H229232   2.262   3.095  12.936 -0.2279  0.2945  0.4427
 2581TIP3   OH229233   5.511   6.368   6.704  0.3817  0.6445 -0.1399
 2581TIP3    H129234   5.433   6.335   6.659  0.2329  0.2917  0.3734
 2581TIP3    H229235   5.500   6.463   6.706 -0.0913  0.5857  0.0433
 2582TIP3   OH229236   3.392   2.537  12.561  0.2559  0.2034 -0.1702
 2582TIP3    H129237   3.481   2.502  12.573  0.4587  0.7308 -0.1140
 2582TIP3    H229238   3.360   2.494  12.482  0.1427 -0.8265  0.4097
 2583TIP3   OH229239   5.050   6.551  17.239  0.2094 -0.0569 -0.2373
 2583TIP3    H129240   5.018   6.472  17.195  2.1590 -0.8693 -0.3422
 2583TIP3    H229241   5.068   6.522  17.329  1.7657 -0.0286 -0.5008
 2584TIP3   OH229242   6.238   0.625   3.900  0.4098  0.4475  0.2744
 2584TIP3    H129243   6.203   0.652   3.985 -0.8051  2.3988 -0.7683
 2584TIP3    H229244   6.318   0.677   3.890 -0.1518  1.2222 -0.3101
 2585TIP3   OH229245   1.751   0.022   3.465 -0.2631 -0.0862 -0.2336
 2585TIP3    H129246   1.840   0.012   3.429  0.0331  1.3802  0.0387
 2585TIP3    H229247   1.763   0.013   3.559  0.0013  2.2655  0.0233
 2586TIP3   OH229248   4.809   6.249  10.953  0.7211  0.6543  0.8188
 2586TIP3    H129249   4.757   6.312  10.903  0.8799  0.4381  0.3790
 2586TIP3    H229250   4.810   6.170  10.899  1.7829  0.7627  0.6706
 2587TIP3   OH229251   4.872   0.583   2.655 -0.3924  0.0048 -0.6081
 2587TIP3    H129252   4.938   0.514   2.647  0.6157  1.0557 -1.7570
 2587TIP3    H229253   4.840   0.575   2.745  0.8059 -0.9809 -0.2456
 2588TIP3   OH229254   2.384   2.324  15.831  0.1486  0.4726  0.6285
 2588TIP3    H129255   2.371   2.401  15.887 -3.5371  0.9333 -0.6176
 2588TIP3    H229256   2.308   2.268  15.848  0.2006 -0.5536 -2.0337
 2589TIP3   OH229257   2.461   5.021  13.965  0.4367  0.0821 -0.0090
 2589TIP3    H129258   2.538   5.078  13.964  1.5025 -1.2923  0.2510
 2589TIP3    H229259   2.484   4.948  13.908 -0.9169 -0.0936 -0.3776
 2590TIP3   OH229260   1.757   0.111  14.315  0.1823  0.1324  0.2223
 2590TIP3    H129261   1.670   0.071  14.327 -1.1427  2.9835  0.9055
 2590TIP3    H229262   1.762   0.129  14.221  0.0484 -0.0207  0.1841
 2591TIP3   OH229263   4.375   6.081   4.821 -0.2455 -0.7245 -0.1866
 2591TIP3    H129264   4.465   6.050   4.816  0.9019  2.3490 -0.6267
 2591TIP3    H229265   4.351   6.101   4.731 -1.3935 -1.4485 -0.0647
 2592TIP3   OH229266   4.453   5.521  11.498 -0.5102 -0.2066  0.9381
 2592TIP3    H129267   4.482   5.498  11.409 -0.2586  0.0218  0.9574
 2592TIP3    H229268   4.358   5.518  11.494 -0.4907 -0.6461  0.7793
 2593TIP3   OH229269   0.229   1.811  17.155  0.1482 -0.0677  0.2637
 2593TIP3    H129270   0.189   1.760  17.225  0.7153 -1.6337 -0.4740
 2593TIP3    H229271   0.165   1.809  17.084 -0.6535  1.9711  0.8761
 2594TIP3   OH229272   0.314   6.805   4.106 -0.2571  0.5205  0.1888
 2594TIP3    H129273   0.254   6.874   4.078 -0.7717  0.0800  0.1748
 2594TIP3    H229274   0.331   6.755   4.027 -0.7798 -0.0274  0.4109
 2595TIP3   OH229275   4.995   1.419   1.383  0.2791  0.0882 -0.3472
 2595TIP3    H129276   4.949   1.499   1.357 -0.0152 -0.1793 -0.6583
 2595TIP3    H229277   4.937   1.377   1.446  0.9556  0.6916  0.6939
 2596TIP3   OH229278   0.042   3.766   0.032  0.3925  0.2724 -0.4170
 2596TIP3    H129279   0.030   3.815  -0.050 -1.0136 -1.2191 -1.1600
 2596TIP3    H229280   0.046   3.674   0.005 -0.8064 -0.3175  1.2152
 2597TIP3   OH229281   0.197   1.465  11.808 -0.1470 -0.3086  0.8528
 2597TIP3    H129282   0.134   1.459  11.880 -0.2190  3.0097  1.2437
 2597TIP3    H229283   0.282   1.461  11.852 -0.1855  0.7350  1.0569
 2598TIP3   OH229284   1.410   4.579  12.904 -0.5105 -0.5416  0.3911
 2598TIP3    H129285   1.391   4.666  12.869 -1.0984 -0.7092  0.2816
 2598TIP3    H229286   1.454   4.533  12.832 -1.1547 -0.6797  0.0752
 2599TIP3   OH229287   4.204   2.936   1.558  0.2312 -0.2705  0.1075
 2599TIP3    H129288   4.233   2.861   1.506 -0.1982  0.1902 -0.8354
 2599TIP3    H229289   4.109   2.925   1.566  0.2579 -0.1907  0.5643
 2600TIP3   OH229290   6.419   0.790   2.559 -0.3612  0.2518 -0.0330
 2600TIP3    H129291   6.401   0.724   2.492 -0.6254  1.4485 -1.1935
 2600TIP3    H229292   6.448   0.740   2.636  0.3631 -1.1337 -1.1667
 2601TIP3   OH229293   4.116   1.993  14.172  0.5260 -0.1162  0.7652
 2601TIP3    H129294   4.145   1.903  14.158  2.2078  0.1684  2.0716
 2601TIP3    H229295   4.188   2.047  14.140  0.2670  0.7155  1.5269
 2602TIP3   OH229296   6.071   5.208   0.716 -0.0143  0.3127  0.6658
 2602TIP3    H129297   6.040   5.119   0.701 -1.8307  0.8575  0.9316
 2602TIP3    H229298   6.013   5.263   0.663 -0.0548  1.4491  1.8268
 2603TIP3   OH229299   6.068   5.789  13.047  0.0817  0.6613  0.3450
 2603TIP3    H129300   6.075   5.870  12.997 -0.6008  1.3650  1.3552
 2603TIP3    H229301   6.000   5.806  13.111  0.1723 -0.6013  0.8050
 2604TIP3   OH229302   5.416   2.917  16.874  0.0006  0.0469 -0.1962
 2604TIP3    H129303   5.440   2.828  16.851 -3.6699 -0.7885 -1.3941
 2604TIP3    H229304   5.402   2.915  16.969  1.9894  0.0077  0.1507
 2605TIP3   OH229305   1.222   2.728  11.258 -0.4039 -0.4852  0.3442
 2605TIP3    H129306   1.181   2.684  11.184  1.2078 -2.2094  0.3995
 2605TIP3    H229307   1.276   2.796  11.218  1.0764 -1.9083 -0.2043
 2606TIP3   OH229308   3.284   6.337   5.947  0.2573 -0.4582  0.2660
 2606TIP3    H129309   3.254   6.347   5.856 -0.2353 -0.0656  0.4694
 2606TIP3    H229310   3.359   6.397   5.953  0.7925 -1.0709 -0.0989
 2607TIP3   OH229311   5.436   6.648   5.553 -0.0902 -0.1498 -0.1705
 2607TIP3    H129312   5.471   6.576   5.501  1.1095  0.3101 -0.0482
 2607TIP3    H229313   5.408   6.607   5.635  1.2238 -0.4249  0.1777
 2608TIP3   OH229314   0.313   3.419   5.558 -0.0554 -0.2749  0.1608
 2608TIP3    H129315   0.397   3.463   5.570 -0.6173  0.9221 -0.1477
 2608TIP3    H229316   0.316   3.387   5.468 -0.4408  0.9584 -0.3164
 2609TIP3   OH229317   6.275   3.285  11.455  0.0683 -0.2266  0.9977
 2609TIP3    H129318   6.215   3.213  11.473 -0.0394 -0.3627  0.1553
 2609TIP3    H229319   6.358   3.242  11.433 -0.3328 -0.1731 -0.7695
 2610TIP3   OH229320   3.727   5.691  17.148  0.0239 -0.1929  0.1999
 2610TIP3    H129321   3.728   5.784  17.125 -1.7382 -0.6965 -2.3460
 2610TIP3    H229322   3.795   5.682  17.214  0.0553  2.9435  0.7581
 2611TIP3   OH229323   0.897   1.792   1.553  0.0741  0.1340  0.5639
 2611TIP3    H129324   0.956   1.803   1.478  1.7022  1.2745  1.9336
 2611TIP3    H229325   0.832   1.861   1.541  0.4797  0.4858  0.3218
 2612TIP3   OH229326   0.074   1.878   3.483  0.2825 -0.6294 -0.0163
 2612TIP3    H129327   0.098   1.969   3.498 -0.4849 -0.4732  0.3338
 2612TIP3    H229328   0.064   1.871   3.388 -0.2614 -0.1845  0.0063
 2613TIP3   OH229329   5.109   1.650  12.599  0.0097 -0.3627  0.3705
 2613TIP3    H129330   5.148   1.652  12.686 -0.9717 -1.0351  0.8478
 2613TIP3    H229331   5.032   1.595  12.609 -0.4227  0.0039 -0.8061
 2614TIP3   OH229332   4.178   0.455  12.108  0.1438  0.4436  0.3425
 2614TIP3    H129333   4.163   0.373  12.061 -0.1581  0.8353 -0.2660
 2614TIP3    H229334   4.181   0.430  12.200 -0.0901 -0.2305  0.1733
 2615TIP3   OH229335   4.544   5.935  14.331 -0.6377 -0.1685 -0.4707
 2615TIP3    H129336   4.628   5.933  14.285  0.5620 -0.1139  1.6074
 2615TIP3    H229337   4.540   5.851  14.377 -0.8726  0.5297  0.8305
 2616TIP3   OH229338   1.394   2.406   0.030 -0.1955  0.3418 -0.0559
 2616TIP3    H129339   1.319   2.349   0.049 -1.5431  1.7035 -1.0289
 2616TIP3    H229340   1.470   2.347   0.032 -1.3660 -1.2290  0.2430
 2617TIP3   OH229341   3.689   3.326  14.229 -0.2459  0.6314  0.3341
 2617TIP3    H129342   3.654   3.413  14.212  1.5613  1.2879 -0.3843
 2617TIP3    H229343   3.630   3.266  14.183 -1.8125  1.4042  1.2806
 2618TIP3   OH229344   0.582   5.640  14.573 -0.4759  0.2765  0.0400
 2618TIP3    H129345   0.616   5.597  14.495 -1.2263  0.2740 -0.2933
 2618TIP3    H229346   0.575   5.570  14.638 -1.6070 -0.1035 -0.4728
 2619TIP3   OH229347   6.476   0.671   0.580 -0.2902 -0.4464  0.2534
 2619TIP3    H129348   6.548   0.664   0.642  2.3084  1.0715 -2.3287
 2619TIP3    H229349   6.450   0.763   0.583 -1.1171 -0.6699  0.1272
 2620TIP3   OH229350   4.335   0.686  12.906 -0.3579 -0.2210 -0.3150
 2620TIP3    H129351   4.296   0.618  12.961  2.7125 -1.1351  0.9553
 2620TIP3    H229352   4.366   0.638  12.829 -0.9134  0.3195 -0.8826
 2621TIP3   OH229353   5.078   4.856  12.674 -0.0435  0.4402  0.3588
 2621TIP3    H129354   5.138   4.923  12.643  1.2649 -0.2485  1.2982
 2621TIP3    H229355   4.999   4.904  12.700  0.5567  1.5101  0.2493
 2622TIP3   OH229356   6.691   6.290  16.589  0.2364 -0.3265  0.1980
 2622TIP3    H129357   6.754   6.223  16.615 -0.0974 -0.7589 -0.0924
 2622TIP3    H229358   6.664   6.266  16.501  1.4486  1.1985 -0.6494
 2623TIP3   OH229359   2.991   2.965   2.338  0.0429 -0.3937 -0.3007
 2623TIP3    H129360   2.996   3.033   2.270  1.7974 -1.4517 -1.3054
 2623TIP3    H229361   2.897   2.956   2.354 -0.4175  0.2435 -2.2525
 2624TIP3   OH229362   1.937   3.772   2.934 -0.9846 -0.3868 -0.3358
 2624TIP3    H129363   1.908   3.861   2.956  0.8273  0.7934 -2.3358
 2624TIP3    H229364   1.895   3.754   2.850 -1.3343 -1.4509  0.0568
 2625TIP3   OH229365   6.402   3.070   0.430  0.3389 -0.0102  0.1032
 2625TIP3    H129366   6.350   2.992   0.449 -1.1108  0.7544 -0.5485
 2625TIP3    H229367   6.465   3.075   0.502  0.2742 -1.6027  0.3078
 2626TIP3   OH229368   0.744   5.926  12.468 -0.2282 -0.0688  0.4787
 2626TIP3    H129369   0.769   5.923  12.376 -1.1549  0.1945  0.2052
 2626TIP3    H229370   0.718   5.836  12.489  2.1546 -0.6761  1.1516
 2627TIP3   OH229371   1.237   3.955   2.471 -0.6459 -0.5593  0.3074
 2627TIP3    H129372   1.163   3.928   2.418  0.3015 -1.6438 -0.5133
 2627TIP3    H229373   1.275   3.874   2.505  1.0616 -0.1783 -0.5507
 2628TIP3   OH229374   4.898   4.989   2.891  0.2423  0.3303  0.0336
 2628TIP3    H129375   4.829   5.029   2.839  0.6668  0.2914 -0.5709
 2628TIP3    H229376   4.856   4.968   2.974 -0.2792  0.9792 -0.0563
 2629TIP3   OH229377   0.654   6.534   2.259 -0.2180 -0.1539 -0.0705
 2629TIP3    H129378   0.661   6.442   2.285 -0.2992  0.1549  1.1019
 2629TIP3    H229379   0.744   6.561   2.241  0.1488  0.2057  2.0601
 2630TIP3   OH229380   1.566   4.450   0.155 -0.1610 -0.1178 -0.3930
 2630TIP3    H129381   1.561   4.374   0.214 -0.2171 -0.2093 -0.5139
 2630TIP3    H229382   1.492   4.505   0.181 -1.0417 -0.8328 -1.3001
 2631TIP3   OH229383   5.709   1.076  12.312 -0.1192 -0.3663 -0.3579
 2631TIP3    H129384   5.702   0.985  12.340  0.1794 -0.1484  0.4409
 2631TIP3    H229385   5.700   1.127  12.392  0.9985  0.2672 -0.6068
 2632TIP3   OH229386   5.470   3.145  14.679  0.5459  0.4433 -0.2238
 2632TIP3    H129387   5.563   3.167  14.676  0.5899  0.3031  0.0856
 2632TIP3    H229388   5.431   3.197  14.608  0.6504  1.5127  0.4673
 2633TIP3   OH229389   5.346   0.943  13.289 -0.4951 -0.1011 -0.8386
 2633TIP3    H129390   5.290   0.920  13.215 -2.2618  0.7727  0.1688
 2633TIP3    H229391   5.365   1.036  13.277  0.9509 -0.4380 -1.2842
 2634TIP3   OH229392   5.837   6.359   2.576  0.4010 -0.0782 -0.5748
 2634TIP3    H129393   5.886   6.431   2.615 -0.0292  1.3305 -2.4686
 2634TIP3    H229394   5.905   6.300   2.543  0.9546  1.5632 -2.6507
 2635TIP3   OH229395   1.384   2.277  12.041 -0.5679 -0.5542  0.7808
 2635TIP3    H129396   1.435   2.319  11.972 -1.6165  0.7200  0.7512
 2635TIP3    H229397   1.419   2.313  12.123 -0.3794 -0.8721  0.8428
 2636TIP3   OH229398   2.391   0.231   5.026  0.4037  0.3831  0.2428
 2636TIP3    H129399   2.349   0.236   5.113 -3.1014  0.2113 -1.2670
 2636TIP3    H229400   2.436   0.147   5.027  1.5652  0.9482  2.2877
 2637TIP3   OH229401   1.519   5.168  12.001  0.3053  0.2604  1.1978
 2637TIP3    H129402   1.519   5.263  11.999  1.4192  0.2718 -0.6818
 2637TIP3    H229403   1.512   5.141  11.909 -1.7986 -1.5229  1.8026
 2638TIP3   OH229404   2.007   4.713   5.130 -0.3953 -0.2252 -0.2246
 2638TIP3    H129405   2.060   4.757   5.065  1.4686  0.9430  1.9405
 2638TIP3    H229406   1.923   4.759   5.127  0.0603  0.5928 -0.9694
 2639TIP3   OH229407   1.376   3.283  15.897 -0.1168 -0.6627  0.1600
 2639TIP3    H129408   1.442   3.261  15.964  0.7723  0.9423 -0.1567
 2639TIP3    H229409   1.293   3.262  15.939  0.5062 -1.4722  1.0632
 2640TIP3   OH229410   0.234   4.906   3.704  0.0840 -0.0423 -0.2505
 2640TIP3    H129411   0.321   4.906   3.665  0.2203  0.6814  0.0455
 2640TIP3    H229412   0.178   4.950   3.640  0.3146  1.1764  0.3564
 2641TIP3   OH229413   6.511   0.300   3.852 -0.0240  0.2167 -0.0293
 2641TIP3    H129414   6.503   0.344   3.768 -1.2397  0.0142 -0.0351
 2641TIP3    H229415   6.468   0.216   3.839 -0.0488  0.1005  0.7484
 2642TIP3   OH229416   3.693   5.964   6.065  0.4988  0.0629 -0.5636
 2642TIP3    H129417   3.636   6.015   6.122  1.6163 -1.6692  2.3343
 2642TIP3    H229418   3.761   6.026   6.038 -0.4196  1.0891 -0.5884
 2643TIP3   OH229419   2.169   6.654  14.579 -0.3931  0.1522 -0.1924
 2643TIP3    H129420   2.074   6.647  14.568 -0.3708  0.6945 -0.7742
 2643TIP3    H229421   2.197   6.716  14.512  0.4381 -0.3392 -0.3168
 2644TIP3   OH229422   6.207   2.491  16.377 -0.1621 -0.1810  0.0143
 2644TIP3    H129423   6.238   2.494  16.286 -1.1430  0.6103 -0.3111
 2644TIP3    H229424   6.278   2.448  16.425  1.1825  1.0611 -0.7910
 2645TIP3   OH229425   4.521   0.320  16.295 -0.2902 -0.6441  0.5857
 2645TIP3    H129426   4.524   0.410  16.262 -0.6171 -0.3688  1.3039
 2645TIP3    H229427   4.581   0.319  16.369  0.0160 -1.1250  0.3424
 2646TIP3   OH229428   1.685   5.890   4.656  0.3404  0.0615 -0.2887
 2646TIP3    H129429   1.594   5.890   4.625 -0.0218  0.3342  0.7302
 2646TIP3    H229430   1.683   5.834   4.734  1.4481 -1.5109 -1.3280
 2647TIP3   OH229431   4.073   4.586  16.708  0.3416 -0.0912 -0.5314
 2647TIP3    H129432   4.047   4.497  16.687 -2.5086 -0.1380  2.3960
 2647TIP3    H229433   4.113   4.620  16.628 -1.1109 -3.0335 -2.6499
 2648TIP3   OH229434   2.509   5.612   3.278  0.4203 -0.0944  0.2465
 2648TIP3    H129435   2.431   5.584   3.326  1.0358 -2.1973  0.1176
 2648TIP3    H229436   2.563   5.655   3.344  0.4542 -1.3126  1.0423
 2649TIP3   OH229437   3.171   4.283   2.927 -0.0158 -0.5741  0.0085
 2649TIP3    H129438   3.092   4.284   2.873  0.8839 -0.8340 -1.3425
 2649TIP3    H229439   3.158   4.356   2.988 -0.9831 -0.1555 -0.6623
 2650TIP3   OH229440   2.581   3.451  11.556  0.3618  0.3858  0.0646
 2650TIP3    H129441   2.502   3.496  11.526  1.2955  0.5878 -2.3222
 2650TIP3    H229442   2.652   3.513  11.539  1.1454 -0.0520  1.5414
 2651TIP3   OH229443   3.704   6.654   1.931  0.0302 -0.4282 -0.3938
 2651TIP3    H129444   3.741   6.723   1.985  0.5107 -0.3789 -0.7744
 2651TIP3    H229445   3.694   6.579   1.990 -1.0716  0.1458  0.1651
 2652TIP3   OH229446   4.074   0.734  16.173  0.7849 -0.4666  0.1816
 2652TIP3    H129447   4.048   0.769  16.258 -1.0290  0.0982 -0.5425
 2652TIP3    H229448   4.057   0.806  16.111  0.8681 -1.2629 -0.8048
 2653TIP3   OH229449   0.500   5.037  16.794 -0.7034  0.0070 -0.4017
 2653TIP3    H129450   0.425   5.025  16.852  1.2816 -1.1103  2.1128
 2653TIP3    H229451   0.500   5.131  16.774 -1.6314  0.3719  1.1696
 2654TIP3   OH229452   1.617   0.458  14.109  0.1444  0.0199 -0.2562
 2654TIP3    H129453   1.547   0.418  14.160  0.4223 -0.3702 -0.1733
 2654TIP3    H229454   1.577   0.477  14.024  0.0413 -0.5711 -0.3454
 2655TIP3   OH229455   1.454   3.098   4.812 -0.3986  0.3394 -0.0073
 2655TIP3    H129456   1.519   3.103   4.742 -0.8011 -0.6398 -0.4821
 2655TIP3    H229457   1.479   3.020   4.861 -1.3422 -0.1983 -0.3525
 2656TIP3   OH229458   1.322   1.174  12.190 -0.1311  0.2857 -0.4476
 2656TIP3    H129459   1.298   1.201  12.279 -0.7915  0.4951 -0.6864
 2656TIP3    H229460   1.244   1.191  12.138  0.3636  0.4784 -1.1359
 2657TIP3   OH229461   5.085   1.692  13.568  0.6376  0.1622 -0.4806
 2657TIP3    H129462   5.089   1.788  13.563  0.6281  0.3377  1.8680
 2657TIP3    H229463   5.104   1.672  13.659  0.6728 -2.1012 -0.9354
 2658TIP3   OH229464   4.260   3.920  13.112  0.2452  0.2589 -0.1133
 2658TIP3    H129465   4.274   3.832  13.078  4.0553  0.2873  0.9502
 2658TIP3    H229466   4.230   3.907  13.202 -2.0403  0.1660 -0.8233
 2659TIP3   OH229467   4.415   3.076  10.368 -0.1098  0.1626  0.4742
 2659TIP3    H129468   4.350   3.017  10.330 -1.6598  2.0860 -0.0855
 2659TIP3    H229469   4.365   3.156  10.386  1.8056  1.1769  1.4993
 2660TIP3   OH229470   6.120   5.493  14.884 -0.2306 -0.3086  0.0475
 2660TIP3    H129471   6.196   5.492  14.942 -1.0897 -0.5201  1.1964
 2660TIP3    H229472   6.155   5.520  14.799  0.7412  1.8932  1.0890
 2661TIP3   OH229473   1.803   1.292   1.141 -0.2043 -0.1152  0.1639
 2661TIP3    H129474   1.728   1.233   1.132 -1.2951  1.3024 -0.4747
 2661TIP3    H229475   1.822   1.292   1.235 -0.3006 -1.2899  0.2074
 2662TIP3   OH229476   5.212   5.171   4.265  0.2005 -0.1220 -0.3691
 2662TIP3    H129477   5.164   5.118   4.201  0.1450  1.9871 -2.1994
 2662TIP3    H229478   5.151   5.181   4.338  0.9298 -4.1040  1.0100
 2663TIP3   OH229479   2.044   6.051  15.358  0.4113  0.0684  0.0599
 2663TIP3    H129480   2.043   6.031  15.264  0.7335 -1.1841  0.2987
 2663TIP3    H229481   2.121   6.005  15.391  2.8936  3.9496  0.2687
 2664TIP3   OH229482   1.269   4.201  11.940 -0.7752  0.2573 -0.5339
 2664TIP3    H129483   1.293   4.283  11.897 -2.2939  0.8483 -0.3143
 2664TIP3    H229484   1.302   4.133  11.881 -0.4712  1.0198 -1.2756
 2665TIP3   OH229485   0.791   4.542   6.496  0.7554  0.3213 -0.0697
 2665TIP3    H129486   0.710   4.513   6.537  1.3179  2.5625  2.9082
 2665TIP3    H229487   0.774   4.632   6.468  2.1196  0.7549  0.3990
 2666TIP3   OH229488   2.729   5.480  16.625 -0.1137 -0.7072 -0.2678
 2666TIP3    H129489   2.785   5.557  16.618 -0.4564 -0.5223 -1.0854
 2666TIP3    H229490   2.651   5.502  16.573 -0.0496 -1.7416 -0.8195
 2667TIP3   OH229491   3.945   3.687   2.342  0.0105  0.1521 -0.0665
 2667TIP3    H129492   3.926   3.781   2.346  1.6639  0.5524 -0.9052
 2667TIP3    H229493   3.990   3.675   2.259  1.1112 -1.1363  0.6782
 2668TIP3   OH229494   1.682   1.492   1.525  0.0514 -0.6247 -0.4490
 2668TIP3    H129495   1.776   1.490   1.509  0.1381 -1.8006  0.0547
 2668TIP3    H229496   1.671   1.553   1.598  0.3971 -0.3056 -0.6625
 2669TIP3   OH229497   0.922   0.254  12.155  0.7669 -0.6821 -0.2529
 2669TIP3    H129498   0.988   0.210  12.209 -0.1461 -1.8375 -0.0450
 2669TIP3    H229499   0.903   0.336  12.202  1.2252 -0.8675  0.2646
 2670TIP3   OH229500   5.304   3.338  10.458 -0.1405  0.2710  0.2876
 2670TIP3    H129501   5.240   3.294  10.514 -0.5714 -0.1788 -0.5520
 2670TIP3    H229502   5.270   3.427  10.449 -0.7409 -0.0098 -0.2844
 2671TIP3   OH229503   3.699   0.013   3.359  0.0959 -0.4517  0.4168
 2671TIP3    H129504   3.750   0.063   3.296 -1.3317 -1.4313 -1.6313
 2671TIP3    H229505   3.764  -0.037   3.409  1.5842  3.1937  2.5231
 2672TIP3   OH229506   5.386   1.556   0.199 -0.1624  0.3016  0.2413
 2672TIP3    H129507   5.329   1.511   0.137  2.8131 -2.2149 -0.9217
 2672TIP3    H229508   5.423   1.629   0.150  0.4740 -0.3442 -0.2567
 2673TIP3   OH229509   3.427   3.492  10.290 -0.3905 -0.0641 -0.4922
 2673TIP3    H129510   3.443   3.583  10.266 -1.6986  0.6150  1.0397
 2673TIP3    H229511   3.345   3.470  10.248 -1.6731  0.5027  1.5740
 2674TIP3   OH229512   3.542   4.431  16.535  0.2351  0.6039  0.2233
 2674TIP3    H129513   3.628   4.390  16.528  0.5982  0.7091  3.1896
 2674TIP3    H229514   3.485   4.361  16.567  0.0814  1.4765  1.9236
 2675TIP3   OH229515   4.985   1.077   1.932 -0.2150 -0.0686  0.4631
 2675TIP3    H129516   4.946   1.047   2.014 -0.1425  1.4891  1.0987
 2675TIP3    H229517   4.970   1.171   1.932  2.4847  0.4218  0.1299
 2676TIP3   OH229518   1.232   6.750   0.610  0.1887  0.2022 -0.7376
 2676TIP3    H129519   1.326   6.767   0.623 -0.3485  1.5341  2.3905
 2676TIP3    H229520   1.211   6.683   0.674 -1.2662  1.0957 -0.2406
 2677TIP3   OH229521   1.461   6.111  11.877  0.3988 -0.3636  0.2827
 2677TIP3    H129522   1.408   6.080  11.803  0.5977 -0.0315  0.0036
 2677TIP3    H229523   1.493   6.196  11.850 -1.2957  0.7594  1.5981
 2678TIP3   OH229524   4.781   1.327   4.543  0.3913 -0.5137 -0.9157
 2678TIP3    H129525   4.740   1.278   4.614  0.7485 -0.3734 -0.6095
 2678TIP3    H229526   4.775   1.270   4.467 -0.2047 -0.5692 -0.8309
 2679TIP3   OH229527   0.621   2.332  16.804  0.3135  0.0462  0.4260
 2679TIP3    H129528   0.690   2.270  16.780  1.1002  0.7467  0.8543
 2679TIP3    H229529   0.541   2.279  16.803  0.6654 -0.5188 -1.2061
 2680TIP3   OH229530   2.464   4.645   2.696  0.7109 -0.0407  0.2665
 2680TIP3    H129531   2.490   4.611   2.610  1.6822  0.2489  0.4289
 2680TIP3    H229532   2.490   4.737   2.694  0.8610 -0.0610  0.9105
 2681TIP3   OH229533   0.099   4.648   0.995  0.3884  0.5034  0.0454
 2681TIP3    H129534   0.019   4.618   1.037  0.7007  0.9969  1.0145
 2681TIP3    H229535   0.082   4.638   0.901 -1.3783  1.9632  0.1459
 2682TIP3   OH229536   6.576   1.846  11.746 -0.4301 -0.5461 -0.1073
 2682TIP3    H129537   6.652   1.874  11.694 -2.6501  1.3730 -2.5700
 2682TIP3    H229538   6.580   1.899  11.825  0.2192  0.3225 -0.7068
 2683TIP3   OH229539   3.423   4.269   3.628 -0.3421 -0.2948 -0.4623
 2683TIP3    H129540   3.371   4.192   3.605 -1.8240  0.7308 -0.6931
 2683TIP3    H229541   3.426   4.270   3.723  1.4275 -1.7128 -0.4405
 2684TIP3   OH229542   3.853   5.049   4.840  0.5036 -0.4366 -0.0190
 2684TIP3    H129543   3.844   4.966   4.887  2.4451 -1.3181 -1.0512
 2684TIP3    H229544   3.777   5.053   4.782  0.3187 -1.4456  0.1373
 2685TIP3   OH229545   1.341   5.266   6.515 -0.0943  0.1811  0.5029
 2685TIP3    H129546   1.313   5.175   6.521 -3.1960  0.9966 -0.0096
 2685TIP3    H229547   1.404   5.276   6.586  0.7180 -2.4294  0.2700
 2686TIP3   OH229548   0.442   1.600  15.659 -0.2238 -0.5059  0.6058
 2686TIP3    H129549   0.459   1.666  15.726 -0.1813 -0.3991  0.4896
 2686TIP3    H229550   0.451   1.647  15.576 -0.1843 -0.6582  0.5225
 2687TIP3   OH229551   1.848   4.046  13.520 -0.0206 -0.8439  0.4357
 2687TIP3    H129552   1.906   4.075  13.450  1.6923  0.5475  2.3202
 2687TIP3    H229553   1.761   4.046  13.480  0.8482  0.0760 -1.6224
 2688TIP3   OH229554   5.132   2.292   2.135 -0.7433  0.3537 -0.0904
 2688TIP3    H129555   5.187   2.323   2.062 -2.0653  1.0266 -0.8347
 2688TIP3    H229556   5.058   2.352   2.136 -1.6833 -0.7848  0.6313
 2689TIP3   OH229557   4.299   1.089  16.834 -0.3081 -0.7130  0.2166
 2689TIP3    H129558   4.296   1.128  16.747 -2.2543 -1.5967 -0.1448
 2689TIP3    H229559   4.222   1.124  16.879  0.7460 -0.1398  1.6691
 2690TIP3   OH229560   2.356   2.860   2.760 -0.5027  0.1332  0.2913
 2690TIP3    H129561   2.400   2.818   2.834  3.0887 -0.4779 -1.9351
 2690TIP3    H229562   2.354   2.953   2.784 -0.7045 -0.2068  1.6958
 2691TIP3   OH229563   0.240   2.725  12.648 -0.0334 -0.2456  1.2156
 2691TIP3    H129564   0.283   2.752  12.567 -0.7636 -3.0134 -0.2281
 2691TIP3    H229565   0.229   2.806  12.698 -1.0520  1.8840 -2.1359
 2692TIP3   OH229566   4.019   5.523  14.662 -0.0629  0.3274  0.4276
 2692TIP3    H129567   4.114   5.531  14.670 -0.1427  0.1206  1.8587
 2692TIP3    H229568   4.006   5.446  14.606  0.6102  0.1447  0.5137
 2693TIP3   OH229569   1.211   0.724   4.511 -1.0433 -0.0372  0.1886
 2693TIP3    H129570   1.216   0.692   4.420  0.1766  0.1864  0.1601
 2693TIP3    H229571   1.293   0.772   4.524 -0.6287 -1.0757  1.7776
 2694TIP3   OH229572   6.178   0.574   1.342  0.1134 -0.2207  0.0512
 2694TIP3    H129573   6.094   0.583   1.297 -0.0215 -1.1152  0.1097
 2694TIP3    H229574   6.243   0.602   1.278 -0.2199  0.4687  0.0010
 2695TIP3   OH229575   1.185   3.681  12.626  0.5282 -0.9490  0.3126
 2695TIP3    H129576   1.112   3.702  12.568  2.4532  2.0563 -1.2268
 2695TIP3    H229577   1.187   3.752  12.690  1.1095 -1.9267  1.4448
 2696TIP3   OH229578   0.825   4.820  12.411 -0.3354  0.2676 -0.6942
 2696TIP3    H129579   0.734   4.809  12.382  0.1405  0.1290 -2.2663
 2696TIP3    H229580   0.825   4.790  12.502 -2.1195  1.5258 -0.2241
 2697TIP3   OH229581   3.311   0.695   3.278  0.4328 -0.0222  0.2450
 2697TIP3    H129582   3.223   0.733   3.289 -0.6215 -2.5887  1.4772
 2697TIP3    H229583   3.294   0.606   3.248  2.5978 -0.7419  1.0123
 2698TIP3   OH229584   2.749   6.295   0.908 -0.0363 -0.0109 -0.3738
 2698TIP3    H129585   2.665   6.283   0.864  0.5103 -1.0982 -1.1688
 2698TIP3    H229586   2.750   6.387   0.933 -0.4211  0.6567 -2.5888
 2699TIP3   OH229587   0.698   3.974   6.592  0.3601  0.3401  0.1608
 2699TIP3    H129588   0.703   4.009   6.681  0.8181  0.3746  0.1236
 2699TIP3    H229589   0.776   4.009   6.548 -1.5927  3.1975 -1.2951
 2700TIP3   OH229590   4.405   1.693  16.942  0.9451 -0.1822  0.6084
 2700TIP3    H129591   4.483   1.739  16.974  1.2389 -0.2358 -0.0244
 2700TIP3    H229592   4.421   1.601  16.962 -0.6983  0.1248  4.1429
 2701TIP3   OH229593   3.140   6.584  14.343  0.0095  0.2841  0.1368
 2701TIP3    H129594   3.139   6.654  14.277  0.3471  1.4287  1.3205
 2701TIP3    H229595   3.054   6.543  14.335 -0.5259  1.4077  0.0320
 2702TIP3   OH229596   5.173   5.380   0.638  0.0460  0.0162 -0.3237
 2702TIP3    H129597   5.250   5.339   0.599  0.5347  1.1370 -0.5977
 2702TIP3    H229598   5.153   5.453   0.580 -0.4379  0.5216  0.4529
 2703TIP3   OH229599   3.415   3.699   0.714 -0.5833 -0.1802 -1.0906
 2703TIP3    H129600   3.393   3.776   0.767  0.1827 -0.4459 -0.3549
 2703TIP3    H229601   3.341   3.688   0.655 -0.7648  1.0329 -1.1043
 2704TIP3   OH229602   0.137   1.878  13.369  0.4119  0.5717 -0.3568
 2704TIP3    H129603   0.226   1.910  13.354 -0.1250  1.4155 -2.0840
 2704TIP3    H229604   0.093   1.890  13.284 -0.5399 -2.5743 -0.4163
 2705TIP3   OH229605   6.749   5.412   3.453  0.1418 -0.1194 -0.2113
 2705TIP3    H129606   6.783   5.364   3.528 -0.0411 -2.0204 -1.2601
 2705TIP3    H229607   6.825   5.427   3.397  0.2923  1.3632  0.3537
 2706TIP3   OH229608   4.543   4.088  16.724  0.3912  0.0566  0.4028
 2706TIP3    H129609   4.629   4.075  16.763 -0.0383 -0.1163  1.3273
 2706TIP3    H229610   4.507   4.163  16.771  0.6324  1.1069 -1.0352
 2707TIP3   OH229611   6.807   6.414  10.656  0.3995 -0.0364  0.0052
 2707TIP3    H129612   6.738   6.422  10.591  1.4259 -1.0571 -1.2526
 2707TIP3    H229613   6.850   6.500  10.657 -1.2859  0.8642  1.3492
 2708TIP3   OH229614   3.111   4.454   0.124  0.2014  0.2455 -0.1305
 2708TIP3    H129615   3.036   4.508   0.150 -1.0733 -1.4097 -0.2016
 2708TIP3    H229616   3.105   4.376   0.179  2.3604  0.3917  0.4226
 2709TIP3   OH229617   3.217   6.581  13.401 -0.1128  0.2321  0.0566
 2709TIP3    H129618   3.190   6.494  13.370 -1.5390  0.7884 -0.3471
 2709TIP3    H229619   3.134   6.625  13.422  0.6032  1.4173  0.4595
 2710TIP3   OH229620   0.942   1.907   1.006 -0.2270  0.4328  0.2791
 2710TIP3    H129621   0.974   1.817   1.012 -1.0452  0.0953 -0.2629
 2710TIP3    H229622   0.853   1.899   0.972 -1.0875  1.3098  2.1646
 2711TIP3   OH229623   2.864   5.743   4.168 -0.3861 -0.3256  0.1017
 2711TIP3    H129624   2.935   5.806   4.175 -1.6669  1.2413 -0.2901
 2711TIP3    H229625   2.810   5.776   4.096 -1.4482 -1.5328  0.3075
 2712TIP3   OH229626   4.632   3.939   2.006  0.0516 -0.0669 -0.3347
 2712TIP3    H129627   4.651   3.960   2.097  0.6876  1.2936 -0.7549
 2712TIP3    H229628   4.685   4.000   1.955 -1.2801  0.0912 -1.6146
 2713TIP3   OH229629   2.572   6.216  13.343  0.0755  0.1750  0.0113
 2713TIP3    H129630   2.661   6.224  13.310  0.5463 -0.3135  1.0998
 2713TIP3    H229631   2.581   6.223  13.438 -0.9120 -0.8947  0.2075
 2714TIP3   OH229632   2.496   4.063  16.068  0.3825  0.1228  0.7106
 2714TIP3    H129633   2.544   4.128  16.017 -1.4593 -0.4343 -1.8985
 2714TIP3    H229634   2.547   3.983  16.060 -0.3976 -0.2201 -1.2115
 2715TIP3   OH229635   5.715   2.997   0.120 -0.5023  0.0384 -0.7847
 2715TIP3    H129636   5.649   3.042   0.067  0.1334  0.6114 -1.0991
 2715TIP3    H229637   5.764   3.067   0.163  1.6604 -0.2025 -2.6632
 2716TIP3   OH229638   5.289   2.086  16.512  0.0258  0.7751 -0.1629
 2716TIP3    H129639   5.339   2.005  16.522 -0.3503  0.4447 -0.8505
 2716TIP3    H229640   5.347   2.155  16.545  1.3348  0.5292 -1.7969
 2717TIP3   OH229641   4.047   0.774  14.903  0.2399  0.0155 -0.1457
 2717TIP3    H129642   4.038   0.868  14.884  2.0232  0.3457  0.4683
 2717TIP3    H229643   4.065   0.770  14.997  1.3993 -0.8230 -0.3727
 2718TIP3   OH229644   3.141   5.507  11.123 -0.2482 -0.4173 -0.0875
 2718TIP3    H129645   3.152   5.539  11.033  0.4215  0.5500  0.3251
 2718TIP3    H229646   3.213   5.547  11.171  0.4342 -2.2804  0.5379
 2719TIP3   OH229647   3.631   0.239   2.023  0.3230  0.0602 -0.4222
 2719TIP3    H129648   3.619   0.288   2.105 -0.7996 -0.5073 -0.2257
 2719TIP3    H229649   3.547   0.195   2.009  1.0750 -1.3017 -0.9188
 2720TIP3   OH229650   2.456   2.519  11.350 -0.0244 -0.4090  0.0104
 2720TIP3    H129651   2.423   2.454  11.412  0.7739 -1.6720 -0.8243
 2720TIP3    H229652   2.425   2.487  11.264  1.9383 -0.7649 -0.6168
 2721TIP3   OH229653   1.274   3.118  16.442 -0.3425  0.7736  0.0167
 2721TIP3    H129654   1.197   3.175  16.435 -3.1687 -2.8310 -1.4693
 2721TIP3    H229655   1.239   3.034  16.469  3.8429  0.0055  4.2899
 2722TIP3   OH229656   5.954   6.097  11.762 -0.5313 -0.3135 -0.3605
 2722TIP3    H129657   5.885   6.152  11.726 -0.2482  0.3588  0.0928
 2722TIP3    H229658   5.930   6.087  11.855  0.3848  0.5972 -0.0062
 2723TIP3   OH229659   5.466   2.469   2.154 -0.1880 -0.2689  0.8413
 2723TIP3    H129660   5.396   2.534   2.149  1.8388  2.0278  0.4152
 2723TIP3    H229661   5.462   2.424   2.070 -2.4267 -1.6838  1.6298
 2724TIP3   OH229662   6.502   5.573   5.124  0.1503 -0.2078 -0.0007
 2724TIP3    H129663   6.418   5.603   5.157 -0.8046 -1.6419 -1.0097
 2724TIP3    H229664   6.489   5.563   5.030  1.3397 -0.7975 -0.1245
 2725TIP3   OH229665   6.596   0.536  16.527 -0.0873  0.5285  0.1027
 2725TIP3    H129666   6.508   0.543  16.562  0.0171  0.1919  0.4424
 2725TIP3    H229667   6.587   0.552  16.433 -0.5086  0.4962  0.1392
 2726TIP3   OH229668   3.721   2.978   0.528  0.1245  0.5241  0.0889
 2726TIP3    H129669   3.735   3.036   0.602 -0.2922  1.9969 -0.9338
 2726TIP3    H229670   3.644   3.014   0.484 -1.3171 -1.9075  0.4307
 2727TIP3   OH229671   1.605   2.991   3.681 -0.3950 -0.2397  0.5149
 2727TIP3    H129672   1.576   3.067   3.630  0.5237  1.0280  1.7993
 2727TIP3    H229673   1.675   2.953   3.629  0.1971  0.7419  0.5571
 2728TIP3   OH229674   2.566   4.139   5.908  0.0189  0.1609 -0.6754
 2728TIP3    H129675   2.540   4.226   5.938 -0.3384 -0.4090  0.6985
 2728TIP3    H229676   2.633   4.110   5.970  0.9287 -0.1333 -1.7397
 2729TIP3   OH229677   2.319   3.218  13.768  0.0983  0.5377 -0.6033
 2729TIP3    H129678   2.392   3.157  13.757 -0.5449 -0.0238 -1.9728
 2729TIP3    H229679   2.245   3.175  13.726 -0.5810  1.9089 -0.8714
 2730TIP3   OH229680   2.146   0.977   0.875  0.1442  0.1904  0.1690
 2730TIP3    H129681   2.073   0.915   0.867  0.0810  0.3316 -0.3539
 2730TIP3    H229682   2.217   0.925   0.913  0.3714 -0.4373 -1.0670
 2731TIP3   OH229683   3.988   6.776   3.503  0.3421  0.1284 -0.5777
 2731TIP3    H129684   4.053   6.796   3.435  0.9429 -0.3843 -0.1733
 2731TIP3    H229685   4.007   6.685   3.527 -0.4409  0.0213 -0.3459
 2732TIP3   OH229686   6.439   2.425   6.446 -0.3668  0.5566 -0.5032
 2732TIP3    H129687   6.441   2.515   6.480  0.0533  1.3698 -2.5541
 2732TIP3    H229688   6.369   2.383   6.496 -0.0828  1.7939  1.0212
 2733TIP3   OH229689   0.771   4.292   4.362 -0.3155  0.3066  0.5450
 2733TIP3    H129690   0.768   4.257   4.273 -2.8253  1.5577  0.0363
 2733TIP3    H229691   0.863   4.312   4.378  0.1627  0.2329 -1.8583
 2734TIP3   OH229692   4.453   2.242   3.778 -0.3579 -0.3586 -0.5578
 2734TIP3    H129693   4.432   2.149   3.782  2.6065 -1.1656 -1.0590
 2734TIP3    H229694   4.458   2.270   3.869 -0.3691 -0.9322 -0.3795
 2735TIP3   OH229695   1.537   3.931  16.079  0.2142  0.2281  0.0322
 2735TIP3    H129696   1.566   3.999  16.140  2.4217 -2.8496  2.7855
 2735TIP3    H229697   1.615   3.907  16.030 -1.2050  1.5774 -3.2339
 2736TIP3   OH229698   3.695   0.974   1.080  1.0853 -0.0968  0.0630
 2736TIP3    H129699   3.721   0.983   0.988 -0.4489 -0.1156 -0.3978
 2736TIP3    H229700   3.690   0.879   1.094 -0.0748 -0.1049 -0.2781
 2737TIP3   OH229701   5.528   0.492  15.681 -0.5318 -1.2367  0.2554
 2737TIP3    H129702   5.453   0.527  15.633 -0.4004 -0.7424  0.4093
 2737TIP3    H229703   5.530   0.541  15.763  0.8063 -0.2119 -0.3521
 2738TIP3   OH229704   0.791   4.150  14.856  0.0644  0.0354 -0.1059
 2738TIP3    H129705   0.883   4.173  14.847 -0.2903  1.9644  0.6867
 2738TIP3    H229706   0.783   4.116  14.945  0.1258 -0.8243 -0.4211
 2739TIP3   OH229707   1.733   4.602   4.716 -0.2453 -0.2528 -0.4336
 2739TIP3    H129708   1.743   4.509   4.736  2.3958 -0.3324 -1.6968
 2739TIP3    H229709   1.801   4.645   4.767 -2.9114  1.4214  2.0221
 2740TIP3   OH229710   4.958   4.763  15.638 -0.1494 -0.1466 -0.1347
 2740TIP3    H129711   4.991   4.852  15.625  0.6757 -0.0220  2.3175
 2740TIP3    H229712   5.027   4.720  15.689 -1.5195 -1.5080  0.6095
 2741TIP3   OH229713   0.357   0.121   1.746 -0.2261  0.0514 -0.2612
 2741TIP3    H129714   0.447   0.089   1.743 -0.5107 -0.7335 -0.6981
 2741TIP3    H229715   0.326   0.112   1.656 -2.0271 -3.5891  0.5122
 2742TIP3   OH229716   2.034   1.589   6.372 -0.3524  0.5786  0.7938
 2742TIP3    H129717   2.123   1.624   6.376 -0.1667  0.1378  0.5056
 2742TIP3    H229718   2.026   1.535   6.451 -0.2216  0.2688  0.5915
 2743TIP3   OH229719   5.535   3.276   1.283  0.1186  0.5821 -0.4431
 2743TIP3    H129720   5.492   3.360   1.298 -2.9879 -0.7818 -0.9865
 2743TIP3    H229721   5.475   3.228   1.225  1.7654 -2.0109 -0.1571
 2744TIP3   OH229722   5.573   2.295   3.978 -0.2628 -0.6364  0.4902
 2744TIP3    H129723   5.498   2.336   4.021  0.9746  0.1095  2.0000
 2744TIP3    H229724   5.593   2.354   3.905 -0.3197 -0.1092  0.8905
 2745TIP3   OH229725   3.539   6.574   3.126  0.0655 -0.1065  0.1694
 2745TIP3    H129726   3.483   6.522   3.069 -0.3578 -1.6837  1.9521
 2745TIP3    H229727   3.526   6.664   3.096 -0.7265 -0.7845 -1.6911
 2746TIP3   OH229728   6.173   1.857   3.637 -0.2906 -0.0524  0.1982
 2746TIP3    H129729   6.091   1.826   3.675 -0.3854 -0.9712 -0.7253
 2746TIP3    H229730   6.240   1.835   3.701 -0.8742  1.7276  1.4868
 2747TIP3   OH229731   3.957   4.207   2.425  0.3961 -0.2130 -0.1831
 2747TIP3    H129732   4.004   4.283   2.459  2.0165 -0.9385 -0.6775
 2747TIP3    H229733   3.957   4.221   2.330  1.7858 -1.3662 -0.3882
 2748TIP3   OH229734   0.761   2.522  12.085 -0.2405 -0.4877 -0.1821
 2748TIP3    H129735   0.823   2.458  12.119  0.3228 -0.2042 -0.6570
 2748TIP3    H229736   0.770   2.515  11.989 -0.5805 -0.0982 -0.2439
 2749TIP3   OH229737   0.592   5.290  12.289  0.2237  0.1407  0.1059
 2749TIP3    H129738   0.517   5.232  12.299 -0.4026  0.9142 -0.0330
 2749TIP3    H229739   0.564   5.373  12.327  1.0244  0.4274  0.0865
 2750TIP3   OH229740   5.284   3.265  11.055 -0.1550 -0.2103  0.2646
 2750TIP3    H129741   5.207   3.234  11.007 -0.5486  1.8090 -0.5062
 2750TIP3    H229742   5.253   3.276  11.145 -0.4049 -0.6594  0.2353
 2751TIP3   OH229743   4.136   2.231  11.391 -0.0777  0.1468  0.0137
 2751TIP3    H129744   4.097   2.157  11.345 -1.3557 -0.0968  1.4044
 2751TIP3    H229745   4.226   2.234  11.359 -1.2417  1.0167 -3.6928
 2752TIP3   OH229746   1.182   2.543   4.633  0.5433 -0.4806  0.2205
 2752TIP3    H129747   1.210   2.539   4.541  0.9779  0.0683  0.3225
 2752TIP3    H229748   1.220   2.624   4.666 -0.6168 -0.0628  0.5641
 2753TIP3   OH229749   1.194   2.560   2.744 -0.6776 -0.1967 -0.0899
 2753TIP3    H129750   1.149   2.487   2.701 -0.1239 -0.7952  0.3178
 2753TIP3    H229751   1.183   2.634   2.684 -2.3127 -0.2782  0.0678
 2754TIP3   OH229752   1.809   4.907  14.999  0.5715  0.4252 -0.0332
 2754TIP3    H129753   1.787   4.994  15.032 -0.6398 -0.1803  0.8908
 2754TIP3    H229754   1.834   4.921  14.908 -0.0964  1.6770 -0.0529
 2755TIP3   OH229755   4.006   0.550   3.555  1.4844 -0.0538  0.3182
 2755TIP3    H129756   3.990   0.483   3.489  1.3588 -0.8341  1.1131
 2755TIP3    H229757   4.048   0.502   3.627  0.5916  0.5399  1.2659
 2756TIP3   OH229758   4.735   1.922   2.471  0.3885  0.1129  0.9436
 2756TIP3    H129759   4.765   1.977   2.544  3.5642  2.8142 -2.0470
 2756TIP3    H229760   4.812   1.911   2.416 -1.2895 -3.6169 -1.0852
 2757TIP3   OH229761   0.637   4.007   4.718  0.4471  0.2758 -0.0557
 2757TIP3    H129762   0.626   3.916   4.692  1.8792 -0.2653  1.1074
 2757TIP3    H229763   0.667   4.051   4.639 -0.6925 -0.1361 -0.7471
 2758TIP3   OH229764   5.842   2.452   4.619 -0.4663  0.0178 -0.5512
 2758TIP3    H129765   5.918   2.426   4.671  0.3711 -1.3003 -2.3453
 2758TIP3    H229766   5.879   2.491   4.540 -1.6905  1.0189 -0.6513
 2759TIP3   OH229767   2.176   1.788   3.855 -0.1483 -0.6554 -0.3337
 2759TIP3    H129768   2.218   1.785   3.769  0.5448 -0.3342 -0.0171
 2759TIP3    H229769   2.086   1.817   3.837  0.3845  0.7832 -0.8251
 2760TIP3   OH229770   5.612   1.986  15.811  0.1138 -0.3406 -0.4531
 2760TIP3    H129771   5.519   2.001  15.827 -0.0602 -0.7620 -1.0141
 2760TIP3    H229772   5.614   1.909  15.753  0.7463  0.4517 -1.5294
 2761TIP3   OH229773   3.050   5.412   0.433  0.0624  0.2552  1.0002
 2761TIP3    H129774   3.051   5.333   0.488  0.2175 -0.6162 -0.2238
 2761TIP3    H229775   3.142   5.431   0.416  0.0099  0.4672  0.9468
 2762TIP3   OH229776   6.129   0.167  11.387  0.5568 -0.4213  0.1991
 2762TIP3    H129777   6.139   0.207  11.301  0.2566  0.3945  0.5317
 2762TIP3    H229778   6.183   0.089  11.383  1.7023  0.3611 -0.2468
 2763TIP3   OH229779   6.265   4.800  11.773 -0.0256  0.0982 -0.4589
 2763TIP3    H129780   6.338   4.861  11.760 -0.2863  1.0542  1.9937
 2763TIP3    H229781   6.187   4.855  11.769 -0.3004 -0.1259  1.1975
 2764TIP3   OH229782   0.383   5.745   4.123 -0.7816  0.0021  1.2205
 2764TIP3    H129783   0.329   5.804   4.175 -0.0337 -0.1927  2.2365
 2764TIP3    H229784   0.402   5.672   4.181 -0.0306 -0.2847  0.6296
 2765TIP3   OH229785   6.528   2.086   0.533 -0.2032  0.4851 -0.3135
 2765TIP3    H129786   6.563   2.086   0.444  0.1941  2.1767 -0.1878
 2765TIP3    H229787   6.442   2.127   0.525  0.2505  1.5589  0.2191
 2766TIP3   OH229788   6.280   3.768  12.187 -0.5425 -0.9653  0.1526
 2766TIP3    H129789   6.332   3.756  12.266 -1.0420 -1.5592  0.3968
 2766TIP3    H229790   6.201   3.812  12.217  0.0353  0.4612 -0.3030
 2767TIP3   OH229791   1.998   4.263  14.080 -0.0632 -0.4081 -0.1114
 2767TIP3    H129792   2.081   4.279  14.036  0.4533 -0.7338  0.7280
 2767TIP3    H229793   2.005   4.174  14.113  0.0414  0.2166  1.6401
 2768TIP3   OH229794   3.700   0.094  16.771  0.0714 -0.0387  0.4117
 2768TIP3    H129795   3.712  -0.001  16.764  0.3456  0.0274 -0.0688
 2768TIP3    H229796   3.618   0.110  16.724 -0.5092 -0.1580  1.3664
 2769TIP3   OH229797   6.327   0.859  13.774 -0.4146  0.2306  0.6859
 2769TIP3    H129798   6.267   0.801  13.820 -0.1434  0.1299  0.9204
 2769TIP3    H229799   6.276   0.938  13.757 -0.9817 -0.3187 -0.2049
 2770TIP3   OH229800   4.614   0.578  16.252  0.1054 -0.0929  0.0446
 2770TIP3    H129801   4.669   0.645  16.214 -1.4326  0.7863 -0.7361
 2770TIP3    H229802   4.560   0.625  16.317 -0.2453 -0.7664  0.2524
 2771TIP3   OH229803   0.364   0.035  12.398 -0.2425 -0.0447 -0.0107
 2771TIP3    H129804   0.323  -0.018  12.330 -0.7261  1.8808 -1.2838
 2771TIP3    H229805   0.416  -0.028  12.448 -0.6437 -1.6898 -1.5348
 2772TIP3   OH229806   5.382   2.559   4.570 -0.0219  0.0673 -0.0340
 2772TIP3    H129807   5.300   2.607   4.562 -1.0914 -1.7043 -0.1362
 2772TIP3    H229808   5.410   2.575   4.660  0.3377  1.8673 -0.4165
 2773TIP3   OH229809   4.750   1.267  14.186  0.0260  0.0502 -0.3907
 2773TIP3    H129810   4.747   1.207  14.112  0.0271  0.3106 -0.6017
 2773TIP3    H229811   4.811   1.226  14.248 -0.0459 -0.2104 -0.4948
 2774TIP3   OH229812   2.476   5.597  14.037 -0.3553  0.2993  0.1132
 2774TIP3    H129813   2.435   5.522  14.081  0.6929  0.6705  1.8179
 2774TIP3    H229814   2.448   5.673  14.088  1.2442  0.7038  0.4457
 2775TIP3   OH229815   2.095   2.616   4.609 -0.7368  0.4210 -0.6455
 2775TIP3    H129816   2.037   2.634   4.683 -0.1459  0.4244 -0.1741
 2775TIP3    H229817   2.039   2.575   4.544 -1.1033 -0.3056  0.1106
 2776TIP3   OH229818   6.335   0.236   0.322  0.2871  0.2043 -0.2319
 2776TIP3    H129819   6.305   0.324   0.346  1.1683  0.2735  0.6572
 2776TIP3    H229820   6.411   0.252   0.265  0.9607  0.0450  0.5904
 2777TIP3   OH229821   4.517   3.602  13.814 -0.4867  0.0889 -0.0161
 2777TIP3    H129822   4.567   3.619  13.894 -1.1267  1.1222  0.1781
 2777TIP3    H229823   4.506   3.688  13.773 -2.7000  0.0183  0.3120
 2778TIP3   OH229824   2.788   3.939   1.763 -0.2191 -0.5227  0.2874
 2778TIP3    H129825   2.819   3.866   1.709 -0.9317  0.2667 -1.2460
 2778TIP3    H229826   2.852   4.009   1.748  0.0981 -0.5913  1.2391
 2779TIP3   OH229827   2.482   6.516   5.906 -0.3983  0.5122  0.0878
 2779TIP3    H129828   2.536   6.466   5.845 -0.7581  0.4364 -0.1642
 2779TIP3    H229829   2.546   6.567   5.957  0.0735 -1.1112  1.1931
 2780TIP3   OH229830   4.711   3.634  12.031  0.3718 -0.0414  0.3800
 2780TIP3    H129831   4.785   3.646  12.091 -1.0726  1.0873  2.0354
 2780TIP3    H229832   4.707   3.539  12.017  0.0770 -0.4936  3.0533
 2781TIP3   OH229833   5.870   5.924  12.472  0.5755  0.5421  0.0135
 2781TIP3    H129834   5.811   5.869  12.524  0.9780  1.7776  1.8420
 2781TIP3    H229835   5.931   5.862  12.433 -1.2545 -0.6725 -1.1240
 2782TIP3   OH229836   6.568   5.409   2.204 -0.3102  0.5220 -0.7018
 2782TIP3    H129837   6.594   5.486   2.153 -0.4490  0.8149 -0.3403
 2782TIP3    H229838   6.642   5.349   2.197 -0.7952  0.0361 -2.2413
 2783TIP3   OH229839   5.549   2.819   2.148  0.2242  0.0847  0.0047
 2783TIP3    H129840   5.504   2.833   2.231  1.0173 -1.0562  0.6532
 2783TIP3    H229841   5.494   2.862   2.083  0.1867  2.0849  1.2578
 2784TIP3   OH229842   2.171   5.864  11.305  0.1672  0.6183 -0.4620
 2784TIP3    H129843   2.210   5.951  11.297  0.9602  0.5260  1.6676
 2784TIP3    H229844   2.242   5.809  11.338 -0.8523 -0.3828  0.1432
 2785TIP3   OH229845   4.013   3.956  15.275 -0.2757  0.2329  0.3702
 2785TIP3    H129846   4.034   3.863  15.272 -1.1442  0.0378 -0.0380
 2785TIP3    H229847   3.997   3.974  15.367  1.9702  0.4870  0.7749
 2786TIP3   OH229848   5.907   3.329   0.657 -0.1919  0.1783  0.2263
 2786TIP3    H129849   5.988   3.330   0.606 -0.8541 -1.7970 -1.0104
 2786TIP3    H229850   5.875   3.239   0.649 -2.5311  0.8912  0.6344
 2787TIP3   OH229851   2.966   5.871   3.181  0.1998 -0.2419 -0.3996
 2787TIP3    H129852   2.915   5.924   3.242 -0.0653 -1.8431  0.8239
 2787TIP3    H229853   2.963   5.921   3.099 -0.0651  1.5906  0.6641
 2788TIP3   OH229854   4.954   5.910   6.424  0.4358 -0.2619 -0.1108
 2788TIP3    H129855   4.945   5.814   6.420  0.5056 -0.2973  0.4587
 2788TIP3    H229856   5.048   5.925   6.434  0.5653 -0.0738 -1.4955
 2789TIP3   OH229857   2.514   5.233   1.167  0.3525 -0.0025 -0.2567
 2789TIP3    H129858   2.464   5.216   1.086 -1.6468  1.9678  0.4583
 2789TIP3    H229859   2.522   5.147   1.208 -1.2578 -0.6208 -1.1175
 2790TIP3   OH229860   6.774   0.630   2.698 -0.1503  0.1127 -0.7544
 2790TIP3    H129861   6.721   0.608   2.622  0.5084 -1.7586 -0.7110
 2790TIP3    H229862   6.713   0.675   2.757 -1.7730 -2.0341 -0.6757
 2791TIP3   OH229863   1.975   0.738   6.646  0.5970 -0.1755 -0.1749
 2791TIP3    H129864   1.978   0.825   6.606  0.7796 -0.0118  0.1958
 2791TIP3    H229865   2.067   0.717   6.663  0.4287  0.4623  1.6853
 2792TIP3   OH229866   3.749   0.939  14.849  0.7698  0.1133 -0.1301
 2792TIP3    H129867   3.753   0.869  14.784  0.8793 -0.7030  0.7303
 2792TIP3    H229868   3.697   0.903  14.920  0.9810  0.8402  0.4101
 2793TIP3   OH229869   3.987   0.452   3.039 -0.2460  0.1277 -0.0901
 2793TIP3    H129870   4.070   0.431   2.995 -1.0326 -0.4609 -1.3380
 2793TIP3    H229871   3.984   0.547   3.040 -0.2239  0.1589 -1.3855
 2794TIP3   OH229872   1.696   3.538  11.897  0.6267  0.4170 -0.0058
 2794TIP3    H129873   1.708   3.476  11.825 -0.3956  2.2603 -1.8746
 2794TIP3    H229874   1.685   3.623  11.853 -0.2001  1.5913  2.3379
 2795TIP3   OH229875   1.709   3.798  13.428 -0.6480 -0.7433  0.1499
 2795TIP3    H129876   1.647   3.865  13.399 -0.1617 -0.7638 -0.9664
 2795TIP3    H229877   1.790   3.847  13.446 -0.5506 -0.9142  0.1751
 2796TIP3   OH229878   4.648   3.121  16.470  0.2106  0.4882 -0.6127
 2796TIP3    H129879   4.679   3.138  16.559  0.7255 -0.7943 -0.5260
 2796TIP3    H229880   4.727   3.110  16.418 -0.0863  1.4523 -1.2878
 2797TIP3   OH229881   1.809   1.356   5.113  0.5009  0.6297 -0.3647
 2797TIP3    H129882   1.817   1.285   5.050 -0.6345  0.2684 -0.1299
 2797TIP3    H229883   1.886   1.411   5.098 -0.0137  0.8710 -2.4345
 2798TIP3   OH229884   0.516   2.393   1.151  0.1210  0.5704  0.1516
 2798TIP3    H129885   0.455   2.462   1.178 -1.8630 -1.0606  0.0709
 2798TIP3    H229886   0.602   2.431   1.166 -0.8649  3.0754  0.0933
 2799TIP3   OH229887   4.769   2.012  16.550 -0.2442 -0.6759 -0.4071
 2799TIP3    H129888   4.796   2.099  16.581 -1.7774  0.6114 -2.3934
 2799TIP3    H229889   4.847   1.975  16.511  0.3622 -0.0522  0.1830
 2800TIP3   OH229890   4.488   4.550   0.691 -0.0298 -0.0222  0.8748
 2800TIP3    H129891   4.423   4.619   0.679  2.8660  2.9338  0.7438
 2800TIP3    H229892   4.475   4.520   0.782 -2.2283 -0.4160  0.4927
 2801TIP3   OH229893   2.082   1.779   1.559 -0.7146  0.4388  0.6680
 2801TIP3    H129894   2.055   1.740   1.642 -1.0681 -2.9304 -0.8343
 2801TIP3    H229895   2.007   1.829   1.529 -1.1816  0.3241  1.6211
 2802TIP3   OH229896   4.617   2.616   0.154 -0.1439 -0.2767  0.6903
 2802TIP3    H129897   4.634   2.628   0.060  0.6875 -0.8743  0.7511
 2802TIP3    H229898   4.670   2.683   0.196 -0.7527  0.1907  0.7319
 2803TIP3   OH229899   5.342   2.024  15.823  0.0372 -0.9050 -0.3260
 2803TIP3    H129900   5.272   2.089  15.822  0.4830 -0.3510  1.2555
 2803TIP3    H229901   5.322   1.966  15.750 -0.8494  0.5074 -1.2537
 2804TIP3   OH229902   2.759   3.325  13.638 -0.2445 -0.0046 -0.7522
 2804TIP3    H129903   2.797   3.371  13.563 -0.0245  1.0417 -0.0245
 2804TIP3    H229904   2.817   3.250  13.652  0.1806  0.2486 -1.1264
 2805TIP3   OH229905   6.751   3.182   0.184 -0.7399  0.2250  0.3962
 2805TIP3    H129906   6.846   3.194   0.183 -0.6606 -0.3793  0.2882
 2805TIP3    H229907   6.720   3.220   0.102 -0.5526  0.0882  0.2644
 2806TIP3   OH229908   5.305   5.211  15.790 -0.0634 -0.0773 -0.6234
 2806TIP3    H129909   5.342   5.257  15.865 -0.8913  0.2860 -0.4257
 2806TIP3    H229910   5.313   5.273  15.718 -1.1247  0.3777 -0.3705
 2807TIP3   OH229911   2.788   4.365   6.204 -0.3226 -0.1239 -0.2482
 2807TIP3    H129912   2.806   4.410   6.287 -2.3725 -0.3227  0.3447
 2807TIP3    H229913   2.866   4.311   6.189  1.0289  1.5503  0.3949
 2808TIP3   OH229914   5.300   5.522  10.457  0.0163  0.1506  0.2089
 2808TIP3    H129915   5.346   5.442  10.433 -1.9736 -0.8333 -0.4614
 2808TIP3    H229916   5.359   5.592  10.428  1.8675 -1.0134  0.9522
 2809TIP3   OH229917   2.572   0.044   5.057 -0.3730 -0.6707  0.1289
 2809TIP3    H129918   2.595   0.045   4.964  3.1407 -0.7949  0.8607
 2809TIP3    H229919   2.653   0.017   5.101 -2.0491 -1.0785  3.2126
 2810TIP3   OH229920   1.792   5.592  14.553 -1.6021 -0.4715 -0.7200
 2810TIP3    H129921   1.846   5.669  14.533 -0.2618 -0.8181  1.3114
 2810TIP3    H229922   1.724   5.593  14.485 -0.3963  1.2891 -2.0125
 2811TIP3   OH229923   2.046   2.262  14.287  0.3186  0.2459  0.2925
 2811TIP3    H129924   2.041   2.282  14.380 -0.6152  0.1744  0.2620
 2811TIP3    H229925   1.957   2.273  14.255  0.6907  0.6001 -0.6632
 2812TIP3   OH229926   1.283   0.423  16.908  0.3950  0.0286  0.0950
 2812TIP3    H129927   1.328   0.486  16.965  1.0047  1.4131 -1.8320
 2812TIP3    H229928   1.355   0.371  16.870 -0.0158 -0.9428  0.5974
 2813TIP3   OH229929   1.767   0.821  16.406  0.1459 -0.6153  0.0545
 2813TIP3    H129930   1.740   0.732  16.427 -1.9380  0.1503  0.9946
 2813TIP3    H229931   1.684   0.869  16.397  1.1452  1.7446  2.1082
 2814TIP3   OH229932   6.544   2.017   5.175  0.1143 -0.0204 -0.3408
 2814TIP3    H129933   6.524   2.081   5.107  0.2272  1.1920  0.7297
 2814TIP3    H229934   6.626   2.049   5.214  0.1743 -0.8219  0.2144
 2815TIP3   OH229935   6.303   5.396  11.754 -0.3904  0.2815  0.1268
 2815TIP3    H129936   6.385   5.418  11.799 -0.2220 -0.8768  0.4412
 2815TIP3    H229937   6.245   5.470  11.772  0.2455  0.6352  0.7965
 2816TIP3   OH229938   6.207   2.147  15.122 -0.1828  0.7644 -0.6010
 2816TIP3    H129939   6.149   2.223  15.125 -0.8387  0.2537  0.9004
 2816TIP3    H229940   6.257   2.152  15.204 -1.1731 -1.0686  0.2092
 2817TIP3   OH229941   3.450   4.745  12.009 -0.1988  0.3366 -0.4186
 2817TIP3    H129942   3.526   4.697  12.042 -0.8202 -0.6613 -0.4110
 2817TIP3    H229943   3.450   4.728  11.914 -0.7047 -0.0890 -0.3445
 2818TIP3   OH229944   3.063   5.640  12.682 -0.0310 -0.2571  0.1211
 2818TIP3    H129945   3.114   5.668  12.606 -0.9760  1.1890 -0.0122
 2818TIP3    H229946   3.099   5.554  12.704  0.1169 -0.8187 -2.0784
 2819TIP3   OH229947   0.692   2.673   6.533  0.3800 -0.6016 -0.4785
 2819TIP3    H129948   0.623   2.738   6.528  0.2948 -0.4867  1.4317
 2819TIP3    H229949   0.773   2.722   6.517  0.2333 -0.2119 -0.0361
 2820TIP3   OH229950   3.129   3.666  16.888 -0.2045  0.2312  0.2251
 2820TIP3    H129951   3.192   3.737  16.894  0.7571 -0.6378  0.8228
 2820TIP3    H229952   3.065   3.695  16.822  0.7759  1.1667 -0.3388
 2821TIP3   OH229953   0.538   2.349   3.891  0.4429  0.6531  0.0633
 2821TIP3    H129954   0.613   2.301   3.927  0.9923  0.9698 -0.6208
 2821TIP3    H229955   0.530   2.427   3.946  1.7355  1.5041 -0.8901
 2822TIP3   OH229956   1.925   4.694   3.918  0.3053 -0.2014  0.5864
 2822TIP3    H129957   1.852   4.751   3.892  1.1370  1.1453  1.1001
 2822TIP3    H229958   1.931   4.629   3.848 -0.5519  0.4649 -0.1255
 2823TIP3   OH229959   6.620   4.636   6.123 -0.2946  0.1575  0.3215
 2823TIP3    H129960   6.670   4.611   6.200  0.3594 -0.5049 -0.2954
 2823TIP3    H229961   6.580   4.555   6.092 -2.0485  0.7293  0.9791
 2824TIP3   OH229962   3.260   0.763   2.266  0.8145  0.1836 -0.1589
 2824TIP3    H129963   3.200   0.835   2.282 -0.7607 -1.1521  0.2123
 2824TIP3    H229964   3.266   0.716   2.349 -1.2906 -2.3131 -1.2675
 2825TIP3   OH229965   1.316   0.401  13.710  0.3717  0.2157 -0.2913
 2825TIP3    H129966   1.241   0.365  13.757 -0.3166  0.7182 -0.9868
 2825TIP3    H229967   1.314   0.360  13.624  1.7865 -0.9011  0.1702
 2826TIP3   OH229968   2.037   3.884   0.181  0.3895  0.4356  0.0400
 2826TIP3    H129969   1.992   3.948   0.236 -0.8150 -1.4758  1.3994
 2826TIP3    H229970   1.968   3.845   0.127  0.6940 -1.1490  0.7371
 2827TIP3   OH229971   1.648   6.407  13.065 -0.1921  0.3937 -0.0078
 2827TIP3    H129972   1.734   6.430  13.032 -0.7987 -1.1240 -2.9970
 2827TIP3    H229973   1.592   6.481  13.040 -0.2109  0.2759 -0.3179
 2828TIP3   OH229974   3.589   0.885   2.977 -0.4523 -0.2607 -0.3689
 2828TIP3    H129975   3.680   0.891   2.948 -0.3528  0.3295  0.0389
 2828TIP3    H229976   3.576   0.793   2.999  0.5328 -0.0835  1.0926
 2829TIP3   OH229977   2.042   2.237  13.596  0.1370  0.7243 -0.0403
 2829TIP3    H129978   2.101   2.302  13.558  0.0241  1.3038  0.7427
 2829TIP3    H229979   1.955   2.275  13.586  0.1184  0.9656  0.9056
 2830TIP3   OH229980   3.671   4.949  16.728 -0.0961  0.4903  0.5026
 2830TIP3    H129981   3.625   4.902  16.798  0.0614  1.9088  1.6015
 2830TIP3    H229982   3.762   4.921  16.737 -0.2526 -0.1729  0.1261
 2831TIP3   OH229983   0.824   2.756  15.563  0.2859  0.1012 -0.1090
 2831TIP3    H129984   0.788   2.669  15.583 -2.6421  1.4003  0.7241
 2831TIP3    H229985   0.776   2.785  15.486 -0.7817  2.0304  1.2074
 2832TIP3   OH229986   4.154   0.260   4.259 -0.4672  0.0110 -0.8132
 2832TIP3    H129987   4.197   0.201   4.197  2.0634  0.0160  0.7860
 2832TIP3    H229988   4.140   0.206   4.338 -1.7948  0.5373 -0.6538
 2833TIP3   OH229989   4.553   2.946   1.193 -0.0098 -0.0462  0.6164
 2833TIP3    H129990   4.589   2.996   1.267  0.1021 -0.1219  0.6139
 2833TIP3    H229991   4.550   2.856   1.225 -0.9702  0.0779  0.9080
 2834TIP3   OH229992   1.355   6.725   5.522 -0.7094  0.2337 -0.7735
 2834TIP3    H129993   1.293   6.765   5.583  0.5081  0.0232  0.6492
 2834TIP3    H229994   1.408   6.799   5.490  0.3895  0.0394  0.5085
 2835TIP3   OH229995   5.722   1.728  11.792 -0.1570 -0.3991  0.0941
 2835TIP3    H129996   5.818   1.726  11.794 -0.1655 -1.1889  2.4447
 2835TIP3    H229997   5.701   1.744  11.700  2.2209  0.2798 -0.4164
 2836TIP3   OH229998   3.229   1.574   3.346  0.1803  0.4445 -0.3773
 2836TIP3    H129999   3.216   1.529   3.262 -0.4108  1.4396 -0.8369
 2836TIP3    H230000   3.162   1.642   3.347 -1.5116 -1.1249  2.0671
 2837TIP3   OH230001   3.910   0.954   4.607 -0.2537 -0.0275  0.2019
 2837TIP3    H130002   3.923   1.046   4.583  1.3636 -0.1295  0.5702
 2837TIP3    H230003   3.891   0.956   4.701  1.1582 -0.1279  0.5158
 2838TIP3   OH230004   4.171   4.084   4.975  0.5979 -0.3180  0.3526
 2838TIP3    H130005   4.135   4.062   5.061 -0.7935  0.4339 -0.0065
 2838TIP3    H230006   4.208   4.002   4.943 -1.9775 -1.5376  0.2171
 2839TIP3   OH230007   2.882   0.445   4.489  0.0198 -0.1603 -0.8435
 2839TIP3    H130008   2.873   0.368   4.545  0.0854  0.8457  0.6181
 2839TIP3    H230009   2.870   0.412   4.400 -0.6471 -1.7245 -0.2065
 2840TIP3   OH230010   0.572   5.879  14.323 -1.0174  0.2139  0.6720
 2840TIP3    H130011   0.633   5.918  14.385  0.3917  0.8705 -1.0228
 2840TIP3    H230012   0.485   5.899  14.358 -0.4808  5.0798  0.0010
 2841TIP3   OH230013   3.252   2.581   3.727  0.3226 -0.7985 -0.1680
 2841TIP3    H130014   3.233   2.671   3.753 -0.4695 -1.5022  1.9154
 2841TIP3    H230015   3.211   2.572   3.641  0.3311  0.7927 -0.3669
 2842TIP3   OH230016   6.341   5.535  15.102 -0.1601  0.3242 -0.1455
 2842TIP3    H130017   6.328   5.607  15.163  0.0868  0.1381  0.1285
 2842TIP3    H230018   6.422   5.493  15.132 -0.2716 -0.0275 -0.3416
 2843TIP3   OH230019   0.514   2.549   4.083  0.3616 -0.4699 -0.0001
 2843TIP3    H130020   0.557   2.537   4.168 -0.6737 -0.7459  0.4947
 2843TIP3    H230021   0.447   2.615   4.098 -0.8932 -1.6395 -0.1928
 2844TIP3   OH230022   0.636   3.280  16.131 -0.6255  0.2705 -0.0480
 2844TIP3    H130023   0.633   3.360  16.077  1.4166 -0.4727 -1.4088
 2844TIP3    H230024   0.730   3.260  16.137 -0.7508  0.1293  3.6206
 2845TIP3   OH230025   3.803   3.555  13.863  0.2518 -0.2734 -0.1930
 2845TIP3    H130026   3.803   3.504  13.782  0.1799 -1.8478  0.7553
 2845TIP3    H230027   3.823   3.491  13.931 -1.7768  0.5618  1.2939
 2846TIP3   OH230028   2.854   1.087   2.991 -0.1944 -0.2721  0.3733
 2846TIP3    H130029   2.816   1.101   3.078  1.1925 -1.1828  1.1577
 2846TIP3    H230030   2.795   1.024   2.949 -0.3996 -0.4993  0.9957
 2847TIP3   OH230031   2.305   5.406  14.638  0.3375  0.1083  0.1805
 2847TIP3    H130032   2.395   5.375  14.650 -0.0004 -1.0080 -0.0430
 2847TIP3    H230033   2.276   5.364  14.557 -0.1977  0.9256 -0.0620
 2848TIP3   OH230034   6.617   5.468  15.578  0.2732  0.0726  0.0751
 2848TIP3    H130035   6.694   5.524  15.590 -0.2872  0.9188 -0.1560
 2848TIP3    H230036   6.546   5.517  15.620  0.1831 -1.5594  1.9830
 2849TIP3   OH230037   2.373   1.497   0.697  0.0374  0.2047 -0.0870
 2849TIP3    H130038   2.423   1.556   0.641 -0.1370  1.8096  1.3584
 2849TIP3    H230039   2.433   1.474   0.768 -0.4993  0.2031  0.3737
 2850TIP3   OH230040   4.686   5.324   5.212  0.1249  0.1379 -0.3464
 2850TIP3    H130041   4.615   5.295   5.269  0.5912 -0.5643 -0.1109
 2850TIP3    H230042   4.753   5.358   5.272  0.7582 -0.9102 -0.4436
 2851TIP3   OH230043   2.617   6.617  13.432  0.5752  0.3833  0.6563
 2851TIP3    H130044   2.638   6.707  13.458  0.8039  0.1353  1.3461
 2851TIP3    H230045   2.553   6.588  13.497  1.1784 -0.2536  0.9790
 2852TIP3   OH230046   5.922   0.022   1.328 -0.4916  0.1047 -0.1373
 2852TIP3    H130047   5.921  -0.042   1.257 -0.9223 -1.7630  1.4727
 2852TIP3    H230048   5.841   0.072   1.317 -0.2986  0.1991 -1.2430
 2853TIP3   OH230049   2.083   3.429  13.790  0.3212  0.1511  0.2881
 2853TIP3    H130050   2.069   3.460  13.879 -1.1762 -1.5226  0.6922
 2853TIP3    H230051   2.177   3.438  13.776  0.6824 -0.1657  2.2814
 2854TIP3   OH230052   1.850   1.674  13.492 -0.3150  0.1706  0.0767
 2854TIP3    H130053   1.846   1.768  13.477  0.9585  0.0421 -1.3616
 2854TIP3    H230054   1.943   1.655  13.502 -0.5283 -0.9821  0.0535
 2855TIP3   OH230055   5.659   0.895   5.636 -0.2300 -0.2255 -0.1623
 2855TIP3    H130056   5.597   0.968   5.634 -1.2010 -0.9848 -2.7405
 2855TIP3    H230057   5.631   0.841   5.710 -0.9239  0.8425  0.3798
 2856TIP3   OH230058   5.312   4.931   3.803  0.5659  0.1690  0.0114
 2856TIP3    H130059   5.272   4.945   3.717  1.6907  0.4572 -0.4765
 2856TIP3    H230060   5.340   4.839   3.801 -0.2724 -0.1133  0.4576
 2857TIP3   OH230061   3.162   3.971   2.079 -0.2691  0.0015 -0.0556
 2857TIP3    H130062   3.158   3.878   2.104 -1.5096 -0.0606 -0.3952
 2857TIP3    H230063   3.116   4.016   2.150  0.2223  0.3463  0.0434
 2858TIP3   OH230064   5.396   6.535  11.467  0.5223  0.3792 -0.1628
 2858TIP3    H130065   5.439   6.597  11.526  0.3039  0.6004 -0.2371
 2858TIP3    H230066   5.304   6.535  11.495  0.7453 -0.8437  0.6574
 2859TIP3   OH230067   0.038   4.873   3.426 -0.5460  0.2240  0.6823
 2859TIP3    H130068   0.063   4.815   3.354  1.0921  1.2515  0.3764
 2859TIP3    H230069   0.032   4.817   3.503 -3.1030 -1.0526 -0.3170
 2860TIP3   OH230070   1.423   0.819   6.017  0.2909 -0.1166  0.3053
 2860TIP3    H130071   1.404   0.742   6.071  0.2032 -1.2806 -1.3207
 2860TIP3    H230072   1.509   0.800   5.979  0.0420  0.3570 -0.5049
 2861TIP3   OH230073   0.786   6.055   2.146 -0.5852 -0.2297 -0.4291
 2861TIP3    H130074   0.786   6.032   2.239 -2.3847  1.4647  0.0457
 2861TIP3    H230075   0.772   5.972   2.100 -0.4794 -0.9624  0.8348
 2862TIP3   OH230076   2.893   4.191  12.726  0.3177 -0.5234  0.5849
 2862TIP3    H130077   2.874   4.261  12.789 -1.5075 -0.0043 -0.4667
 2862TIP3    H230078   2.882   4.110  12.776 -1.1382 -0.1218  0.9633
 2863TIP3   OH230079   2.972   6.065  16.953  0.2702 -0.8011 -0.0612
 2863TIP3    H130080   3.016   6.019  16.882 -1.4628  0.1291 -1.8328
 2863TIP3    H230081   3.015   6.150  16.957  1.6030 -1.5029  1.3155
 2864TIP3   OH230082   4.452   2.141  10.917 -0.0253  0.0771 -0.4207
 2864TIP3    H130083   4.457   2.054  10.955  0.5268 -0.4728 -1.6946
 2864TIP3    H230084   4.364   2.147  10.881 -0.0272  0.0028 -0.4283
 2865TIP3   OH230085   2.074   3.284   1.944  0.8845 -0.3936  0.5774
 2865TIP3    H130086   2.061   3.191   1.957  1.8733 -0.8344 -1.1884
 2865TIP3    H230087   2.099   3.318   2.030 -0.7010 -1.4961  1.5111
 2866TIP3   OH230088   3.676   6.136  14.484  0.5788  0.2683  0.2299
 2866TIP3    H130089   3.662   6.050  14.445  1.4201  0.8102 -1.3509
 2866TIP3    H230090   3.770   6.149  14.481  0.5986  0.6582  1.7902
 2867TIP3   OH230091   3.817   2.609   2.719 -0.3990 -0.8749  0.2897
 2867TIP3    H130092   3.852   2.561   2.644  1.6962 -0.5656  1.0081
 2867TIP3    H230093   3.803   2.543   2.786  0.8031 -0.7544  0.6819
 2868TIP3   OH230094   0.640   1.606  12.977  0.4206 -0.2072 -0.1012
 2868TIP3    H130095   0.559   1.556  12.978 -0.0096  0.4491 -1.1312
 2868TIP3    H230096   0.677   1.592  13.064 -1.3148  0.3161  0.7687
 2869TIP3   OH230097   5.359   0.108  12.525  0.3265 -0.5613  0.4030
 2869TIP3    H130098   5.420   0.177  12.549  0.1889 -0.8993  1.8323
 2869TIP3    H230099   5.282   0.124  12.580 -1.7207  0.9581 -2.6103
 2870TIP3   OH230100   4.688   0.189  14.214 -0.2885 -0.7211  0.2976
 2870TIP3    H130101   4.782   0.201  14.227 -0.7151  2.9808  1.1441
 2870TIP3    H230102   4.678   0.177  14.120  0.9904 -0.3689  0.1017
 2871TIP3   OH230103   4.383   1.373   1.499 -0.0357 -0.0777 -0.2144
 2871TIP3    H130104   4.386   1.277   1.496 -1.4114 -0.1405 -0.5319
 2871TIP3    H230105   4.393   1.394   1.592 -0.3855 -0.5721 -0.0553
 2872TIP3   OH230106   2.375   4.361  14.462 -0.0331 -0.2809  0.1994
 2872TIP3    H130107   2.335   4.395  14.542  1.5513  0.5444  0.6654
 2872TIP3    H230108   2.329   4.406  14.391 -0.8876 -0.4088  0.6508
 2873TIP3   OH230109   3.308   5.416   3.165 -0.1747  0.1133 -0.2113
 2873TIP3    H130110   3.230   5.468   3.143 -0.5661  1.1418  3.0306
 2873TIP3    H230111   3.381   5.462   3.124 -0.9395  0.9483 -0.6551
 2874TIP3   OH230112   6.317   2.661  13.349  0.0866 -0.2075  0.5698
 2874TIP3    H130113   6.312   2.669  13.444 -1.3601 -0.3833  0.5335
 2874TIP3    H230114   6.304   2.568  13.332 -0.7727 -0.0304  0.1689
 2875TIP3   OH230115   2.360   5.875   3.528 -0.1640 -0.5489 -0.5791
 2875TIP3    H130116   2.325   5.799   3.482 -0.5891  1.0441 -3.0989
 2875TIP3    H230117   2.455   5.861   3.529 -0.1366 -0.6092 -2.0783
 2876TIP3   OH230118   4.058   1.074  10.893  0.0880 -0.0093 -0.8039
 2876TIP3    H130119   4.004   1.095  10.818 -0.5459 -0.2326 -0.4207
 2876TIP3    H230120   4.146   1.063  10.857  0.2403  2.0852 -1.1789
 2877TIP3   OH230121   3.662   0.566  12.956 -0.0181  0.8139  0.0873
 2877TIP3    H130122   3.610   0.543  13.032 -0.1862  0.5112 -0.1154
 2877TIP3    H230123   3.627   0.511  12.885  0.9947  0.1245  0.0961
 2878TIP3   OH230124   4.481   3.869  14.398  0.3817  0.9649  0.0829
 2878TIP3    H130125   4.484   3.847  14.305  1.7714  0.8470  0.1291
 2878TIP3    H230126   4.557   3.825  14.436  0.7108  2.2477  0.9936
 2879TIP3   OH230127   1.240   6.700   1.858  0.0636  0.2141  0.7038
 2879TIP3    H130128   1.180   6.631   1.888 -0.9436  1.0490  0.6701
 2879TIP3    H230129   1.251   6.683   1.765 -0.7835  0.5132  0.5344
 2880TIP3   OH230130   4.098   6.494  13.503  0.2156  0.1556  0.7207
 2880TIP3    H130131   4.068   6.421  13.556 -0.6921  0.3128  0.4481
 2880TIP3    H230132   4.020   6.521  13.453  1.0159  0.0829 -0.6054
 2881TIP3   OH230133   5.738   1.046  14.701 -0.3004  0.0676  0.3530
 2881TIP3    H130134   5.828   1.037  14.733  0.0409 -0.3536 -0.6996
 2881TIP3    H230135   5.698   1.110  14.760  1.1266  1.3935 -0.0608
 2882TIP3   OH230136   3.017   3.051  15.888 -0.4617 -0.1957  0.4396
 2882TIP3    H130137   3.022   3.128  15.832 -0.8144 -0.2209  0.3702
 2882TIP3    H230138   2.963   2.989  15.838 -0.5710 -0.3103  0.7011
 2883TIP3   OH230139   5.724   4.452   0.704 -0.2497  0.1692 -0.1124
 2883TIP3    H130140   5.705   4.543   0.728 -2.1959 -0.0340 -0.7506
 2883TIP3    H230141   5.706   4.402   0.783 -0.1692  0.2148 -0.0643
 2884TIP3   OH230142   3.476   1.897  12.645  0.4416  0.3269 -0.0516
 2884TIP3    H130143   3.453   1.939  12.562 -0.2190  1.6039  0.7495
 2884TIP3    H230144   3.422   1.819  12.649  0.2198  0.4467 -0.6606
 2885TIP3   OH230145   0.603   5.742   3.224  0.1426 -0.0064  0.4943
 2885TIP3    H130146   0.614   5.773   3.134 -2.0238  0.3381  0.2893
 2885TIP3    H230147   0.636   5.814   3.278 -2.4184  1.6835 -0.0207
 2886TIP3   OH230148   1.884   0.410  12.691  0.1449 -0.1785 -0.2942
 2886TIP3    H130149   1.852   0.323  12.712  0.7897 -0.3243  0.1341
 2886TIP3    H230150   1.888   0.456  12.775 -0.7780  0.4785 -0.5918
 2887TIP3   OH230151   3.674   3.985   5.778 -0.0567  0.2287 -0.7780
 2887TIP3    H130152   3.732   4.052   5.815 -0.2818 -0.0758  0.1598
 2887TIP3    H230153   3.590   4.029   5.768 -0.4746 -0.1413  0.7640
 2888TIP3   OH230154   3.126   6.267   2.500 -0.4298  0.2029 -0.0007
 2888TIP3    H130155   3.216   6.233   2.501 -0.2816  0.5915  0.4296
 2888TIP3    H230156   3.118   6.313   2.417  0.0816  0.9588  0.3552
 2889TIP3   OH230157   0.562   1.892  14.571  0.1018 -0.1995 -0.1671
 2889TIP3    H130158   0.605   1.872  14.488 -0.4276  0.5636 -0.6360
 2889TIP3    H230159   0.580   1.985  14.586  0.1226 -0.3095  0.5328
 2890TIP3   OH230160   2.918   5.103   1.629  0.2345 -0.3127 -0.2940
 2890TIP3    H130161   2.993   5.065   1.583  0.6653  0.7442 -0.5015
 2890TIP3    H230162   2.853   5.117   1.561 -0.7862 -2.5998  0.1048
 2891TIP3   OH230163   4.115   1.564  11.721  0.4739 -0.6400 -0.2865
 2891TIP3    H130164   4.046   1.630  11.710  0.5870 -0.0471  2.0733
 2891TIP3    H230165   4.172   1.577  11.645 -0.4677  0.7942 -0.7997
 2892TIP3   OH230166   3.908   2.993  14.275 -0.2957  0.2725 -0.1606
 2892TIP3    H130167   3.955   3.071  14.304 -0.1635  0.1633 -0.0822
 2892TIP3    H230168   3.968   2.949  14.216 -0.6742  0.6466 -0.8442
 2893TIP3   OH230169   4.173   4.794  13.181  0.4512 -0.4814  0.0727
 2893TIP3    H130170   4.231   4.722  13.206  2.0609  1.3021  1.7427
 2893TIP3    H230171   4.106   4.795  13.249 -0.8554 -1.6869 -1.1268
 2894TIP3   OH230172   2.315   6.201  16.384 -0.6893  0.1282 -0.2093
 2894TIP3    H130173   2.318   6.245  16.299 -0.8099 -1.0476 -0.8349
 2894TIP3    H230174   2.228   6.223  16.419 -2.1347 -2.2603 -2.0153
 2895TIP3   OH230175   6.280   5.051   1.890  0.3344  0.5418 -0.4744
 2895TIP3    H130176   6.230   4.982   1.846  0.3559 -0.3007  0.7681
 2895TIP3    H230177   6.336   5.005   1.951 -0.3822  1.6862  1.1269
 2896TIP3   OH230178   4.480   4.906   4.295 -0.1086 -0.0800 -0.3067
 2896TIP3    H130179   4.563   4.942   4.264  1.3943 -2.2148  0.9620
 2896TIP3    H230180   4.498   4.814   4.311 -2.5937 -0.4953  0.5822
 2897TIP3   OH230181   3.537   0.644  11.535  0.0254 -0.2511  0.0342
 2897TIP3    H130182   3.594   0.571  11.561  0.1940  0.1159  0.7244
 2897TIP3    H230183   3.557   0.713  11.599 -1.5067 -0.2614  0.5577
 2898TIP3   OH230184   5.956   5.822   3.892  0.0311 -0.2939  0.0784
 2898TIP3    H130185   5.928   5.909   3.865  3.4011  0.8356 -0.1700
 2898TIP3    H230186   5.956   5.770   3.812 -2.0416 -0.6470  0.2371
 2899TIP3   OH230187   2.432   3.762   4.816 -0.5208  0.3273 -0.3427
 2899TIP3    H130188   2.343   3.730   4.808  0.0295 -1.3312 -0.1819
 2899TIP3    H230189   2.456   3.743   4.907 -0.8616  3.1883  0.4525
 2900TIP3   OH230190   2.756   1.495  13.364  0.4317 -0.0025 -0.0266
 2900TIP3    H130191   2.734   1.488  13.457 -2.1372 -1.5145 -0.6524
 2900TIP3    H230192   2.850   1.515  13.363  0.7685 -1.0038  2.8738
 2901TIP3   OH230193   2.188   1.827   0.761 -0.0942  0.4152  0.1977
 2901TIP3    H130194   2.220   1.917   0.755 -1.0330  0.6706 -2.0675
 2901TIP3    H230195   2.093   1.836   0.769 -0.0937 -0.4012  1.4994
 2902TIP3   OH230196   2.771   0.437  16.076 -0.1538  0.6719  0.2699
 2902TIP3    H130197   2.817   0.467  15.997 -0.2234 -1.7314 -0.7707
 2902TIP3    H230198   2.679   0.438  16.051 -0.3169  1.3712  0.8764
 2903TIP3   OH230199   5.170   6.601   5.695  0.7980 -0.3568 -0.2658
 2903TIP3    H130200   5.104   6.665   5.722  1.1412 -0.3020  0.4607
 2903TIP3    H230201   5.125   6.546   5.630 -0.0608 -0.5181  0.4494
 2904TIP3   OH230202   5.439   1.885  14.025 -0.2927  0.4188  0.3153
 2904TIP3    H130203   5.520   1.836  14.010 -0.6742 -0.3962  0.8063
 2904TIP3    H230204   5.409   1.910  13.938 -1.0718 -1.9011 -0.1619
 2905TIP3   OH230205   0.877   4.218  12.383 -0.2798 -0.3816 -0.5599
 2905TIP3    H130206   0.817   4.272  12.435 -1.1757 -2.2628  0.4782
 2905TIP3    H230207   0.949   4.197  12.442 -0.5121 -1.2348 -0.5666
 2906TIP3   OH230208   2.796   6.618  15.402 -0.0198  0.3071 -0.2316
 2906TIP3    H130209   2.763   6.578  15.322  1.0530  1.3471 -1.2349
 2906TIP3    H230210   2.718   6.636  15.455 -0.7193 -0.6099 -0.9196
 2907TIP3   OH230211   2.975   3.103   1.602  0.0813  0.0029 -0.3298
 2907TIP3    H130212   2.890   3.144   1.586 -1.5131 -1.8671  2.4313
 2907TIP3    H230213   2.976   3.027   1.543 -0.0563  0.1865 -0.5676
 2908TIP3   OH230214   6.081   1.920  14.781 -0.0872 -0.6547 -0.0645
 2908TIP3    H130215   6.000   1.943  14.827  1.4284 -0.2954  2.6221
 2908TIP3    H230216   6.079   1.825  14.772 -0.2951 -0.7610  1.0489
 2909TIP3   OH230217   0.831   0.064   5.245  0.2040  0.4612 -0.5524
 2909TIP3    H130218   0.770  -0.007   5.226 -0.2950  0.5474  0.6303
 2909TIP3    H230219   0.916   0.031   5.219 -0.0728 -0.4409 -0.3538
 2910TIP3   OH230220   2.417   3.135   2.740 -0.8368  0.2785  0.4290
 2910TIP3    H130221   2.511   3.124   2.723 -1.1032 -0.5552 -0.6259
 2910TIP3    H230222   2.398   3.225   2.713 -0.1325  0.8530  1.7515
 2911TIP3   OH230223   5.437   1.130  14.645  0.0949  0.3937 -0.4997
 2911TIP3    H130224   5.504   1.065  14.623 -0.6000 -0.2642 -0.6947
 2911TIP3    H230225   5.392   1.148  14.562 -1.2453 -0.6328 -0.0318
 2912TIP3   OH230226   0.240   1.430  15.554  0.1988 -0.0748 -0.2642
 2912TIP3    H130227   0.249   1.401  15.464 -0.2281  1.1603 -0.7300
 2912TIP3    H230228   0.316   1.486  15.570  0.0979 -0.0131  0.0208
 2913TIP3   OH230229   0.212   6.441   5.160  0.0505 -0.5172 -0.9344
 2913TIP3    H130230   0.230   6.534   5.144  2.1317 -1.0934 -2.4199
 2913TIP3    H230231   0.122   6.439   5.193  0.9019  2.2450  1.9817
 2914TIP3   OH230232   3.702   3.292  11.305 -0.0129  0.0183  0.1741
 2914TIP3    H130233   3.797   3.289  11.300  0.0844  2.4574 -0.6875
 2914TIP3    H230234   3.672   3.224  11.244  1.1449 -0.6733  0.3510
 2915TIP3   OH230235   0.604   3.983  11.667 -0.7367 -0.1989 -0.6804
 2915TIP3    H130236   0.662   4.052  11.636 -2.2974  0.4915 -2.2539
 2915TIP3    H230237   0.588   4.005  11.759  3.2746 -1.7724  0.6210
 2916TIP3   OH230238   4.632   5.254  17.221 -0.4280 -0.1522 -0.9163
 2916TIP3    H130239   4.633   5.249  17.317  1.3569  2.3179 -0.7035
 2916TIP3    H230240   4.710   5.206  17.194 -0.8643 -0.7425 -1.1477
 2917TIP3   OH230241   2.978   0.601  11.924  0.1138  0.5356  0.2605
 2917TIP3    H130242   2.994   0.675  11.982 -0.2515  0.4172  0.5137
 2917TIP3    H230243   2.883   0.587  11.926 -0.0306  1.1416 -1.1285
 2918TIP3   OH230244   2.851   4.018   1.366 -0.1407  0.4044 -0.3202
 2918TIP3    H130245   2.882   4.077   1.434  1.5120  0.1903 -0.8484
 2918TIP3    H230246   2.869   3.930   1.400 -0.8046  0.2373 -0.3693
 2919TIP3   OH230247   1.804   4.906   5.107  0.3174 -0.3632  0.4910
 2919TIP3    H130248   1.749   4.931   5.033 -0.3161 -2.4913  0.1914
 2919TIP3    H230249   1.782   4.970   5.175 -0.1313  0.7719 -0.6753
 2920TIP3   OH230250   2.396   4.730   0.248  0.2175  0.2806 -0.5364
 2920TIP3    H130251   2.402   4.729   0.344  1.9795 -0.1638 -0.6121
 2920TIP3    H230252   2.384   4.822   0.225 -0.1416  0.3971  0.1012
 2921TIP3   OH230253   0.336   6.202   2.826 -0.2980  0.8811  0.0636
 2921TIP3    H130254   0.378   6.168   2.747 -2.1922 -1.5393 -0.0329
 2921TIP3    H230255   0.269   6.261   2.794 -2.1272 -1.2843 -0.3840
 2922TIP3   OH230256   5.933   1.590   4.298  0.1475 -0.0504 -0.1800
 2922TIP3    H130257   5.872   1.562   4.230  1.3993 -0.0323 -1.3502
 2922TIP3    H230258   5.970   1.509   4.332 -0.7486 -0.0827  0.7894
 2923TIP3   OH230259   0.840   0.899   2.985 -0.5572 -0.7412  0.4394
 2923TIP3    H130260   0.824   0.832   3.051 -0.4318 -0.9626  0.2480
 2923TIP3    H230261   0.931   0.883   2.957 -0.8579 -1.1387 -0.3387
 2924TIP3   OH230262   4.382   3.240   0.570  0.1432  0.2991 -0.0049
 2924TIP3    H130263   4.418   3.152   0.570 -1.0958 -0.2300 -0.3631
 2924TIP3    H230264   4.329   3.245   0.491 -2.3731  0.2460  1.5798
 2925TIP3   OH230265   2.695   6.337   2.965  0.3857 -0.4723 -0.8121
 2925TIP3    H130266   2.715   6.418   3.013  0.5472 -1.8620  1.6308
 2925TIP3    H230267   2.600   6.329   2.971  0.4233 -0.7356 -0.5420
 2926TIP3   OH230268   3.618   2.083   4.138  0.0069  0.2768 -0.5082
 2926TIP3    H130269   3.691   2.140   4.161 -0.1140  0.0362  0.5198
 2926TIP3    H230270   3.551   2.143   4.104  0.6846  0.4924 -1.5115
 2927TIP3   OH230271   4.899   0.019   1.951  0.0098 -0.1981  0.5546
 2927TIP3    H130272   4.805   0.037   1.949 -0.2323 -1.0836  2.1519
 2927TIP3    H230273   4.916  -0.026   1.868 -1.5708 -2.5508  1.3954
 2928TIP3   OH230274   0.122   4.174   1.361 -0.6424  0.1226  0.3032
 2928TIP3    H130275   0.051   4.192   1.300 -2.3933 -1.4376  1.7825
 2928TIP3    H230276   0.110   4.238   1.431 -1.2601 -0.7803  1.0499
 2929TIP3   OH230277   4.709   4.887  15.615 -0.1011  0.0886 -0.1999
 2929TIP3    H130278   4.774   4.900  15.684  0.1463  2.5765 -0.8067
 2929TIP3    H230279   4.658   4.811  15.644  1.7263 -0.6257  1.3219
 2930TIP3   OH230280   3.720   4.196   1.735  0.5105 -0.0948  0.1515
 2930TIP3    H130281   3.708   4.285   1.769 -0.7506 -0.3167  0.3281
 2930TIP3    H230282   3.646   4.146   1.770  1.1194 -1.1896 -0.0638
 2931TIP3   OH230283   4.898   0.284   0.163  0.2831 -0.3516 -0.5696
 2931TIP3    H130284   4.994   0.283   0.163  0.3723  0.4899 -2.9774
 2931TIP3    H230285   4.875   0.372   0.132 -1.3486  0.0650  1.5568
 2932TIP3   OH230286   2.568   2.847   2.030 -0.0261  0.0888 -0.2075
 2932TIP3    H130287   2.620   2.928   2.028  1.2915 -0.7490 -1.0467
 2932TIP3    H230288   2.495   2.865   1.971  0.8270  0.3070 -1.2224
 2933TIP3   OH230289   1.846   4.891   6.197  0.0364 -0.3683  0.5480
 2933TIP3    H130290   1.902   4.930   6.264  1.8772 -0.7616 -0.6905
 2933TIP3    H230291   1.789   4.831   6.245  1.3505 -0.7004  1.7785
 2934TIP3   OH230292   1.201   6.004  17.284  0.0685  0.3068 -0.2369
 2934TIP3    H130293   1.181   6.092  17.314 -1.8633 -0.2700  0.3040
 2934TIP3    H230294   1.274   6.015  17.224  0.2935  2.1815  0.3243
 2935TIP3   OH230295   3.258   4.987   1.832 -0.4258 -0.4608 -0.5960
 2935TIP3    H130296   3.227   4.972   1.742 -0.8831  1.9308 -0.8978
 2935TIP3    H230297   3.238   5.079   1.849 -0.7203 -0.9562  2.1321
 2936TIP3   OH230298   1.301   5.631   4.270 -0.2010  0.6522 -0.5018
 2936TIP3    H130299   1.321   5.723   4.251 -1.4614  0.7674 -1.4327
 2936TIP3    H230300   1.383   5.584   4.253  0.1580  1.4755 -1.0996
 2937TIP3   OH230301   0.196   0.747   5.589 -0.2884  0.2240 -0.1112
 2937TIP3    H130302   0.192   0.842   5.601  0.5558  0.3539 -0.7056
 2937TIP3    H230303   0.262   0.735   5.521 -1.1847 -0.7354 -0.8330
 2938TIP3   OH230304   1.926   5.066   5.667  0.7444 -0.1942 -0.3455
 2938TIP3    H130305   1.972   5.123   5.728 -1.6833  1.8251 -0.2244
 2938TIP3    H230306   1.954   4.978   5.691  1.1783  0.6291  2.5770
 2939TIP3   OH230307   6.442   1.469  16.638  0.3275  0.6358  0.3169
 2939TIP3    H130308   6.504   1.423  16.581 -0.1669 -0.6726  0.7789
 2939TIP3    H230309   6.485   1.552  16.659  1.1648  0.4891 -0.7378
 2940TIP3   OH230310   1.306   1.821   0.492  0.0019 -0.1212  0.2084
 2940TIP3    H130311   1.379   1.781   0.444 -0.5684  0.8571 -1.5565
 2940TIP3    H230312   1.323   1.915   0.489 -0.7018  0.0381  0.8400
 2941TIP3   OH230313   1.373   1.702  12.287  0.3554 -0.4095  0.0001
 2941TIP3    H130314   1.408   1.785  12.319  0.9658 -1.4372  2.2416
 2941TIP3    H230315   1.279   1.708  12.306  0.0096  0.5556 -1.8151
 2942TIP3   OH230316   5.468   4.054   0.853 -0.0985  0.1973 -0.1420
 2942TIP3    H130317   5.419   3.985   0.899  0.7515 -0.6465 -0.4661
 2942TIP3    H230318   5.409   4.084   0.785 -0.3344 -0.5040 -0.2550
 2943TIP3   OH230319   4.261   4.630   0.454 -0.1797  0.0435 -0.3446
 2943TIP3    H130320   4.246   4.611   0.546  1.3328 -0.4187 -0.1686
 2943TIP3    H230321   4.247   4.724   0.446 -1.6457 -0.1239  0.0626
 2944TIP3   OH230322   3.669   0.522  11.908  0.5038 -0.1706 -0.2120
 2944TIP3    H130323   3.724   0.495  11.835  0.7660 -0.2211  0.0016
 2944TIP3    H230324   3.730   0.560  11.971 -0.0632  3.2731 -1.5329
 2945TIP3   OH230325   1.083   2.412   3.623 -0.1203 -0.2821  0.3971
 2945TIP3    H130326   1.064   2.494   3.578 -0.4041 -0.0311  0.9604
 2945TIP3    H230327   1.002   2.391   3.670  0.4801  0.0233  1.6370
 2946TIP3   OH230328   1.090   6.248   2.132 -0.0362  0.2164  0.2083
 2946TIP3    H130329   1.020   6.267   2.069  1.3686  0.5222 -1.3500
 2946TIP3    H230330   1.047   6.201   2.203 -1.8162  0.4036 -0.6923
 2947TIP3   OH230331   1.728   2.673   4.791 -0.0832 -0.0298 -0.2260
 2947TIP3    H130332   1.718   2.599   4.851 -0.4131 -2.1501 -2.7010
 2947TIP3    H230333   1.814   2.710   4.813 -0.3215 -0.5240  1.7011
 2948TIP3   OH230334   1.413   0.437   6.802 -0.0384  0.4260 -0.2764
 2948TIP3    H130335   1.388   0.526   6.828 -1.0296  0.1572 -0.3020
 2948TIP3    H230336   1.413   0.439   6.706 -0.6048  0.2485 -0.2804
 2949TIP3   OH230337   1.246   6.733  12.986  0.3288  0.5693  0.5403
 2949TIP3    H130338   1.242   6.828  12.990  2.3153  0.6863  0.3313
 2949TIP3    H230339   1.311   6.708  13.051  1.9621 -0.4029 -1.3369
 2950TIP3   OH230340   5.821   0.015  14.410 -0.2525  0.4481 -0.6198
 2950TIP3    H130341   5.879   0.089  14.392  1.1820  0.1848  2.4000
 2950TIP3    H230342   5.733   0.053  14.410  0.5377  2.6777  2.5064
 2951TIP3   OH230343   5.244   4.077  16.373  0.4064 -0.5138  0.0650
 2951TIP3    H130344   5.242   3.991  16.332 -0.0379 -0.5790  0.2194
 2951TIP3    H230345   5.154   4.094  16.398  0.1723  0.7715 -1.5386
 2952TIP3   OH230346   2.325   5.318   2.077  0.3426 -0.2009  0.2152
 2952TIP3    H130347   2.406   5.357   2.112 -0.0457 -0.0394  0.9491
 2952TIP3    H230348   2.337   5.223   2.091  0.6880 -0.2331 -0.2873
 2953TIP3   OH230349   2.420   6.258   1.078  0.0120  0.0442 -0.0399
 2953TIP3    H130350   2.444   6.210   0.998  0.8459  0.0078  0.2262
 2953TIP3    H230351   2.334   6.222   1.101 -0.4763  0.4183 -1.1959
 2954TIP3   OH230352   4.298   6.152   5.589  0.3107 -0.3641 -0.1097
 2954TIP3    H130353   4.243   6.075   5.604  0.9209 -0.7842  0.0007
 2954TIP3    H230354   4.339   6.169   5.674  1.1339 -0.6768 -0.4342
 2955TIP3   OH230355   1.540   2.164  12.928 -0.3266  0.1811 -0.5047
 2955TIP3    H130356   1.613   2.177  12.868  0.0868 -1.1528 -0.3298
 2955TIP3    H230357   1.462   2.168  12.873 -0.3411  3.5597 -0.4159
 2956TIP3   OH230358   5.218   4.145  14.700 -0.3767  0.6685  0.1816
 2956TIP3    H130359   5.168   4.180  14.627  0.6129  1.0188 -0.3452
 2956TIP3    H230360   5.185   4.192  14.777  0.4771  2.3504 -0.4182
 2957TIP3   OH230361   0.812   4.424  12.609 -0.0508  0.2076  0.1473
 2957TIP3    H130362   0.898   4.408  12.571 -1.0706  0.1013 -2.2733
 2957TIP3    H230363   0.811   4.518  12.627  0.1209  0.4675 -1.0961
 2958TIP3   OH230364   5.672   5.142  14.031  0.1647 -0.6641  0.1267
 2958TIP3    H130365   5.618   5.086  13.975  0.5493 -1.0258  0.1064
 2958TIP3    H230366   5.620   5.220  14.045 -0.2074 -0.8509 -0.2002
 2959TIP3   OH230367   1.112   2.398  13.024  0.8874  0.1198 -0.1348
 2959TIP3    H130368   1.186   2.366  13.076 -0.0699 -0.3610  0.9850
 2959TIP3    H230369   1.050   2.324  13.023  0.1955  0.6965 -0.5774
 2960TIP3   OH230370   5.654   1.508   5.317 -0.2085  0.0337 -0.4920
 2960TIP3    H130371   5.647   1.576   5.250 -1.3213 -0.6440 -1.0996
 2960TIP3    H230372   5.742   1.472   5.306  0.0106  0.6751 -0.8584
 2961TIP3   OH230373   2.666   5.436   6.631 -0.3501 -0.4640  0.2746
 2961TIP3    H130374   2.606   5.362   6.634 -0.9214 -0.0998 -1.3868
 2961TIP3    H230375   2.612   5.511   6.610  0.4255  0.2045  0.5943
 2962TIP3   OH230376   6.076   0.381  14.091  0.0506 -0.0227 -0.3673
 2962TIP3    H130377   6.040   0.327  14.161  0.0838  0.6289  0.1558
 2962TIP3    H230378   6.015   0.456  14.085  0.7153  0.5378 -0.2075
 2963TIP3   OH230379   3.343   1.724  15.232  0.0186 -0.4560  0.0423
 2963TIP3    H130380   3.273   1.773  15.277  0.8522 -0.6155  1.6076
 2963TIP3    H230381   3.320   1.632  15.245 -0.4894 -0.5109 -1.1499
 2964TIP3   OH230382   4.880   0.345  16.735  0.1385 -0.6613  0.0163
 2964TIP3    H130383   4.823   0.272  16.756 -0.0496 -0.6264 -0.3671
 2964TIP3    H230384   4.863   0.410  16.803 -1.5583  0.0689 -1.0515
 2965TIP3   OH230385   3.976   1.304  13.022 -0.0359  0.1607 -0.4299
 2965TIP3    H130386   3.972   1.398  13.041  1.7055  0.6401 -2.1157
 2965TIP3    H230387   3.914   1.265  13.083 -0.3718  2.3365  0.7358
 2966TIP3   OH230388   5.126   0.623   2.463 -0.3390  0.3230 -0.0226
 2966TIP3    H130389   5.192   0.661   2.405  0.6543 -2.0712 -0.6097
 2966TIP3    H230390   5.042   0.655   2.429  0.3681  1.1105 -1.0858
 2967TIP3   OH230391   3.158   0.350  17.228 -0.6614  0.3952  0.1500
 2967TIP3    H130392   3.070   0.358  17.192 -1.5414 -0.1775  2.0592
 2967TIP3    H230393   3.177   0.436  17.266 -0.1457  0.6952 -0.7686
 2968TIP3   OH230394   0.046   1.590  12.660  0.2145  1.0425  0.0770
 2968TIP3    H130395   0.085   1.670  12.623  2.0123  0.0665 -0.2634
 2968TIP3    H230396   0.114   1.555  12.718 -0.0790 -0.7920 -0.6144
 2969TIP3   OH230397   2.953   6.768  15.170 -0.1232 -0.0182  0.1723
 2969TIP3    H130398   2.893   6.699  15.199 -0.2275  0.4536  1.0947
 2969TIP3    H230399   2.911   6.806  15.094 -0.2052 -0.7754 -0.1757
 2970TIP3   OH230400   5.354   0.466   1.539 -0.2475 -0.2079  0.0567
 2970TIP3    H130401   5.362   0.557   1.568 -0.2075  0.1666 -1.1038
 2970TIP3    H230402   5.400   0.463   1.455  0.4338 -1.4801  0.4441
 2971TIP3   OH230403   2.182   2.594  15.173 -0.2299  0.0468  0.4978
 2971TIP3    H130404   2.166   2.681  15.138  1.6416  0.3653  0.3060
 2971TIP3    H230405   2.248   2.556  15.114 -0.8838 -1.4327  0.6681
 2972TIP3   OH230406   6.183   6.820  14.136  0.0997  0.4652 -0.2892
 2972TIP3    H130407   6.209   6.741  14.088 -0.7402 -0.5691  0.8896
 2972TIP3    H230408   6.198   6.799  14.228 -0.4152  1.5751  0.0743
 2973TIP3   OH230409   6.297   5.116   2.315  0.4438  0.3222 -0.6466
 2973TIP3    H130410   6.267   5.059   2.385 -1.3341  1.0881 -0.7300
 2973TIP3    H230411   6.345   5.186   2.360  2.5517 -1.1076 -0.5396
 2974TIP3   OH230412   5.032   6.666  13.075 -0.0652  0.4850 -0.6423
 2974TIP3    H130413   5.064   6.751  13.043 -0.5550  0.7733 -0.3618
 2974TIP3    H230414   5.109   6.609  13.071  0.7696  1.4276  0.9704
 2975TIP3   OH230415   5.894   3.532  16.858 -0.1852 -0.5570 -0.3483
 2975TIP3    H130416   5.810   3.576  16.856 -1.4771 -2.7465  1.0804
 2975TIP3    H230417   5.934   3.558  16.941 -1.7275 -3.1677  1.3577
 2976TIP3   OH230418   6.399   2.787  12.760  0.2081 -0.4256  0.2208
 2976TIP3    H130419   6.402   2.882  12.763 -3.2683 -0.2077  0.9247
 2976TIP3    H230420   6.425   2.759  12.847  1.5494 -0.1754 -0.0832
 2977TIP3   OH230421   5.798   4.484  11.075  0.1428 -0.3187  0.0036
 2977TIP3    H130422   5.784   4.398  11.116 -1.5863  0.5910  1.4610
 2977TIP3    H230423   5.716   4.502  11.029  0.4399  0.6247 -0.1684
 2978TIP3   OH230424   2.879   0.278  15.234  0.0769 -0.2298  0.4124
 2978TIP3    H130425   2.913   0.200  15.279  0.8062 -0.2387 -0.1521
 2978TIP3    H230426   2.914   0.351  15.284 -0.2223 -0.2481  0.6575
 2979TIP3   OH230427   4.480   1.267  15.932 -0.4695 -0.2137 -0.4028
 2979TIP3    H130428   4.527   1.211  15.870  0.3857  0.1557 -0.0996
 2979TIP3    H230429   4.548   1.298  15.992 -1.3195 -0.8516  0.9435
 2980TIP3   OH230430   1.850   1.976   1.784  0.2069 -0.0413 -0.5930
 2980TIP3    H130431   1.872   1.952   1.694  0.2206  1.0741 -0.9028
 2980TIP3    H230432   1.772   1.925   1.804 -0.2353  0.2520 -1.5158
 2981TIP3   OH230433   4.656   3.189  14.847  0.0448 -0.1160  0.0250
 2981TIP3    H130434   4.745   3.156  14.837  0.0303 -0.2309  0.2951
 2981TIP3    H230435   4.640   3.189  14.941 -0.5080 -0.7899 -0.0592
 2982TIP3   OH230436   6.627   0.618   5.261 -0.3170  0.0244  0.2307
 2982TIP3    H130437   6.614   0.588   5.351 -0.8808 -0.7570 -0.0951
 2982TIP3    H230438   6.700   0.679   5.266 -2.1717  2.2772  1.7095
 2983TIP3   OH230439   5.175   3.888  13.897  0.0730  0.3326 -0.2404
 2983TIP3    H130440   5.097   3.940  13.918  2.0543  2.5182  2.5695
 2983TIP3    H230441   5.210   3.927  13.817 -0.9648  0.2001 -0.7761
 2984TIP3   OH230442   6.760   1.688   2.054  0.5349 -0.1891 -0.5095
 2984TIP3    H130443   6.678   1.707   2.009 -0.4958 -0.3084  1.2670
 2984TIP3    H230444   6.739   1.692   2.147  2.5770 -0.1055 -0.0026
 2985TIP3   OH230445   0.821   1.476  14.223  0.4480  0.4032  0.3452
 2985TIP3    H130446   0.744   1.478  14.166 -0.5353  0.0511  1.6141
 2985TIP3    H230447   0.856   1.388  14.214  1.9847  1.1705 -1.8268
 2986TIP3   OH230448   3.829   1.800   5.550 -0.2312  0.4981  0.2121
 2986TIP3    H130449   3.876   1.883   5.555 -0.9311  0.9153 -0.0885
 2986TIP3    H230450   3.736   1.824   5.549 -0.4321 -0.2462 -0.5898
 2987TIP3   OH230451   2.449   4.306   5.227 -0.5714 -0.4303  0.3870
 2987TIP3    H130452   2.428   4.303   5.133  0.1728  0.5335  0.1733
 2987TIP3    H230453   2.544   4.290   5.231 -0.9580 -2.9129  1.1843
 2988TIP3   OH230454   4.779   0.827  16.556  0.0019 -0.3101  0.5012
 2988TIP3    H130455   4.823   0.911  16.550  0.1305 -0.3927  0.3037
 2988TIP3    H230456   4.762   0.816  16.650 -0.1236 -0.0117  0.5160
 2989TIP3   OH230457   2.909   6.519   0.533 -0.3181 -0.9357  0.2125
 2989TIP3    H130458   2.846   6.591   0.531 -0.6478 -1.2209  0.3620
 2989TIP3    H230459   2.994   6.562   0.516 -0.5097 -0.5130  0.3023
 2990TIP3   OH230460   6.169   4.225   1.942 -0.6326  0.1573  0.3208
 2990TIP3    H130461   6.159   4.309   1.897 -1.0265  0.1235  0.3402
 2990TIP3    H230462   6.262   4.220   1.963 -0.5612  0.4724  0.0926
 2991TIP3   OH230463   5.763   2.073  13.080  0.0298  0.4850  0.5578
 2991TIP3    H130464   5.732   1.983  13.075  0.0958  0.5111 -0.4102
 2991TIP3    H230465   5.694   2.124  13.037  0.2887  0.8188  0.5353
 2992TIP3   OH230466   5.215   3.970   2.780 -0.0108  0.0362  0.4255
 2992TIP3    H130467   5.173   4.012   2.705  0.1315  0.0383  0.3464
 2992TIP3    H230468   5.145   3.922   2.823 -0.1398  0.2188  0.4195
 2993TIP3   OH230469   6.362   2.532  16.163 -0.0106 -0.1023  0.1012
 2993TIP3    H130470   6.405   2.602  16.113  1.7098 -0.8636  0.4424
 2993TIP3    H230471   6.432   2.469  16.181 -1.2086 -1.2180  1.0465
 2994TIP3   OH230472   3.433   4.107   5.795  0.6199  0.1678  0.2902
 2994TIP3    H130473   3.377   4.091   5.872  1.0707 -0.7570  0.4345
 2994TIP3    H230474   3.372   4.109   5.721  0.3687 -0.6830  0.4655
 2995TIP3   OH230475   0.941   6.462  13.430  0.0461  0.0725 -0.4029
 2995TIP3    H130476   0.982   6.445  13.515  0.9400  0.5826 -0.7134
 2995TIP3    H230477   0.867   6.520  13.450 -0.0632 -0.2299  0.0798
 2996TIP3   OH230478   1.030   0.060   1.730 -0.7496 -0.4205  0.0571
 2996TIP3    H130479   0.984   0.100   1.804 -2.7008  1.6413 -2.1206
 2996TIP3    H230480   1.000  -0.031   1.730 -1.8472 -0.0819  0.9276
 2997TIP3   OH230481   2.647   0.839   3.221  0.2002  0.7724  0.1930
 2997TIP3    H130482   2.606   0.886   3.148  2.8784  1.8905 -0.7178
 2997TIP3    H230483   2.636   0.897   3.296 -1.0853  0.3966  0.3113
 2998TIP3   OH230484   0.222   3.905  15.252 -0.5769  0.1515  0.3997
 2998TIP3    H130485   0.274   3.978  15.285 -0.8175  0.0571  0.9990
 2998TIP3    H230486   0.191   3.935  15.166  0.0804  0.3843  0.2360
 2999TIP3   OH230487   0.417   2.758  16.596 -0.2199  0.0531  0.2777
 2999TIP3    H130488   0.467   2.838  16.614  0.2125 -0.3702  1.0290
 2999TIP3    H230489   0.473   2.687  16.627 -0.8135 -0.5131  0.0913
 3000TIP3   OH230490   1.285   2.561  13.833  0.0980  0.4250  0.0943
 3000TIP3    H130491   1.251   2.504  13.764  0.7906  2.9216 -2.5194
 3000TIP3    H230492   1.214   2.623  13.850 -0.0641 -0.1659  1.6948
 3001TIP3   OH230493   1.715   4.296   4.124  0.2556 -0.8883  0.1863
 3001TIP3    H130494   1.689   4.349   4.049  1.2029 -2.1652 -1.1143
 3001TIP3    H230495   1.801   4.330   4.149 -0.5261  0.2599  1.4573
 3002TIP3   OH230496   3.166   3.436  11.657 -0.1875  0.6261 -0.4062
 3002TIP3    H130497   3.203   3.472  11.576  2.3586 -0.8994 -0.0397
 3002TIP3    H230498   3.187   3.501  11.724  1.6309 -0.0472 -0.2734
 3003TIP3   OH230499   2.519   5.943   1.475 -0.0349  0.4447  0.2885
 3003TIP3    H130500   2.512   5.992   1.393  0.0719  1.1440  0.6934
 3003TIP3    H230501   2.586   5.877   1.457  0.0418  0.6420 -0.1632
 3004TIP3   OH230502   2.911   5.115  12.821 -0.5112 -0.1664 -0.5938
 3004TIP3    H130503   2.925   5.203  12.856  1.3448 -0.6652  0.0137
 3004TIP3    H230504   2.989   5.097  12.768  0.3712 -2.3460  1.2803
 3005TIP3   OH230505   3.082   0.990   2.857 -0.0744 -0.0317  0.1655
 3005TIP3    H130506   3.109   0.902   2.882 -0.3513 -0.2583 -0.3105
 3005TIP3    H230507   3.010   1.011   2.916  0.2599  0.0397  0.5499
 3006TIP3   OH230508   3.556   4.537  11.130 -0.3157 -0.0419 -0.9752
 3006TIP3    H130509   3.549   4.631  11.151  0.9373 -0.0299 -0.4911
 3006TIP3    H230510   3.480   4.519  11.075 -1.2376  0.9916 -0.1066
 3007TIP3   OH230511   4.421   0.921   4.407 -0.0186  0.4107  0.2633
 3007TIP3    H130512   4.479   0.996   4.419  0.5088  0.0936 -0.2421
 3007TIP3    H230513   4.395   0.895   4.496  1.6186 -0.2159  0.5806
 3008TIP3   OH230514   0.897   0.419   0.223 -0.2218  0.0731 -0.0600
 3008TIP3    H130515   0.874   0.370   0.302 -2.1416 -0.3347 -0.8078
 3008TIP3    H230516   0.849   0.502   0.232  0.0294  0.2703 -0.5068
 3009TIP3   OH230517   4.772   3.024   4.879 -0.0503 -0.5092  0.2816
 3009TIP3    H130518   4.679   3.028   4.859  0.0871 -0.1014 -0.2969
 3009TIP3    H230519   4.786   3.096   4.941 -0.3178 -1.2596  1.2507
 3010TIP3   OH230520   6.166   3.419  13.258  0.0261  0.1899 -0.1563
 3010TIP3    H130521   6.216   3.400  13.338 -0.9082 -2.7194 -0.1151
 3010TIP3    H230522   6.230   3.457  13.198  2.0823 -2.1897  0.3133
 3011TIP3   OH230523   0.715   1.342  15.658  0.1111  0.0095 -0.7958
 3011TIP3    H130524   0.722   1.326  15.564 -1.1016  0.9356 -1.0717
 3011TIP3    H230525   0.685   1.433  15.665  0.1739 -0.0491  0.4882
 3012TIP3   OH230526   3.282   6.605   5.553 -0.3193 -0.0553 -0.1805
 3012TIP3    H130527   3.270   6.700   5.548 -0.4604 -0.0615  0.0848
 3012TIP3    H230528   3.339   6.592   5.629 -1.7584 -0.3197  0.8889
 3013TIP3   OH230529   5.757   1.812   0.052 -0.2544  0.0395  0.2798
 3013TIP3    H130530   5.827   1.830  -0.011  1.8498 -0.9440  2.1828
 3013TIP3    H230531   5.771   1.721   0.078 -2.8692 -0.4927  0.0897
 3014TIP3   OH230532   2.815   6.504   3.632 -0.6301 -0.4570  0.0817
 3014TIP3    H130533   2.783   6.465   3.714  0.4138  1.7220  1.6300
 3014TIP3    H230534   2.909   6.487   3.632 -0.3331  0.9962  0.2599
 3015TIP3   OH230535   4.443   0.505  15.239 -0.0689 -0.5765 -0.0888
 3015TIP3    H130536   4.417   0.413  15.243 -0.5764 -0.5740 -2.1376
 3015TIP3    H230537   4.514   0.506  15.175  1.9900  0.0935  2.0539
 3016TIP3   OH230538   5.627   1.159  16.906 -0.0339 -0.2859  0.3321
 3016TIP3    H130539   5.709   1.126  16.943  0.4416  1.1911  0.6569
 3016TIP3    H230540   5.593   1.086  16.854  0.8692 -1.3334  1.1599
 3017TIP3   OH230541   4.300   4.985   5.109  0.0266 -0.3848  0.5278
 3017TIP3    H130542   4.339   4.956   5.191  1.1531  1.3420  0.6556
 3017TIP3    H230543   4.250   5.063   5.133 -0.5057 -0.4644 -0.2682
 3018TIP3   OH230544   5.137   2.521  15.049  0.2192 -0.2828  0.6246
 3018TIP3    H130545   5.142   2.611  15.019 -0.5621 -0.4073  0.1091
 3018TIP3    H230546   5.115   2.528  15.142 -3.9738  0.0601 -0.2296
 3019TIP3   OH230547   0.060   2.846  14.611  0.0179 -0.3791 -0.1144
 3019TIP3    H130548   0.033   2.902  14.539 -0.1716 -0.1401  0.1417
 3019TIP3    H230549   0.144   2.810  14.583  0.0659 -0.0914 -0.3462
 3020TIP3   OH230550   3.530   4.744  12.759 -0.1347 -0.1469 -0.9962
 3020TIP3    H130551   3.451   4.746  12.704 -0.2092  0.5636 -0.8809
 3020TIP3    H230552   3.597   4.704  12.704 -0.8150 -1.6554 -0.7558
 3021TIP3   OH230553   5.708   2.335  14.533  0.5870 -0.1800  0.7008
 3021TIP3    H130554   5.743   2.336  14.622 -0.5806 -1.0130  1.1916
 3021TIP3    H230555   5.637   2.271  14.536 -0.6482  1.0784 -0.3833
 3022TIP3   OH230556   4.704   2.739  11.934  0.3236 -0.0249  0.4412
 3022TIP3    H130557   4.718   2.762  11.842  1.5552  1.0141  0.8608
 3022TIP3    H230558   4.708   2.822  11.981 -0.7376 -0.4896  1.4069
 3023TIP3   OH230559   2.962   1.916   2.622  0.3453 -0.2403  0.3989
 3023TIP3    H130560   2.877   1.939   2.587  0.1130 -0.9952  0.4360
 3023TIP3    H230561   3.024   1.971   2.574 -0.0944 -0.2485 -0.1916
 3024TIP3   OH230562   3.449   3.037   4.398  0.0422  0.2998 -0.5078
 3024TIP3    H130563   3.474   3.057   4.308 -1.1531  2.2168 -0.4530
 3024TIP3    H230564   3.353   3.036   4.397  0.0137 -0.8998  0.5121
 3025TIP3   OH230565   2.287   6.555   3.121 -0.4852  0.5886  0.0214
 3025TIP3    H130566   2.250   6.487   3.065 -0.1240  0.6132 -0.2489
 3025TIP3    H230567   2.320   6.508   3.198  0.8843  0.2885 -0.7176
 3026TIP3   OH230568   3.778   6.373   5.688 -0.2021 -0.8419  0.5482
 3026TIP3    H130569   3.846   6.309   5.706  0.1767 -0.6610 -0.2130
 3026TIP3    H230570   3.814   6.456   5.718  0.2361 -0.6188 -0.5789
 3027TIP3   OH230571   2.137   0.599  12.410  0.5829 -0.0436 -0.0208
 3027TIP3    H130572   2.124   0.615  12.503  2.7392  0.6868  0.2090
 3027TIP3    H230573   2.075   0.657  12.366 -1.5911 -1.5552  0.9216
 3028TIP3   OH230574   1.803   6.469  12.681  0.6104 -0.5308  0.0178
 3028TIP3    H130575   1.829   6.457  12.772  2.5761 -1.5265 -0.6280
 3028TIP3    H230576   1.885   6.475  12.633 -0.3832 -0.9176 -1.8092
 3029TIP3   OH230577   5.271   5.369  12.307  0.4445  0.1570 -0.2660
 3029TIP3    H130578   5.346   5.384  12.248  0.4882  0.3918 -0.1503
 3029TIP3    H230579   5.303   5.397  12.393  0.4702 -0.4299 -0.0773
 3030TIP3   OH230580   1.577   5.633   1.043  0.5570  0.1209 -0.1860
 3030TIP3    H130581   1.555   5.641   1.135  2.0797  1.6928  0.0958
 3030TIP3    H230582   1.555   5.542   1.020 -1.7424  0.2665  1.1444
 3031TIP3   OH230583   0.749   0.800  14.852 -0.2085 -0.0058 -0.1841
 3031TIP3    H130584   0.823   0.836  14.802 -0.8657  0.8245 -0.5936
 3031TIP3    H230585   0.763   0.833  14.941 -0.0722  0.1166 -0.2499
 3032TIP3   OH230586   3.162   5.540   1.523 -0.4060  0.2944  0.3275
 3032TIP3    H130587   3.117   5.505   1.445 -0.1722 -1.0632  0.7657
 3032TIP3    H230588   3.221   5.469   1.549  0.4538  1.2436  0.9954
 3033TIP3   OH230589   2.853   5.068   5.497  0.2110 -0.2916  0.5488
 3033TIP3    H130590   2.919   5.024   5.550  1.1602  1.0726  0.5587
 3033TIP3    H230591   2.903   5.108   5.426 -0.9822 -1.7291 -1.1951
 3034TIP3   OH230592   1.972   1.457   1.639  0.2817  0.4115  0.3872
 3034TIP3    H130593   1.944   1.387   1.698  0.5265 -0.1752 -0.1923
 3034TIP3    H230594   2.001   1.527   1.698  0.5695 -0.1893  0.9732
 3035TIP3   OH230595   5.548   4.834  17.160  0.3610  0.1755 -0.5795
 3035TIP3    H130596   5.634   4.865  17.134  1.1641 -1.1151  0.4271
 3035TIP3    H230597   5.487   4.899  17.124  1.6077  0.2083 -2.7488
 3036TIP3   OH230598   4.473   0.699  13.708  0.4827 -0.3776 -0.4884
 3036TIP3    H130599   4.414   0.742  13.645 -1.1495 -1.3706  0.2928
 3036TIP3    H230600   4.552   0.680  13.657 -0.7372 -1.0392 -2.2460
 3037TIP3   OH230601   3.255   1.019  16.319  0.7862 -0.0927 -0.1891
 3037TIP3    H130602   3.299   1.081  16.377  1.7788 -0.2052 -0.8042
 3037TIP3    H230603   3.165   1.015  16.352  1.3019 -0.0791  1.2691
 3038TIP3   OH230604   4.712   4.813  16.606  0.0859 -0.0161  0.5987
 3038TIP3    H130605   4.759   4.897  16.608 -0.5126  0.3171  0.6647
 3038TIP3    H230606   4.781   4.748  16.591  0.4942  0.5314  0.0524
 3039TIP3   OH230607   0.399   0.987   1.977 -0.2578  0.0830  0.3288
 3039TIP3    H130608   0.398   1.012   2.069 -2.1354  2.5823 -0.2578
 3039TIP3    H230609   0.344   0.909   1.972 -1.7873  1.0643  1.1137
 3040TIP3   OH230610   6.041   0.855  16.572 -0.3135 -0.8811  0.1346
 3040TIP3    H130611   6.013   0.868  16.662 -1.5925 -0.5592 -0.2851
 3040TIP3    H230612   6.134   0.877  16.572 -0.4186 -0.3719  1.2513
 3041TIP3   OH230613   4.254   1.215  17.232  0.0740 -0.6042 -0.4226
 3041TIP3    H130614   4.168   1.207  17.273  0.0698 -0.9960 -0.5036
 3041TIP3    H230615   4.250   1.298  17.184  0.4097  0.3490  1.1461
 3042TIP3   OH230616   2.035   3.467  12.279  0.3243 -0.3116 -0.3997
 3042TIP3    H130617   2.025   3.378  12.311  0.2597 -0.2258 -0.1817
 3042TIP3    H230618   2.005   3.463  12.188 -0.0564 -0.4261 -0.2718
 3043TIP3   OH230619   4.207   0.729   2.818 -0.0012  0.3273 -0.1602
 3043TIP3    H130620   4.261   0.792   2.771 -0.1382  1.8548  1.6347
 3043TIP3    H230621   4.122   0.772   2.827  0.0784  0.2003  1.6256
 3044TIP3   OH230622   0.673   4.458   0.835  0.2528  0.0120 -0.0585
 3044TIP3    H130623   0.628   4.386   0.790 -0.1883  2.2951 -3.6140
 3044TIP3    H230624   0.752   4.417   0.870 -0.5813 -2.4491 -0.7918
 3045TIP3   OH230625   3.991   4.964   0.920  0.0642 -0.1642 -0.5108
 3045TIP3    H130626   4.024   5.002   0.839  1.4071  0.9775  0.5187
 3045TIP3    H230627   3.908   5.010   0.936  0.8094  1.1020 -0.1913
 3046TIP3   OH230628   0.652   4.492   3.008 -0.0671  0.3372 -0.3085
 3046TIP3    H130629   0.747   4.480   3.007 -0.2419 -1.1934  0.0614
 3046TIP3    H230630   0.632   4.537   2.926  1.1713  2.4457  0.4762
 3047TIP3   OH230631   1.810   1.835  16.915 -0.2590 -0.2013  0.2495
 3047TIP3    H130632   1.831   1.815  17.006 -1.7795  1.5183  1.0183
 3047TIP3    H230633   1.719   1.863  16.916 -1.4145 -3.2820 -2.3289
 3048TIP3   OH230634   1.487   3.124  12.629 -0.3341  0.1747  0.0558
 3048TIP3    H130635   1.577   3.134  12.597 -0.5777  0.2262 -0.6226
 3048TIP3    H230636   1.479   3.191  12.697  0.3371 -0.2537  0.5804
 3049TIP3   OH230637   1.490   3.482   1.066  0.1747  0.1856 -0.9833
 3049TIP3    H130638   1.555   3.472   0.996  0.5827  2.7685 -1.0686
 3049TIP3    H230639   1.507   3.409   1.125  0.5770 -1.4112 -2.9728
 3050TIP3   OH230640   2.995   3.779  15.341  0.0245 -0.4706  0.0074
 3050TIP3    H130641   2.963   3.727  15.415  1.2716 -0.8214  0.3228
 3050TIP3    H230642   3.062   3.836  15.379  0.3222 -0.3011 -0.7616
 3051TIP3   OH230643   4.124   3.419  16.670  0.8608 -0.1498 -0.1831
 3051TIP3    H130644   4.195   3.466  16.627  0.0556  1.3243  0.0405
 3051TIP3    H230645   4.166   3.376  16.745  2.0398 -1.7701 -1.7113
 3052TIP3   OH230646   2.828   3.633  14.310  0.3413  0.5051  0.2863
 3052TIP3    H130647   2.779   3.592  14.238  2.8876 -0.9344 -0.7468
 3052TIP3    H230648   2.833   3.725  14.285 -0.2581  0.3408 -0.4937
 3053TIP3   OH230649   3.629   0.370  14.515 -0.1671  0.2397 -0.1653
 3053TIP3    H130650   3.611   0.306  14.447 -0.5254  0.4973 -0.3175
 3053TIP3    H230651   3.550   0.425  14.518 -0.2363  0.1096  0.5908
 3054TIP3   OH230652   4.772   3.381   2.552  0.0046  0.2193 -0.0202
 3054TIP3    H130653   4.862   3.348   2.554 -1.0546 -3.6253 -3.1926
 3054TIP3    H230654   4.755   3.398   2.460 -2.2423  1.9813  0.6446
 3055TIP3   OH230655   3.307   4.251  16.487  0.1107  0.1202 -0.4599
 3055TIP3    H130656   3.221   4.292  16.495  0.8663  1.6249  0.2875
 3055TIP3    H230657   3.320   4.242  16.392 -0.7490  0.0842 -0.5903
 3056TIP3   OH230658   4.351   2.685   1.692  0.6624 -0.0018  0.2049
 3056TIP3    H130659   4.346   2.696   1.597 -1.7054  2.0705  0.4558
 3056TIP3    H230660   4.268   2.642   1.715  1.9304 -2.0668  1.2323
 3057TIP3   OH230661   3.821   1.858  13.601  0.0039  0.2600  0.2524
 3057TIP3    H130662   3.895   1.866  13.540 -0.5495 -2.1860 -0.8369
 3057TIP3    H230663   3.860   1.862  13.688  1.3890 -0.6506 -0.3038
 3058TIP3   OH230664   2.086   0.700   0.444  0.0538 -0.1710 -0.1655
 3058TIP3    H130665   2.022   0.730   0.380 -0.1101 -3.4062 -1.7403
 3058TIP3    H230666   2.060   0.609   0.463  0.8863  0.1887  3.5406
 3059TIP3   OH230667   2.987   3.256   3.436 -0.4063 -0.1557  0.3082
 3059TIP3    H130668   2.911   3.199   3.448  0.0308 -0.6183  0.9818
 3059TIP3    H230669   2.959   3.320   3.371 -2.0696  0.8839  1.9493
 3060TIP3   OH230670   4.394   4.166   2.882 -0.0413 -0.4550  0.0337
 3060TIP3    H130671   4.444   4.149   2.802 -1.1433  2.3051 -1.3647
 3060TIP3    H230672   4.305   4.181   2.853 -0.1298  2.5738  1.4331
 3061TIP3   OH230673   6.191   0.574  17.165  0.1015 -0.3872  0.2553
 3061TIP3    H130674   6.131   0.530  17.224 -0.9999  1.2721  0.4245
 3061TIP3    H230675   6.164   0.545  17.078 -0.8275  0.1726  0.3423
 3062TIP3   OH230676   5.018   5.758   2.003 -0.1356  0.2133  0.6383
 3062TIP3    H130677   4.957   5.757   1.930 -1.2678 -0.5955  1.5478
 3062TIP3    H230678   5.006   5.845   2.043 -0.1150  0.3479  0.3535
 3063TIP3   OH230679   1.004   0.813   5.331  0.0592  0.2018 -0.4718
 3063TIP3    H130680   0.956   0.779   5.406 -1.3994  1.5766 -0.7337
 3063TIP3    H230681   1.079   0.858   5.370  1.5423 -2.3938 -0.0873
 3064TIP3   OH230682   5.859   1.157   1.651 -0.2614  0.2587 -0.6031
 3064TIP3    H130683   5.923   1.225   1.631  0.3375 -0.0241  0.3053
 3064TIP3    H230684   5.905   1.075   1.637 -0.1455  0.0527  0.8485
 3065TIP3   OH230685   5.869   6.446   3.418 -0.0511  0.1397 -0.2343
 3065TIP3    H130686   5.775   6.460   3.408 -0.1448 -0.6282 -0.5271
 3065TIP3    H230687   5.878   6.351   3.427  0.9283 -0.1479 -3.1230
 3066TIP3   OH230688   2.613   6.589  16.365  0.0348  0.1618 -0.1416
 3066TIP3    H130689   2.559   6.666  16.382  0.5632  0.4197  0.4224
 3066TIP3    H230690   2.552   6.523  16.335 -0.4895  0.6716 -0.2082
 3067TIP3   OH230691   6.147   2.498   0.022 -0.1243  0.3557 -0.6121
 3067TIP3    H130692   6.091   2.490  -0.056 -0.7951 -0.4815 -0.0555
 3067TIP3    H230693   6.194   2.415   0.026 -0.8945 -0.0460  0.4730
 3068TIP3   OH230694   4.896   2.617  13.345 -0.6417 -0.1963  0.0036
 3068TIP3    H130695   4.842   2.666  13.283 -0.3403 -1.6659 -1.5213
 3068TIP3    H230696   4.836   2.588  13.413 -1.7274 -1.3429 -1.3756
 3069TIP3   OH230697   6.755   1.637   2.555 -0.1671  0.0582 -0.3546
 3069TIP3    H130698   6.791   1.717   2.594 -0.2875 -0.3900  0.7093
 3069TIP3    H230699   6.673   1.622   2.602 -0.6144 -0.1843 -1.1916
 3070TIP3   OH230700   2.955   5.382  14.099  0.1533 -0.6088  0.2772
 3070TIP3    H130701   2.882   5.443  14.107 -0.4079 -1.2478  0.0855
 3070TIP3    H230702   3.025   5.434  14.058 -0.0579  0.1081  0.7924
 3071TIP3   OH230703   6.134   2.464  13.540  0.2429  0.2000  0.0477
 3071TIP3    H130704   6.202   2.526  13.565 -0.1400  0.3387  0.7959
 3071TIP3    H230705   6.172   2.378  13.557  0.1637  0.2828  0.6774
 3072TIP3   OH230706   2.508   3.623   0.584  0.0206 -0.0900  0.1686
 3072TIP3    H130707   2.516   3.653   0.675  0.1799  2.8087 -0.6814
 3072TIP3    H230708   2.429   3.569   0.583  0.4834 -0.8790  2.1538
 3073TIP3   OH230709   3.842   3.211  16.989  0.1552 -0.2646 -0.1298
 3073TIP3    H130710   3.876   3.269  17.057 -0.0040  1.1211 -1.1773
 3073TIP3    H230711   3.892   3.131  16.998  0.2047 -0.0785  1.5441
 3074TIP3   OH230712   2.386   5.810  10.756 -0.0526  0.1100  0.2867
 3074TIP3    H130713   2.305   5.837  10.713  0.7935  1.0814 -0.7323
 3074TIP3    H230714   2.395   5.718  10.732  0.5626  0.7004 -1.9530
 3075TIP3   OH230715   3.395   6.135   0.384  0.3441 -0.2119  0.2985
 3075TIP3    H130716   3.372   6.196   0.314  1.3560  0.1301  0.2486
 3075TIP3    H230717   3.312   6.094   0.408  0.1223 -1.2353 -1.9202
 3076TIP3   OH230718   3.543   0.517   4.384  0.2416  0.7091 -0.2047
 3076TIP3    H130719   3.525   0.465   4.462 -0.9828  0.3263 -0.7160
 3076TIP3    H230720   3.457   0.541   4.351  0.7155  3.5620  0.3072
 3077TIP3   OH230721   6.212   5.004  12.371  0.5755 -0.1788  0.0401
 3077TIP3    H130722   6.224   4.910  12.358 -0.1645 -0.4839  1.3617
 3077TIP3    H230723   6.117   5.015  12.382  0.7142  0.6249  0.5409
 3078TIP3   OH230724   5.608   4.965   1.326 -0.1841  0.0731  0.1537
 3078TIP3    H130725   5.565   4.986   1.408 -1.4356 -0.1324 -0.4213
 3078TIP3    H230726   5.548   4.998   1.258  0.2461 -0.8046 -0.6822
 3079TIP3   OH230727   2.456   6.108   0.296  0.1850 -0.4304  0.0150
 3079TIP3    H130728   2.530   6.046   0.297  0.6829  0.1221  2.2306
 3079TIP3    H230729   2.387   6.063   0.345 -0.8126 -0.7326 -1.6097
 3080TIP3   OH230730   4.917   0.215   4.965 -0.5091  0.3050  0.2286
 3080TIP3    H130731   4.989   0.278   4.954 -2.7163  3.0120  0.2296
 3080TIP3    H230732   4.917   0.166   4.883  0.3060  1.4428 -0.4998
 3081TIP3   OH230733   5.069   6.471   5.477  0.0198 -0.6160  0.0242
 3081TIP3    H130734   5.144   6.480   5.419  0.0669 -0.5837  0.0892
 3081TIP3    H230735   4.997   6.511   5.429  0.8133  2.9599  1.4921
 3082TIP3   OH230736   6.224   1.649  16.697  0.4765 -0.7630 -0.1538
 3082TIP3    H130737   6.207   1.648  16.603  2.1491  0.7726 -0.5178
 3082TIP3    H230738   6.310   1.608  16.707  0.8559  0.1500  0.5500
 3083TIP3   OH230739   6.205   1.075   5.781  0.0627  0.1336 -0.5707
 3083TIP3    H130740   6.205   1.130   5.859 -0.2008  0.3545 -0.7222
 3083TIP3    H230741   6.165   0.992   5.809 -0.7687  0.4914 -0.6581
 3084TIP3   OH230742   1.225   5.650  15.808  0.4110  0.5166 -0.1847
 3084TIP3    H130743   1.253   5.569  15.765  0.3708  1.0056 -1.1744
 3084TIP3    H230744   1.298   5.674  15.864 -0.4649 -1.4044  1.9358
 3085TIP3   OH230745   2.295   5.164   4.867 -0.2546 -0.1111  0.4585
 3085TIP3    H130746   2.292   5.221   4.945  1.3467  0.7219 -0.0430
 3085TIP3    H230747   2.297   5.075   4.903 -0.2012  0.2361  1.3543
 3086TIP3   OH230748   3.331   0.421  11.187  0.8216  0.6306  0.2256
 3086TIP3    H130749   3.356   0.358  11.120  0.8004  1.9498 -1.0487
 3086TIP3    H230750   3.253   0.382  11.228 -1.2974  1.3252 -2.8385
 3087TIP3   OH230751   0.217   2.634  10.864 -0.0296  0.3584  0.5488
 3087TIP3    H130752   0.194   2.633  10.771 -1.9681 -0.3424  0.9986
 3087TIP3    H230753   0.288   2.570  10.871  0.4094  0.6983 -0.4918
 3088TIP3   OH230754   4.097   0.479  15.857 -0.5340  0.3735 -0.4652
 3088TIP3    H130755   4.122   0.458  15.767 -1.5980 -0.1925 -0.6490
 3088TIP3    H230756   4.179   0.474  15.907 -0.0043  0.2978 -1.3318
 3089TIP3   OH230757   2.849   1.472  10.777  0.3411  0.0741 -0.3409
 3089TIP3    H130758   2.775   1.481  10.837  0.8519 -0.2165  0.3604
 3089TIP3    H230759   2.857   1.557  10.734 -0.8341 -0.1160 -0.9496
 3090TIP3   OH230760   1.774   4.998   5.398  0.2409  0.8352 -0.4539
 3090TIP3    H130761   1.690   5.040   5.382 -1.2632 -1.4835  0.7725
 3090TIP3    H230762   1.794   5.019   5.489  0.2760  0.2449 -0.3215
 3091TIP3   OH230763   4.160   6.323  14.803 -0.0399 -0.1025  0.5368
 3091TIP3    H130764   4.189   6.249  14.749 -0.6906 -0.9975  1.3739
 3091TIP3    H230765   4.241   6.368  14.827  0.4872 -1.2366  0.9775
 3092TIP3   OH230766   1.462   6.113   2.719 -0.3880  0.5077 -0.1549
 3092TIP3    H130767   1.493   6.193   2.677 -1.4815  2.0538  1.7989
 3092TIP3    H230768   1.373   6.134   2.748  0.8856  0.4764  4.7992
 3093TIP3   OH230769   0.854   4.495  14.046  0.1733 -0.0988 -0.0573
 3093TIP3    H130770   0.873   4.581  14.009  0.3263 -0.8731 -1.8548
 3093TIP3    H230771   0.770   4.507  14.090  0.5562  1.1464  0.3711
 3094TIP3   OH230772   0.140   6.130   1.128  0.0371  0.5174  0.8181
 3094TIP3    H130773   0.186   6.106   1.049 -0.9035  0.1010  0.3792
 3094TIP3    H230774   0.047   6.130   1.103 -0.4188 -1.2542  2.3071
 3095TIP3   OH230775   0.667   3.732  12.332 -0.1963  0.2766  0.9092
 3095TIP3    H130776   0.725   3.804  12.354 -1.2891  1.0105  1.4959
 3095TIP3    H230777   0.718   3.677  12.272  0.6001  1.6098  0.3187
 3096TIP3   OH230778   6.732   3.558  13.866 -0.0732 -0.0938 -0.0430
 3096TIP3    H130779   6.739   3.580  13.959 -2.5099 -0.6890  0.3706
 3096TIP3    H230780   6.786   3.623  13.821 -0.1746  1.2615  1.6919
 3097TIP3   OH230781   6.251   3.328   4.821 -0.0183 -0.4292 -0.8522
 3097TIP3    H130782   6.221   3.344   4.731  0.5237 -0.0166 -0.9592
 3097TIP3    H230783   6.270   3.234   4.823  0.8137 -0.2758 -1.4243
 3098TIP3   OH230784   5.195   3.600  13.083  0.5604 -0.2225 -0.0094
 3098TIP3    H130785   5.142   3.623  13.159  0.8592 -0.3837  0.2520
 3098TIP3    H230786   5.165   3.658  13.014 -1.0237 -1.3173 -0.3048
 3099TIP3   OH230787   5.108   3.642  15.960 -0.0141 -0.2760 -0.0789
 3099TIP3    H130788   5.086   3.555  15.928  1.1013 -0.8869  0.7751
 3099TIP3    H230789   5.055   3.701  15.906  0.3135 -1.3851 -1.6723
 3100TIP3   OH230790   1.778   3.973   2.218 -0.7833  0.8400 -0.7275
 3100TIP3    H130791   1.828   4.047   2.253 -2.0107  1.4295 -0.1491
 3100TIP3    H230792   1.828   3.943   2.143  0.2585  1.6137 -0.3617
 3101TIP3   OH230793   0.068   1.719  12.094  0.3462  0.4459  0.1141
 3101TIP3    H130794   0.101   1.649  12.149 -0.4580 -1.4821 -1.7412
 3101TIP3    H230795  -0.013   1.685  12.056 -0.3395  2.5604 -0.5039
 3102TIP3   OH230796   4.570   1.534   1.379 -0.3782 -0.4125  0.8692
 3102TIP3    H130797   4.526   1.620   1.376 -1.1078 -0.7762  0.9706
 3102TIP3    H230798   4.509   1.478   1.425 -0.1871 -1.1599  0.2301
 3103TIP3   OH230799   0.585   3.947  13.872 -0.3781 -0.1198 -0.0173
 3103TIP3    H130800   0.642   3.914  13.941  1.1790  1.8787 -0.2484
 3103TIP3    H230801   0.621   4.033  13.850 -0.0655 -1.0727 -4.0794
 3104TIP3   OH230802   3.625   0.847  14.154 -0.2160 -0.1483  0.2264
 3104TIP3    H130803   3.710   0.843  14.110 -0.0742  0.6493  0.4028
 3104TIP3    H230804   3.637   0.795  14.234  0.2100  0.2106  0.4036
 3105TIP3   OH230805   4.153   4.658   4.737  0.7021  0.7513 -0.1297
 3105TIP3    H130806   4.139   4.733   4.795  0.1192  0.0387  0.6798
 3105TIP3    H230807   4.224   4.685   4.679  0.9073  1.6936  0.5400
 3106TIP3   OH230808   2.160   5.516  13.224 -0.1670 -0.0747  0.3195
 3106TIP3    H130809   2.126   5.601  13.194 -0.4611 -0.4405 -0.4069
 3106TIP3    H230810   2.105   5.494  13.299 -1.5275 -0.6290 -0.8055
 3107TIP3   OH230811   4.764   2.096  15.252 -0.0866 -0.0985 -0.5369
 3107TIP3    H130812   4.788   2.051  15.172  0.6050 -1.4075  0.3650
 3107TIP3    H230813   4.822   2.173  15.255  0.0709 -0.1889 -1.1422
 3108TIP3   OH230814   3.238   4.505   5.585  0.6558 -0.3732 -0.1913
 3108TIP3    H130815   3.323   4.462   5.588  0.4338 -0.8007  2.7024
 3108TIP3    H230816   3.258   4.599   5.591  0.9238 -0.4367 -0.0823
 3109TIP3   OH230817   4.497   5.876   0.206 -0.3765  0.1855 -0.1317
 3109TIP3    H130818   4.411   5.915   0.219 -0.6684  0.0634 -1.5480
 3109TIP3    H230819   4.555   5.926   0.264 -1.6004 -0.6623  1.9453
 3110TIP3   OH230820   3.763   6.718  11.062 -0.1154 -0.8760 -0.0425
 3110TIP3    H130821   3.843   6.718  11.009  0.0903 -1.2366  0.2690
 3110TIP3    H230822   3.698   6.761  11.006  0.8025  1.2853  0.4748
 3111TIP3   OH230823   4.497   5.739   2.351 -0.2511 -0.2071 -0.1346
 3111TIP3    H130824   4.423   5.769   2.404  0.6152 -0.4605  1.2824
 3111TIP3    H230825   4.554   5.693   2.413 -0.3792 -2.7595 -1.7711
 3112TIP3   OH230826   2.974   0.994  15.594 -0.1216 -0.1521 -0.1181
 3112TIP3    H130827   3.034   0.919  15.599  0.7250  0.5137 -0.0223
 3112TIP3    H230828   2.889   0.958  15.616  0.0003 -1.3928 -1.5160
 3113TIP3   OH230829   4.150   1.822  15.047  0.7715 -0.4665  0.6071
 3113TIP3    H130830   4.079   1.877  15.016  1.1011 -0.9658 -1.1215
 3113TIP3    H230831   4.201   1.879  15.104  1.5036  1.2842 -1.6478
 3114TIP3   OH230832   3.320   6.609  15.641 -0.4888  0.3581 -0.1581
 3114TIP3    H130833   3.392   6.601  15.704 -0.4168 -0.6080 -0.3538
 3114TIP3    H230834   3.351   6.566  15.562 -1.6808 -1.0845  0.1160
 3115TIP3   OH230835   5.600   4.269   2.266  0.2413  0.7392 -0.4263
 3115TIP3    H130836   5.617   4.175   2.250 -1.4737  0.0444  1.4926
 3115TIP3    H230837   5.686   4.305   2.287  0.6868 -0.8373  0.6774
 3116TIP3   OH230838   2.964   3.209   5.901 -0.3151  0.0507 -0.0077
 3116TIP3    H130839   3.050   3.227   5.940  0.1910  0.7306 -1.3973
 3116TIP3    H230840   2.965   3.254   5.817 -1.8112 -0.4507 -0.3280
 3117TIP3   OH230841   1.878   6.676  13.542 -0.1953  0.2623 -0.2177
 3117TIP3    H130842   1.861   6.599  13.596 -1.7130 -0.8883 -2.2080
 3117TIP3    H230843   1.928   6.643  13.468 -1.6420  0.9567 -1.5651
 3118TIP3   OH230844   1.957   4.076  11.503 -0.3165 -0.1374 -0.8184
 3118TIP3    H130845   1.910   4.157  11.482 -0.0498  0.2156 -0.0838
 3118TIP3    H230846   1.995   4.049  11.419 -1.0665  0.0629 -1.2340
 3119TIP3   OH230847   4.761   5.570  14.512  0.3177  0.8226  0.1227
 3119TIP3    H130848   4.856   5.575  14.501  0.3869  1.0707  0.7974
 3119TIP3    H230849   4.744   5.614  14.595 -0.2640 -0.3194  0.6347
 3120TIP3   OH230850   1.606   5.237   4.110  0.8170 -0.1837  0.2966
 3120TIP3    H130851   1.545   5.182   4.061  0.5656  0.6006 -0.2998
 3120TIP3    H230852   1.614   5.195   4.195 -0.4339 -0.3859  0.3300
 3121TIP3   OH230853   0.744   5.971   2.421 -0.6049 -1.0319  0.7764
 3121TIP3    H130854   0.686   5.912   2.468 -1.3170 -0.0362  1.1751
 3121TIP3    H230855   0.821   5.980   2.477 -1.3622 -0.0127  1.6975
 3122TIP3   OH230856   3.930   6.101   2.724  0.1455  0.6443 -0.8242
 3122TIP3    H130857   4.001   6.152   2.763 -0.3986  1.4581 -0.8780
 3122TIP3    H230858   3.868   6.166   2.692 -1.4211 -0.0291  0.6693
 3123TIP3   OH230859   2.951   3.034   3.167 -0.5519 -0.5408 -0.1634
 3123TIP3    H130860   2.932   3.025   3.074  0.0556  1.4355 -0.5268
 3123TIP3    H230861   2.880   3.089   3.201 -0.3849 -0.6614  0.3882
 3124TIP3   OH230862   1.641   5.554   0.529  0.3960  0.2441  0.3707
 3124TIP3    H130863   1.696   5.555   0.451 -0.0621  0.0311  0.0400
 3124TIP3    H230864   1.658   5.469   0.570 -0.3065 -0.1781 -0.1881
 3125TIP3   OH230865   3.016   1.946   5.444  0.6224  0.2286  0.4228
 3125TIP3    H130866   3.029   1.998   5.523  0.2011  0.6602  0.2139
 3125TIP3    H230867   3.039   1.857   5.470 -1.3233  0.0105  1.5494
 3126TIP3   OH230868   3.542   2.884   1.330 -0.3271 -0.7604 -0.0009
 3126TIP3    H130869   3.634   2.895   1.306  0.0569 -0.0517  1.6610
 3126TIP3    H230870   3.526   2.953   1.395 -2.6832  0.6388 -1.8848
 3127TIP3   OH230871   3.033   4.707   1.026 -0.3676  0.0285 -0.0280
 3127TIP3    H130872   3.037   4.797   0.993 -1.4771  0.8343  1.8499
 3127TIP3    H230873   2.979   4.660   0.962 -2.8721  1.6418  0.7438
 3128TIP3   OH230874   0.958   3.741   4.757  0.0675  1.0033 -0.5410
 3128TIP3    H130875   0.870   3.735   4.794  0.0536  2.9615 -0.1283
 3128TIP3    H230876   0.950   3.702   4.670 -0.8260 -0.1686  0.0368
 3129TIP3   OH230877   5.575   1.726  15.319 -0.3116 -0.2940  0.2264
 3129TIP3    H130878   5.631   1.736  15.242 -0.3628 -2.0363 -0.0858
 3129TIP3    H230879   5.497   1.777  15.299 -0.4501 -0.9601 -1.0358
 3130TIP3   OH230880   3.058   2.329   4.953  0.7111  0.3443  0.2184
 3130TIP3    H130881   3.028   2.310   4.864 -0.4285 -1.3459  0.9072
 3130TIP3    H230882   3.098   2.247   4.982  0.0053  0.4960  1.6773
 3131TIP3   OH230883   2.372   2.927   5.014 -0.2820 -0.2374 -0.0980
 3131TIP3    H130884   2.320   3.005   4.998  2.6297  2.1812  1.2816
 3131TIP3    H230885   2.367   2.914   5.108  1.9245  0.4013  0.1550
 3132TIP3   OH230886   3.286   5.042   0.334  0.6335  0.3600 -0.5156
 3132TIP3    H130887   3.347   5.001   0.396 -0.0002 -0.7023 -0.5587
 3132TIP3    H230888   3.213   5.069   0.389  0.3603  0.0063 -0.6987
 3133TIP3   OH230889   5.976   0.934   4.896 -0.3183  0.4512 -0.0084
 3133TIP3    H130890   5.909   0.913   4.961  0.4768  1.0652  1.0521
 3133TIP3    H230891   6.017   1.014   4.929  0.5850  0.3800 -0.9077
 3134TIP3   OH230892   6.010   6.634  11.976 -0.8120  0.0055 -0.6039
 3134TIP3    H130893   5.982   6.668  11.891  0.3927  0.6573 -0.7710
 3134TIP3    H230894   6.021   6.540  11.962 -1.6759 -0.0615 -0.8618
 3135TIP3   OH230895   1.424   0.282  13.160 -0.4810  1.1301 -0.3385
 3135TIP3    H130896   1.380   0.219  13.216  0.2252  0.5012 -0.4712
 3135TIP3    H230897   1.407   0.252  13.071  1.4974 -0.0477 -0.3652
 3136TIP3   OH230898   2.622   2.867   0.971  0.3810 -0.3294 -0.0846
 3136TIP3    H130899   2.534   2.893   0.944  1.7262  3.4808 -1.5000
 3136TIP3    H230900   2.611   2.833   1.059 -2.6462 -1.2671 -0.7121
 3137TIP3   OH230901   3.976   4.401  16.219  0.0581 -0.7866  0.1034
 3137TIP3    H130902   4.068   4.414  16.196  0.2064 -2.0525 -0.0595
 3137TIP3    H230903   3.949   4.485  16.257  0.7061  0.2917 -1.6610
 3138TIP3   OH230904   1.689   2.414  15.598  0.0741 -0.1962  0.1763
 3138TIP3    H130905   1.762   2.475  15.608  0.3025 -0.6367  1.4175
 3138TIP3    H230906   1.635   2.428  15.676  0.5573 -2.0928  0.9118
 3139TIP3   OH230907   3.533   4.552  13.686  0.1404 -0.0078 -0.3189
 3139TIP3    H130908   3.593   4.518  13.752 -0.2095 -0.5558 -0.2690
 3139TIP3    H230909   3.545   4.494  13.611 -0.7281 -0.4881 -0.1077
 3140TIP3   OH230910   3.956   5.448   0.681  0.5710  0.2933 -0.4295
 3140TIP3    H130911   3.955   5.543   0.667  1.6266  0.2432 -0.9719
 3140TIP3    H230912   3.890   5.414   0.620 -1.3305  0.8096  1.2190
 3141TIP3   OH230913   6.351   1.487  11.092 -0.5638  0.0456 -0.2149
 3141TIP3    H130914   6.330   1.559  11.032  0.7635 -0.2361 -1.0523
 3141TIP3    H230915   6.309   1.410  11.052  0.6313 -0.2125 -1.0138
 3142TIP3   OH230916   4.576   6.419   2.175 -0.1419  0.0153 -0.1289
 3142TIP3    H130917   4.554   6.507   2.145 -1.0399  0.4512  1.6357
 3142TIP3    H230918   4.671   6.421   2.186 -0.0462  0.4569 -0.9703
 3143TIP3   OH230919   1.159   3.797  11.062 -0.0860 -0.0094  0.6863
 3143TIP3    H130920   1.160   3.821  11.155  1.9636  0.7521  0.5023
 3143TIP3    H230921   1.214   3.862  11.019 -0.2404 -0.8921 -0.9394
 3144TIP3   OH230922   3.255   4.892  10.841  0.1239  0.1995  0.0353
 3144TIP3    H130923   3.162   4.898  10.819  0.2174 -0.3731 -0.5514
 3144TIP3    H230924   3.300   4.932  10.767  0.2815  3.3009  1.6375
 3145TIP3   OH230925   5.549   2.271  16.156  0.1378 -0.1551  0.4623
 3145TIP3    H130926   5.630   2.226  16.129 -0.1003 -1.5237  1.9081
 3145TIP3    H230927   5.479   2.222  16.112  0.0296  0.8086 -0.5004
 3146TIP3   OH230928   6.308   2.216   1.083 -0.5718 -0.4517 -0.2506
 3146TIP3    H130929   6.385   2.262   1.115 -0.4768 -0.7207 -0.0917
 3146TIP3    H230930   6.311   2.130   1.126 -1.9119  0.1525  1.1583
 3147TIP3   OH230931   4.186   5.497  16.158 -0.0268  0.1722 -0.1781
 3147TIP3    H130932   4.143   5.582  16.170 -3.8198 -1.7125  1.1683
 3147TIP3    H230933   4.203   5.467  16.247  0.3590 -0.8944 -0.6037
 3148TIP3   OH230934   5.480   0.198   0.735 -0.1109 -0.1997  0.3392
 3148TIP3    H130935   5.427   0.273   0.709 -1.0406 -0.8490  0.3143
 3148TIP3    H230936   5.563   0.236   0.765  0.0249  0.7442 -1.1257
 3149TIP3   OH230937   1.751   4.238   2.581  0.4821  0.2030 -0.1595
 3149TIP3    H130938   1.731   4.329   2.559 -1.6785  0.1545  1.2836
 3149TIP3    H230939   1.781   4.242   2.672  2.4617 -0.3444 -0.7388
 3150TIP3   OH230940   3.836   5.999  13.680  0.4693 -0.0614 -0.0538
 3150TIP3    H130941   3.831   6.016  13.586  1.1045 -0.4513 -0.1617
 3150TIP3    H230942   3.776   5.926  13.695  2.2274 -1.7171 -0.5983
 3151TIP3   OH230943   5.011   1.448  11.270  0.0467 -0.9831 -0.5758
 3151TIP3    H130944   4.928   1.423  11.230 -0.2446 -1.1157  0.0984
 3151TIP3    H230945   4.997   1.439  11.364  0.1786  0.9668 -0.3211
 3152TIP3   OH230946   1.922   6.568   3.852 -0.2099 -0.3696 -0.3694
 3152TIP3    H130947   1.940   6.514   3.774 -0.0709 -1.0801  0.1436
 3152TIP3    H230948   1.942   6.657   3.824  0.5211 -0.7000 -0.9458
 3153TIP3   OH230949   2.202   0.025   2.106 -0.8832  0.2742 -0.4807
 3153TIP3    H130950   2.197  -0.059   2.153 -1.1545  1.0769  0.9989
 3153TIP3    H230951   2.212   0.001   2.014 -0.2173 -1.3797 -0.0098
 3154TIP3   OH230952   2.508   5.470   3.041 -0.4083 -0.1163 -0.3015
 3154TIP3    H130953   2.432   5.412   3.047  0.4912 -1.3210 -0.2297
 3154TIP3    H230954   2.509   5.516   3.125 -0.7912 -0.4469 -0.1120
 3155TIP3   OH230955   6.385   5.604   5.572  0.2348 -0.0514  0.0147
 3155TIP3    H130956   6.480   5.616   5.579  0.3637 -0.3977 -0.9154
 3155TIP3    H230957   6.375   5.512   5.547 -0.3003  0.1711 -0.6182
 3156TIP3   OH230958   3.918   0.293   2.211  0.0750 -0.2364 -0.0860
 3156TIP3    H130959   4.008   0.258   2.212  0.1907  0.0285 -0.6610
 3156TIP3    H230960   3.870   0.238   2.273  0.7241 -0.1405  0.5152
 3157TIP3   OH230961   0.653   2.331   0.276 -0.1018  0.8970 -0.1907
 3157TIP3    H130962   0.712   2.272   0.323 -0.0319 -0.0512 -1.3921
 3157TIP3    H230963   0.566   2.293   0.289 -0.1851  1.1110 -0.1264
 3158TIP3   OH230964   5.876   2.401  12.165 -0.0877 -0.1518  0.6123
 3158TIP3    H130965   5.879   2.447  12.249 -0.2012  0.0705  0.4953
 3158TIP3    H230966   5.967   2.393  12.138 -0.1223  0.9673  0.1086
 3159TIP3   OH230967   2.574   0.001   5.667 -0.3153  0.0278 -0.1077
 3159TIP3    H130968   2.483   0.014   5.639  0.2079  2.4304 -0.9128
 3159TIP3    H230969   2.591  -0.092   5.648 -2.2472 -0.2020 -1.0124
 3160TIP3   OH230970   4.834   1.205  11.516 -0.3255 -0.3560 -0.2536
 3160TIP3    H130971   4.782   1.158  11.450 -1.5959 -0.0069  0.4721
 3160TIP3    H230972   4.796   1.179  11.600  1.0267 -0.4891  0.3337
 3161TIP3   OH230973   3.992   5.162   3.805  0.5388  0.2800  0.2923
 3161TIP3    H130974   4.020   5.248   3.836  1.5224 -0.5105  1.7544
 3161TIP3    H230975   3.908   5.177   3.764  0.8193  1.9828  0.2711
 3162TIP3   OH230976   2.119   6.166  12.624  0.0350 -0.1306 -0.0626
 3162TIP3    H130977   2.025   6.176  12.635  0.1178 -1.0770  1.8697
 3162TIP3    H230978   2.128   6.111  12.546 -0.9906  0.2289 -0.4452
 3163TIP3   OH230979   6.678   1.980  16.368  0.0490  0.6519  0.3290
 3163TIP3    H130980   6.588   2.011  16.369 -0.1335  0.1567 -0.2591
 3163TIP3    H230981   6.710   1.997  16.456 -0.9029  0.0212  0.8156
 3164TIP3   OH230982   6.684   4.272  16.578  0.3916 -0.1712  0.0720
 3164TIP3    H130983   6.711   4.207  16.513  0.2836 -0.2365  0.0922
 3164TIP3    H230984   6.642   4.341  16.526 -1.1911 -0.9856  0.2028
 3165TIP3   OH230985   4.804   6.366   3.785  0.3856 -0.7052  0.1716
 3165TIP3    H130986   4.852   6.439   3.747 -1.9274 -0.1507 -1.8875
 3165TIP3    H230987   4.816   6.377   3.880  2.4016  0.6427 -0.1684
 3166TIP3   OH230988   2.520   3.063  12.752 -0.1031  0.3725  0.4349
 3166TIP3    H130989   2.533   3.158  12.744 -0.9060  0.5354  0.8789
 3166TIP3    H230990   2.465   3.053  12.830 -0.2863 -0.4358  0.2143
 3167TIP3   OH230991   5.873   5.361   1.240 -0.0634  0.1763 -0.0468
 3167TIP3    H130992   5.833   5.411   1.168  1.4233  0.4402 -0.7282
 3167TIP3    H230993   5.959   5.401   1.251  0.2525 -0.7543  0.9817
 3168TIP3   OH230994   6.529   0.155  12.366 -0.7633 -0.4817 -0.1763
 3168TIP3    H130995   6.541   0.068  12.403  1.4708 -0.5192 -0.8557
 3168TIP3    H230996   6.493   0.139  12.278 -0.7898 -0.6930 -0.1279
 3169TIP3   OH230997   1.727   0.746  11.372  0.1794 -0.3446 -0.3246
 3169TIP3    H130998   1.793   0.815  11.370  1.1239 -1.2243 -0.2726
 3169TIP3    H230999   1.718   0.724  11.465 -0.3084 -0.1338 -0.3156
 3170TIP3   OH231000   2.015   0.993  11.625 -0.3631 -0.3362 -0.1644
 3170TIP3    H131001   1.998   0.987  11.531  0.0271 -0.6820 -0.2182
 3170TIP3    H231002   2.111   0.991  11.632 -0.3764  0.0771  0.2175
 3171TIP3   OH231003   4.442   2.521   4.508  0.3825 -0.2768  0.1961
 3171TIP3    H131004   4.352   2.513   4.540  0.5922 -0.3259  0.7831
 3171TIP3    H231005   4.491   2.456   4.558  0.8096 -0.0164  0.1141
 3172TIP3   OH231006   1.252   5.891   4.175  0.2555 -0.0394  0.2016
 3172TIP3    H131007   1.232   5.906   4.083 -0.9014  0.5197  0.5338
 3172TIP3    H231008   1.243   5.976   4.217  1.1417 -0.2108  0.7845
 3173TIP3   OH231009   2.754   0.978   1.899 -0.3575  1.2493 -0.9187
 3173TIP3    H131010   2.667   0.956   1.866 -0.8748 -1.5594  1.7501
 3173TIP3    H231011   2.812   0.913   1.858  0.2587  2.2215 -1.6187
 3174TIP3   OH231012   2.943   2.945   5.442 -0.3651 -0.5113  0.4943
 3174TIP3    H131013   2.995   2.966   5.520 -1.3367  0.8440  0.8267
 3174TIP3    H231014   2.856   2.980   5.462 -1.2037 -2.0095 -0.3613
 3175TIP3   OH231015   4.172   3.864   5.151  0.5672 -0.4966 -0.4489
 3175TIP3    H131016   4.096   3.892   5.202  0.7666 -0.3238 -0.2469
 3175TIP3    H231017   4.136   3.802   5.087  0.4381 -1.2775  0.3748
 3176TIP3   OH231018   2.724   0.205  16.482 -0.2350  0.0132  0.3406
 3176TIP3    H131019   2.781   0.203  16.405  0.8312  0.0549  1.0987
 3176TIP3    H231020   2.784   0.191  16.556 -1.4464 -1.8498  1.0474
 3177TIP3   OH231021   5.831   1.349  14.095  0.4542  0.0570  1.0183
 3177TIP3    H131022   5.890   1.292  14.045 -0.3843  0.0734 -0.0332
 3177TIP3    H231023   5.877   1.433  14.101  0.5566  0.0668  0.2084
 3178TIP3   OH231024   5.517   6.363   1.048 -0.1141  0.5888  0.8190
 3178TIP3    H131025   5.494   6.372   0.956  1.0738 -1.3758  0.2659
 3178TIP3    H231026   5.440   6.324   1.089 -0.0166 -0.1816  0.2814
 3179TIP3   OH231027   5.900   1.029  15.458  0.0847 -0.1194 -0.4764
 3179TIP3    H131028   5.855   1.013  15.375 -1.1811 -0.6859  0.2946
 3179TIP3    H231029   5.883   0.950  15.510  1.7845 -0.2556 -0.0538
 3180TIP3   OH231030   6.349   3.712   5.398 -0.0076 -0.2832  0.6110
 3180TIP3    H131031   6.423   3.736   5.454  0.8472 -1.5114  0.0537
 3180TIP3    H231032   6.349   3.778   5.329  1.3073 -0.9258 -0.0287
 3181TIP3   OH231033   4.202   1.242  16.184 -0.3425 -0.4324  0.0241
 3181TIP3    H131034   4.197   1.211  16.094 -0.6723 -1.3483  0.3489
 3181TIP3    H231035   4.243   1.170  16.232 -1.3895 -0.4966  0.8504
 3182TIP3   OH231036   2.844   6.138  15.238  0.1914  0.1624  0.6004
 3182TIP3    H131037   2.808   6.129  15.150 -1.0461  0.4128  1.0623
 3182TIP3    H231038   2.938   6.125  15.227  0.1174  0.6954 -0.8288
 3183TIP3   OH231039   4.201   3.902  17.177  0.3924 -0.0313  1.0190
 3183TIP3    H131040   4.126   3.846  17.156 -0.0595  1.1105 -0.5652
 3183TIP3    H231041   4.204   3.902  17.273 -1.6217 -0.1482  1.1244
 3184TIP3   OH231042   5.688   0.449   1.894 -0.3381 -0.6415  0.0756
 3184TIP3    H131043   5.716   0.385   1.829  0.0159  0.0562 -0.4813
 3184TIP3    H231044   5.650   0.397   1.965  2.0767 -1.6220  0.7375
 3185TIP3   OH231045   2.356   6.676   6.212  0.1952  0.3025  0.0963
 3185TIP3    H131046   2.442   6.702   6.247  0.1128 -0.7361  1.1532
 3185TIP3    H231047   2.327   6.607   6.271 -0.3740 -0.9444 -1.5741
 3186TIP3   OH231048   1.747   0.700   1.340 -0.7258 -0.0410 -0.3946
 3186TIP3    H131049   1.788   0.707   1.426 -1.2683 -0.1057 -0.1280
 3186TIP3    H231050   1.728   0.607   1.329 -2.2492  0.1691  0.1794
 3187TIP3   OH231051   0.702   4.374  15.057 -0.0774  0.2218 -0.3655
 3187TIP3    H131052   0.778   4.414  15.099 -0.3291 -0.2390  0.5421
 3187TIP3    H231053   0.738   4.297  15.012 -0.1749 -0.6826  1.0629
 3188TIP3   OH231054   3.858   3.213  12.548  0.3065 -0.0253  0.2354
 3188TIP3    H131055   3.789   3.241  12.487  0.8954 -2.2855 -1.6454
 3188TIP3    H231056   3.877   3.123  12.521  4.4363  0.6687  0.2274
 3189TIP3   OH231057   3.213   3.597   2.316  0.5235  0.0592  0.2834
 3189TIP3    H131058   3.296   3.554   2.296  0.2132 -0.5372  0.2605
 3189TIP3    H231059   3.222   3.627   2.406  0.4244 -0.8113  0.5834
 3190TIP3   OH231060   1.818   5.564   0.760  0.3758  0.2815  0.8832
 3190TIP3    H131061   1.754   5.636   0.765  0.9147  1.1466 -2.2635
 3190TIP3    H231062   1.768   5.486   0.782 -2.3329  0.7253 -2.8160
 3191TIP3   OH231063   4.965   1.163   5.474 -0.0309  0.1418 -0.2533
 3191TIP3    H131064   4.977   1.143   5.567  0.3402 -0.1930 -0.3697
 3191TIP3    H231065   5.017   1.242   5.460  0.6344 -0.3038 -0.3629
 3192TIP3   OH231066   3.712   5.583   2.844  0.1179  0.2506  0.6767
 3192TIP3    H131067   3.785   5.522   2.834  0.4741  0.7725  0.0151
 3192TIP3    H231068   3.741   5.663   2.800 -1.1097  0.2588 -0.1608
 3193TIP3   OH231069   2.006   6.285   5.650 -0.1326  0.3330  0.2859
 3193TIP3    H131070   1.913   6.297   5.627 -0.7001 -1.7250  1.2570
 3193TIP3    H231071   2.052   6.289   5.566 -1.0284  1.7490 -0.1749
 3194TIP3   OH231072   2.035   0.558   4.690 -0.6587 -0.1288 -0.1020
 3194TIP3    H131073   1.944   0.588   4.687  0.2112  2.7471 -1.1115
 3194TIP3    H231074   2.071   0.585   4.606  1.5076  0.1300  0.8595
 3195TIP3   OH231075   4.584   5.867   3.044 -0.7220  0.7166  0.4844
 3195TIP3    H131076   4.490   5.888   3.045 -0.7810  0.8631 -2.0325
 3195TIP3    H231077   4.588   5.775   3.069 -1.5695  0.6369  0.3610
 3196TIP3   OH231078   4.678   4.933  17.125 -0.1177 -1.1068 -0.4375
 3196TIP3    H131079   4.655   5.014  17.079 -2.4541  0.7596  3.4324
 3196TIP3    H231080   4.773   4.926  17.116  0.5495  3.3097  0.6759
 3197TIP3   OH231081   6.122   1.891  12.691 -0.1282  0.2256  0.0008
 3197TIP3    H131082   6.069   1.888  12.611  1.2600  0.2053 -0.9419
 3197TIP3    H231083   6.072   1.947  12.750 -0.9699  0.5934 -1.0243
 3198TIP3   OH231084   0.402   3.231  12.789 -0.1871  0.5811  0.4947
 3198TIP3    H131085   0.331   3.286  12.823  0.2190  1.0587  0.5821
 3198TIP3    H231086   0.456   3.290  12.737 -0.1832  0.0888 -0.0672
 3199TIP3   OH231087   5.368   1.144   6.544  0.3632  0.6930  0.5577
 3199TIP3    H131088   5.415   1.226   6.533 -0.2454  0.9538 -0.2173
 3199TIP3    H231089   5.275   1.168   6.536  0.0952  0.1558  1.8170
 3200TIP3   OH231090   4.889   2.886  15.200 -0.4505  0.7281  0.8727
 3200TIP3    H131091   4.846   2.941  15.135  1.2756  1.2472  0.1056
 3200TIP3    H231092   4.982   2.892  15.178  0.0157 -0.4160  2.3900
 3201TIP3   OH231093   3.442   4.230   2.948  0.1865 -0.4430  0.1712
 3201TIP3    H131094   3.347   4.246   2.945  0.1400 -0.1711  1.9193
 3201TIP3    H231095   3.450   4.145   2.990  0.7179 -0.1896  0.6009
 3202TIP3   OH231096   1.391   2.578  14.660  0.1306 -0.1835  0.1447
 3202TIP3    H131097   1.302   2.609  14.641  0.3544 -0.4636 -1.4893
 3202TIP3    H231098   1.382   2.528  14.741 -1.0584  0.4169  0.4103
 3203TIP3   OH231099   0.021   6.054  13.193  0.2334 -0.2230  0.8081
 3203TIP3    H131100   0.046   5.970  13.155  1.0241 -0.6943  2.3176
 3203TIP3    H231101   0.020   6.039  13.288  3.5315  2.2269  1.3873
 3204TIP3   OH231102   6.009   3.406   2.917  0.3521 -0.3716 -0.2657
 3204TIP3    H131103   5.957   3.404   2.998 -0.3532 -0.8318 -0.7134
 3204TIP3    H231104   6.024   3.313   2.897  2.2922 -0.2430  0.4343
 3205TIP3   OH231105   5.802   0.845   5.125  0.6516  0.0503 -0.3924
 3205TIP3    H131106   5.816   0.769   5.069 -0.7136 -1.3358  1.0462
 3205TIP3    H231107   5.837   0.818   5.210 -0.9805  0.5443  0.4652
 3206TIP3   OH231108   3.492   5.311   0.577  0.4981 -0.4198  0.2417
 3206TIP3    H131109   3.533   5.226   0.591 -0.7014 -0.9271  0.8542
 3206TIP3    H231110   3.434   5.297   0.502  1.2382  0.2195 -0.4660
 3207TIP3   OH231111   4.343   4.481  14.727 -0.1761  0.2512  0.0864
 3207TIP3    H131112   4.430   4.444  14.741 -1.0443 -2.1952 -0.4699
 3207TIP3    H231113   4.295   4.413  14.679 -3.2553  0.2045  2.8016
 3208TIP3   OH231114   4.244   0.913   6.007 -0.4502  0.3876 -0.2253
 3208TIP3    H131115   4.334   0.905   6.039 -1.1876  0.0434  1.8995
 3208TIP3    H231116   4.189   0.895   6.083 -2.3617 -0.8818 -1.7956
 3209TIP3   OH231117   2.233   0.977  14.684  0.1253  0.2524 -0.0638
 3209TIP3    H131118   2.314   0.930  14.702  0.1826  0.5868  0.5711
 3209TIP3    H231119   2.253   1.033  14.609  0.1083 -0.5888 -0.7184
 3210TIP3   OH231120   5.308   4.042  12.783  0.1136 -0.3365  0.2822
 3210TIP3    H131121   5.250   4.062  12.857  0.3144  0.0837  0.3273
 3210TIP3    H231122   5.374   4.111  12.785 -0.7722  0.6162 -1.2437
 3211TIP3   OH231123   0.068   6.784   0.969  0.0204 -0.2647 -0.7662
 3211TIP3    H131124  -0.007   6.731   0.997  1.3804 -3.1965 -2.1710
 3211TIP3    H231125   0.047   6.811   0.879 -0.0402  0.3428 -0.5734
 3212TIP3   OH231126   1.816   3.459   4.313  1.0542  0.2917  0.2467
 3212TIP3    H131127   1.801   3.544   4.355  1.1876 -0.2673  1.4727
 3212TIP3    H231128   1.741   3.406   4.338  0.7039  0.1984 -0.9584
 3213TIP3   OH231129   0.380   0.614   2.066  0.2586 -0.3573 -0.1681
 3213TIP3    H131130   0.352   0.609   2.158 -0.5668 -0.3805 -0.4072
 3213TIP3    H231131   0.437   0.539   2.054 -0.5525 -1.0237  0.0301
 3214TIP3   OH231132   6.364   3.060   4.036  0.1744  0.2665 -0.0969
 3214TIP3    H131133   6.269   3.052   4.035  0.0918  1.1901 -0.8186
 3214TIP3    H231134   6.394   3.006   3.963  0.3350 -1.1676  0.9740
 3215TIP3   OH231135   6.621   4.970   5.769  0.7823  0.6532  0.0347
 3215TIP3    H131136   6.716   4.971   5.785  0.4906  1.9033  1.9400
 3215TIP3    H231137   6.599   4.877   5.768  1.9943  0.3424 -0.2373
 3216TIP3   OH231138   2.029   2.384  12.643  0.3036  0.1825  0.0555
 3216TIP3    H131139   2.062   2.443  12.576  0.8699  1.1941  1.2055
 3216TIP3    H231140   1.978   2.319  12.594  0.6592  0.9195 -1.3391
 3217TIP3   OH231141   4.979   1.190   3.129 -0.5097  0.4919  0.1833
 3217TIP3    H131142   4.938   1.138   3.059  0.4628 -1.3480  0.9031
 3217TIP3    H231143   4.909   1.248   3.160 -1.6095 -0.2541 -0.8097
 3218TIP3   OH231144   1.209   3.447  14.635  1.1946  0.2484  0.1812
 3218TIP3    H131145   1.228   3.354  14.634  1.6025  0.3287  0.3602
 3218TIP3    H231146   1.182   3.467  14.545  4.2954  0.5934 -0.7987
 3219TIP3   OH231147   4.681   0.365  10.656 -0.1566 -0.7314 -0.1040
 3219TIP3    H131148   4.592   0.358  10.691  0.0495 -2.5437  0.1558
 3219TIP3    H231149   4.672   0.341  10.564 -0.2742  1.4428 -0.7125
 3220TIP3   OH231150   3.657   4.451  16.852  0.3741  0.4157 -0.3329
 3220TIP3    H131151   3.577   4.398  16.849  1.1711 -0.7732 -0.7675
 3220TIP3    H231152   3.714   4.414  16.786  1.9477  0.1808  1.0864
 3221TIP3   OH231153   1.475   3.524  14.666 -0.4262 -0.0836 -0.4269
 3221TIP3    H131154   1.384   3.506  14.641 -0.0895 -0.0964 -1.7260
 3221TIP3    H231155   1.470   3.556  14.756 -1.7021 -0.2000 -0.4456
 3222TIP3   OH231156   2.387   4.969  14.241 -0.5508  0.6820  0.1945
 3222TIP3    H131157   2.397   4.996  14.149  0.2302  1.4182  0.4789
 3222TIP3    H231158   2.337   4.888  14.237 -1.5841  1.3323 -0.8039
 3223TIP3   OH231159   2.712   6.432   2.090  0.0234  0.0335  0.1118
 3223TIP3    H131160   2.727   6.509   2.145 -0.2903  0.4447 -0.3721
 3223TIP3    H231161   2.656   6.463   2.019 -1.1943 -0.9198  0.6000
 3224TIP3   OH231162   4.484   5.727  15.418 -0.1166  0.0858 -0.4360
 3224TIP3    H131163   4.509   5.813  15.453 -2.0947  0.6086 -0.2039
 3224TIP3    H231164   4.558   5.670  15.439  0.5385  1.3551  0.8427
 3225TIP3   OH231165   1.791   1.528  12.250 -0.2633 -0.3538  0.0654
 3225TIP3    H131166   1.884   1.525  12.224 -0.5201 -0.3119 -0.9170
 3225TIP3    H231167   1.759   1.439  12.234 -0.4063 -0.3533  0.3523
 3226TIP3   OH231168   1.920   2.442  16.906 -0.4868 -0.8359 -0.3488
 3226TIP3    H131169   1.947   2.385  16.834  1.4465 -2.2860  1.3868
 3226TIP3    H231170   1.882   2.382  16.971 -2.2982  0.4473 -0.1478
 3227TIP3   OH231171   3.947   4.941   2.042  0.2742  0.2280 -0.7249
 3227TIP3    H131172   3.851   4.943   2.041  0.1417 -1.3474  1.6388
 3227TIP3    H231173   3.970   4.872   1.979 -0.1261  0.5785 -1.2666
 3228TIP3   OH231174   3.475   1.857   5.072  0.5504 -0.0898 -0.1291
 3228TIP3    H131175   3.552   1.825   5.024 -1.0871 -0.8190 -2.4485
 3228TIP3    H231176   3.431   1.778   5.103 -0.6860  0.1372 -1.2244
 3229TIP3   OH231177   3.289   2.894  16.371 -0.1437 -0.1769 -0.2554
 3229TIP3    H131178   3.299   2.890  16.467  2.0825  1.6103 -0.3284
 3229TIP3    H231179   3.209   2.944  16.358 -0.0646  0.2256  0.6840
 3230TIP3   OH231180   5.351   4.708  14.753 -0.0992 -0.1781  0.4130
 3230TIP3    H131181   5.331   4.615  14.767 -1.5214  0.0523  0.0228
 3230TIP3    H231182   5.441   4.708  14.719  0.0538 -1.3756  0.7645
 3231TIP3   OH231183   3.901   4.128  14.011  0.2072  0.1745  0.2437
 3231TIP3    H131184   3.849   4.050  14.031  1.8422 -1.1949 -0.5728
 3231TIP3    H231185   3.914   4.170  14.096 -0.5607 -0.5318  0.7286
 3232TIP3   OH231186   4.377   2.538  16.952  0.2846  0.7233 -0.2237
 3232TIP3    H131187   4.370   2.518  16.859 -0.3112  0.6440 -0.1665
 3232TIP3    H231188   4.419   2.461  16.990 -0.2135  0.4075 -0.3039
 3233TIP3   OH231189   5.391   4.668   3.792  0.0326 -0.6523 -0.4233
 3233TIP3    H131190   5.477   4.709   3.780 -0.0874  0.0000  0.7756
 3233TIP3    H231191   5.381   4.610   3.716  1.8762 -1.3476 -0.1927
 3234TIP3   OH231192   4.715   1.483  16.759 -0.1891 -0.4559 -0.7353
 3234TIP3    H131193   4.806   1.505  16.741 -0.3807  0.6671 -0.4287
 3234TIP3    H231194   4.702   1.510  16.850 -1.0958  0.3403 -1.0829
 3235TIP3   OH231195   0.986   1.840  12.159 -0.0345  0.3567  0.1411
 3235TIP3    H131196   1.000   1.849  12.064  1.4198 -3.4985 -0.1726
 3235TIP3    H231197   0.890   1.843  12.169 -0.2365  0.4145 -1.4802
 3236TIP3   OH231198   3.857   5.303  11.933 -0.5389  0.6068 -0.4733
 3236TIP3    H131199   3.922   5.324  12.000 -1.6610  0.6758  0.6279
 3236TIP3    H231200   3.894   5.339  11.852  1.0820  0.0608 -0.0074
 3237TIP3   OH231201   4.733   3.156  11.763  0.4005  0.2934  0.1519
 3237TIP3    H131202   4.671   3.083  11.764  1.1409 -0.3611  0.3082
 3237TIP3    H231203   4.819   3.113  11.772  0.7256  1.3220  2.9552
 3238TIP3   OH231204   5.847   0.175   2.527  0.0620  0.2246 -0.1301
 3238TIP3    H131205   5.832   0.178   2.621  2.2053  0.8865  0.2564
 3238TIP3    H231206   5.839   0.266   2.498  0.6233  0.2141 -0.3385
 3239TIP3   OH231207   4.811   6.300  11.426  0.5561 -0.2552  0.1003
 3239TIP3    H131208   4.816   6.345  11.342 -0.2245  0.2874  0.3335
 3239TIP3    H231209   4.887   6.331  11.475 -0.4597  1.5454  0.6028
 3240TIP3   OH231210   3.158   2.149  13.598 -0.2260  0.1732  0.2329
 3240TIP3    H131211   3.136   2.132  13.689  1.2907 -1.2739  0.3709
 3240TIP3    H231212   3.184   2.064  13.563  0.6370  0.9584 -1.1315
 3241TIP3   OH231213   0.973   3.404   5.924 -0.1658 -0.2075  0.2664
 3241TIP3    H131214   1.027   3.483   5.921  0.9047 -0.8555  1.4792
 3241TIP3    H231215   0.963   3.385   6.017 -0.6009 -1.3652  0.0038
 3242TIP3   OH231216   3.018   3.331  15.396 -0.1887  0.0319 -0.5054
 3242TIP3    H131217   2.926   3.314  15.419 -0.5587  0.1771 -1.7981
 3242TIP3    H231218   3.014   3.405  15.336  0.8432  0.4180 -0.1072
 3243TIP3   OH231219   0.511   0.128  12.144  1.2819 -0.4577  0.0489
 3243TIP3    H131220   0.425   0.138  12.185  0.4346 -3.2369 -0.8181
 3243TIP3    H231221   0.497   0.061  12.077  3.9831 -0.4311 -0.6330
 3244TIP3   OH231222   5.092   2.214   4.064 -0.1483 -0.3944 -0.4248
 3244TIP3    H131223   5.055   2.295   4.097 -3.7550 -1.3665 -1.6091
 3244TIP3    H231224   5.153   2.185   4.133  0.7430  2.8541  0.3083
 3245TIP3   OH231225   6.569   0.253   5.787  0.3791  0.0829 -0.1748
 3245TIP3    H131226   6.658   0.257   5.752  0.7726 -0.4777  0.7175
 3245TIP3    H231227   6.581   0.230   5.879 -0.7332 -1.2606 -0.3290
 3246TIP3   OH231228   3.227   5.880  10.578  0.3128  0.1070  0.1560
 3246TIP3    H131229   3.308   5.870  10.628  0.2036  1.0955  0.5493
 3246TIP3    H231230   3.158   5.846  10.636  0.3357  0.0996  0.1787
 3247TIP3   OH231231   1.498   0.191  14.124  0.1444  0.2434 -0.1842
 3247TIP3    H131232   1.511   0.254  14.053 -0.5362 -1.4001 -1.8697
 3247TIP3    H231233   1.516   0.106  14.083  0.1968 -0.7257  1.7650
 3248TIP3   OH231234   5.763   3.522  12.553 -0.1613  0.3057  0.3832
 3248TIP3    H131235   5.765   3.552  12.462 -2.4244  0.8027  0.4572
 3248TIP3    H231236   5.850   3.483  12.567  0.4069  0.6573 -1.8207
 3249TIP3   OH231237   4.842   5.959   1.053  0.4540 -0.0695  0.2805
 3249TIP3    H131238   4.900   5.906   0.999 -0.1843 -0.7029  0.2085
 3249TIP3    H231239   4.793   5.896   1.105 -0.7819  0.4061 -0.2791
 3250TIP3   OH231240   1.019   3.468  11.958 -0.2794 -0.0919 -0.4213
 3250TIP3    H131241   1.053   3.424  11.880 -0.5784 -0.7737 -0.1690
 3250TIP3    H231242   1.087   3.532  11.981 -0.6945  0.9503 -1.9205
 3251TIP3   OH231243   2.144   2.180  16.614  0.2942  0.1194  0.0300
 3251TIP3    H131244   2.212   2.161  16.550  0.4587 -1.5469  0.6619
 3251TIP3    H231245   2.123   2.095  16.653  0.0167  1.0554  2.0061
 3252TIP3   OH231246   1.367   1.242   2.210 -0.4825 -0.5418  0.2877
 3252TIP3    H131247   1.310   1.311   2.176  0.6424  0.6631  0.7674
 3252TIP3    H231248   1.307   1.176   2.244 -1.6025 -0.5634 -1.6087
 3253TIP3   OH231249   3.843   6.052   1.774  0.1684  0.1299 -0.1484
 3253TIP3    H131250   3.773   6.084   1.831  0.1951 -0.8236  0.4403
 3253TIP3    H231251   3.800   5.995   1.710  0.0916  1.4638 -1.3327
 3254TIP3   OH231252   1.493   5.635   2.414  0.0243 -0.3762  0.1411
 3254TIP3    H131253   1.443   5.702   2.367 -1.6245 -1.8979 -0.4038
 3254TIP3    H231254   1.527   5.679   2.491 -1.6081  0.9185  0.1709
 3255TIP3   OH231255   6.218   3.253   2.455 -0.5601  0.6997  0.0755
 3255TIP3    H131256   6.173   3.235   2.372  0.1193  3.3278 -0.9781
 3255TIP3    H231257   6.308   3.224   2.439 -0.4967  0.9466 -0.0262
 3256TIP3   OH231258   2.614   1.433   6.456 -0.2045  0.6369 -0.0470
 3256TIP3    H131259   2.663   1.353   6.438 -0.9746 -0.2413  1.5132
 3256TIP3    H231260   2.526   1.402   6.479 -1.1025  2.0793 -1.3502
 3257TIP3   OH231261   0.761   3.495  13.204 -0.2509  0.0920  0.3145
 3257TIP3    H131262   0.805   3.574  13.172 -0.7999  0.7728  1.1854
 3257TIP3    H231263   0.703   3.526  13.274  0.8848 -1.2969  1.9856
 3258TIP3   OH231264   3.625   1.825   4.007 -0.5981 -0.0428  0.4572
 3258TIP3    H131265   3.602   1.917   4.020  1.0900  0.4831  0.0346
 3258TIP3    H231266   3.699   1.828   3.946  1.7313 -1.4295  2.9887
 3259TIP3   OH231267   1.702   5.729   6.785  0.0300  0.3200 -0.3233
 3259TIP3    H131268   1.727   5.821   6.797  1.1699  0.4104 -2.6619
 3259TIP3    H231269   1.635   5.731   6.717  0.7932 -0.5865 -1.1515
 3260TIP3   OH231270   1.923   1.265   3.629  0.2340 -0.8248  0.2999
 3260TIP3    H131271   1.954   1.293   3.543  0.4768 -0.5409  0.4798
 3260TIP3    H231272   1.874   1.339   3.663 -2.6766 -2.0124 -0.9335
 3261TIP3   OH231273   1.628   3.416  16.857 -0.2153  0.8633  0.3058
 3261TIP3    H131274   1.713   3.414  16.814  0.4865  0.1603  1.6662
 3261TIP3    H231275   1.643   3.465  16.938 -1.1435  0.8788  0.4884
 3262TIP3   OH231276   2.890   3.650   4.699 -0.0870  0.0783  0.1066
 3262TIP3    H131277   2.840   3.719   4.655 -0.2417 -0.2448 -0.2312
 3262TIP3    H231278   2.831   3.575   4.700 -0.4929  0.3743  1.8100
 3263TIP3   OH231279   0.730   0.087  11.374 -0.3808  0.0725  0.6649
 3263TIP3    H131280   0.809   0.043  11.341 -0.9299 -0.3874 -0.0646
 3263TIP3    H231281   0.729   0.171  11.328 -0.1976  0.1656  0.8336
 3264TIP3   OH231282   5.942   6.554  17.276  0.1840  0.7365 -0.2252
 3264TIP3    H131283   5.965   6.501  17.352  0.0392  1.4602  0.3292
 3264TIP3    H231284   6.016   6.614  17.265  0.5039  0.2125 -1.0523
 3265TIP3   OH231285   3.133   6.633   4.462 -0.5351 -0.3465  0.5160
 3265TIP3    H131286   3.118   6.666   4.550  0.2381  1.4639  0.0089
 3265TIP3    H231287   3.108   6.705   4.404 -1.1996 -1.5605 -0.7742
 3266TIP3   OH231288   2.548   3.015  11.716 -0.1131 -0.4878 -0.4619
 3266TIP3    H131289   2.618   3.011  11.652  0.6575 -0.5972  0.3648
 3266TIP3    H231290   2.551   2.929  11.760  0.5822  0.2200  0.9469
 3267TIP3   OH231291   0.265   0.045  15.527  0.1474 -0.4106  0.4322
 3267TIP3    H131292   0.259   0.096  15.446 -0.6379 -1.3720 -0.1269
 3267TIP3    H231293   0.271  -0.046  15.499  1.4276 -0.6686  1.4282
 3268TIP3   OH231294   5.791   2.710   2.029 -0.0721  0.2552 -0.3274
 3268TIP3    H131295   5.729   2.758   2.084 -1.1573 -1.4861  0.0464
 3268TIP3    H231296   5.859   2.681   2.091 -0.0592  0.2732 -0.3332
 3269TIP3   OH231297   2.419   4.511  16.766  0.2752 -0.1425 -0.1758
 3269TIP3    H131298   2.372   4.563  16.701  1.2162 -0.0987 -0.8530
 3269TIP3    H231299   2.502   4.557  16.777  0.0903 -0.0999  1.1432
 3270TIP3   OH231300   3.086   2.132   5.674  0.3014  0.8309  0.4701
 3270TIP3    H131301   3.088   2.224   5.699  0.2664  0.7398  0.8060
 3270TIP3    H231302   3.029   2.090   5.738  0.0271  0.6364  0.1075
 3271TIP3   OH231303   1.740   5.833  15.799  0.3435 -0.1508 -0.4914
 3271TIP3    H131304   1.668   5.770  15.811  0.7301 -0.6820 -0.9173
 3271TIP3    H231305   1.697   5.911  15.765 -0.3176  0.2557  1.1454
 3272TIP3   OH231306   5.397   6.749   2.497  0.0010  0.4887 -0.2306
 3272TIP3    H131307   5.400   6.670   2.444  1.0116  1.2457 -1.3620
 3272TIP3    H231308   5.488   6.763   2.523 -0.5779 -0.3742  2.5453
 3273TIP3   OH231309   2.433   1.581  14.285  0.2689  0.6463 -0.7377
 3273TIP3    H131310   2.515   1.531  14.279 -0.0867 -0.2112  0.9898
 3273TIP3    H231311   2.437   1.641  14.211  2.7113  1.0210 -0.4008
 3274TIP3   OH231312   4.146   5.827  17.048 -0.3250 -0.4619 -0.0553
 3274TIP3    H131313   4.154   5.733  17.064  0.9145 -0.4695 -0.6057
 3274TIP3    H231314   4.179   5.868  17.128 -1.2195 -0.4735  0.3368
 3275TIP3   OH231315   3.264   5.182   5.183  0.3377 -0.3665 -1.1114
 3275TIP3    H131316   3.288   5.120   5.252 -1.2822 -0.0418 -0.1986
 3275TIP3    H231317   3.314   5.261   5.203  0.9466 -0.7423 -1.1465
 3276TIP3   OH231318   3.036   4.389  10.739 -0.6212  0.1705 -0.4650
 3276TIP3    H131319   3.045   4.434  10.655 -1.0839 -1.1707 -1.2648
 3276TIP3    H231320   2.971   4.321  10.722  0.5451 -1.2320  0.5014
 3277TIP3   OH231321   5.972   5.919  14.921 -0.0874 -0.0995 -0.6452
 3277TIP3    H131322   5.973   5.840  14.867 -2.3124  0.3528 -1.4740
 3277TIP3    H231323   5.885   5.918  14.963  0.1406  1.4998 -0.0794
 3278TIP3   OH231324   3.016   1.570  13.387  0.4576 -0.0946 -0.5979
 3278TIP3    H131325   3.062   1.650  13.364  0.6862 -0.4186 -1.3108
 3278TIP3    H231326   3.003   1.575  13.481 -0.8436  1.4710 -0.8159
 3279TIP3   OH231327   2.828   1.998   3.397  0.0576 -0.7602 -0.2653
 3279TIP3    H131328   2.740   1.963   3.385 -0.0602 -0.3438 -0.6367
 3279TIP3    H231329   2.844   1.992   3.491 -1.5256  1.9057  0.2586
 3280TIP3   OH231330   2.442   6.071  13.618  0.3765 -0.0987  0.4344
 3280TIP3    H131331   2.349   6.051  13.624  0.5249 -1.1600 -0.5892
 3280TIP3    H231332   2.485   6.007  13.675  0.4848  0.4707  1.0087
 3281TIP3   OH231333   6.494   1.599  13.536  0.0634  0.0557 -0.2940
 3281TIP3    H131334   6.491   1.693  13.555  2.4832  0.4602 -1.5542
 3281TIP3    H231335   6.479   1.593  13.441  0.4460 -0.7775 -0.3116
 3282TIP3   OH231336   5.702   2.798  12.377 -0.3007 -0.3915  0.1208
 3282TIP3    H131337   5.683   2.718  12.425  0.8065 -0.3579  0.6379
 3282TIP3    H231338   5.736   2.767  12.293  0.0956 -0.4664  0.3079
 3283TIP3   OH231339   3.468   4.947  12.398 -0.4198 -0.1262  0.3106
 3283TIP3    H131340   3.374   4.961  12.396 -0.2852  0.8681  0.6783
 3283TIP3    H231341   3.491   4.950  12.491 -0.1294 -1.1545  0.2875
 3284TIP3   OH231342   4.810   5.382   5.815 -0.3332  0.3564  0.4145
 3284TIP3    H131343   4.880   5.353   5.757  0.6279  2.3523  0.4905
 3284TIP3    H231344   4.786   5.304   5.865  1.3030 -0.5524 -0.1568
 3285TIP3   OH231345   5.752   1.704   3.674 -0.1622 -0.1965  0.3463
 3285TIP3    H131346   5.767   1.631   3.733  0.8632 -0.7717 -0.5736
 3285TIP3    H231347   5.658   1.721   3.679 -0.2161 -0.7737  1.4924
 3286TIP3   OH231348   6.687   5.778  13.676  0.6328  0.1096 -0.1557
 3286TIP3    H131349   6.758   5.792  13.739 -0.9924  1.7757  1.4404
 3286TIP3    H231350   6.643   5.863  13.671 -2.3046 -1.2430  0.2949
 3287TIP3   OH231351   4.769   1.799  16.819 -0.4456  0.1343 -0.4176
 3287TIP3    H131352   4.713   1.783  16.896 -2.5519  0.1453 -1.8541
 3287TIP3    H231353   4.780   1.894  16.818 -0.6462  0.1622 -0.2721
 3288TIP3   OH231354   2.907   0.555  16.363 -0.7201  0.7979  0.2306
 3288TIP3    H131355   2.980   0.500  16.336 -0.6849  0.1567  1.5205
 3288TIP3    H231356   2.894   0.617  16.291 -0.1127 -0.2606 -0.8088
 3289TIP3   OH231357   1.653   4.140  11.214 -0.3592 -0.0468  0.0050
 3289TIP3    H131358   1.613   4.218  11.176 -0.1794  0.7910  1.4798
 3289TIP3    H231359   1.747   4.159  11.214  0.1227 -1.7738 -2.9283
 3290TIP3   OH231360   1.803   1.920   2.955 -0.3414  0.0246  0.9666
 3290TIP3    H131361   1.789   2.006   2.913 -0.8539  0.4833  2.0421
 3290TIP3    H231362   1.766   1.857   2.893 -3.3894  0.8715  1.7364
 3291TIP3   OH231363   4.464   5.978   3.756  0.2306 -0.8151 -0.7971
 3291TIP3    H131364   4.419   6.061   3.749  1.7580  0.5458  2.8274
 3291TIP3    H231365   4.556   5.998   3.737  0.9369 -1.1339  1.8928
 3292TIP3   OH231366   5.178   3.291  11.299 -0.4143 -0.2202 -0.0866
 3292TIP3    H131367   5.183   3.210  11.348 -1.1158 -0.8548 -1.0220
 3292TIP3    H231368   5.096   3.332  11.329  0.6379  0.8763  1.4288
 3293TIP3   OH231369   0.224   2.940   1.006 -0.5859  0.2392  0.1156
 3293TIP3    H131370   0.315   2.969   1.015  0.0689 -1.9004  0.7652
 3293TIP3    H231371   0.230   2.856   0.960 -2.3098  0.4229 -0.5001
 3294TIP3   OH231372   1.371   1.196   4.741 -0.2848  0.0599  0.3111
 3294TIP3    H131373   1.330   1.184   4.827 -0.4710  0.4011  0.2690
 3294TIP3    H231374   1.327   1.272   4.703 -0.8108 -0.5965 -0.4432
 3295TIP3   OH231375   6.355   4.117  17.195  0.0275 -0.2438  0.1642
 3295TIP3    H131376   6.317   4.070  17.269 -0.1945  1.6018  1.2870
 3295TIP3    H231377   6.330   4.209  17.210  0.9035  0.3292 -1.6284
 3296TIP3   OH231378   3.070   2.569  13.896 -0.0403 -0.1719 -0.1944
 3296TIP3    H131379   3.111   2.585  13.812  0.4205 -0.7030 -0.0796
 3296TIP3    H231380   3.103   2.638  13.953 -1.2888  0.9215 -0.7336
 3297TIP3   OH231381   6.065   6.630   4.163  0.5529 -0.0238  0.1295
 3297TIP3    H131382   6.135   6.566   4.169 -0.4254 -1.2474 -0.8356
 3297TIP3    H231383   5.985   6.577   4.154 -0.1727  1.3036 -2.0172
 3298TIP3   OH231384   2.532   4.282  10.803  0.4577  0.4026 -0.2714
 3298TIP3    H131385   2.485   4.271  10.721  0.4312 -1.0593 -0.0822
 3298TIP3    H231386   2.467   4.268  10.871  0.1466  3.0038  0.0772
 3299TIP3   OH231387   1.837   1.368   0.428  0.2780 -0.1095 -0.2419
 3299TIP3    H131388   1.916   1.417   0.450 -0.5343  1.2642 -0.2796
 3299TIP3    H231389   1.804   1.336   0.513  1.4072 -1.5825 -0.3261
 3300TIP3   OH231390   2.227   4.527  12.095  0.2304 -0.1707 -0.1695
 3300TIP3    H131391   2.174   4.573  12.160  0.5936 -0.4059  0.3021
 3300TIP3    H231392   2.230   4.586  12.020  0.0776  0.2469  0.1522
 3301TIP3   OH231393   1.562   6.438  14.747  0.3663 -0.0565 -0.2564
 3301TIP3    H131394   1.572   6.471  14.658  2.5858 -0.6472 -0.2939
 3301TIP3    H231395   1.646   6.396  14.766 -1.3405 -3.4107  0.7034
 3302TIP3   OH231396   6.257   0.358   2.373  0.0736  0.2062  0.2351
 3302TIP3    H131397   6.286   0.421   2.439 -1.4542  0.4918  0.6730
 3302TIP3    H231398   6.222   0.285   2.424 -2.3885  1.0131 -0.1881
 3303TIP3   OH231399   5.188   4.221   5.559  0.4677  0.0724 -0.3342
 3303TIP3    H131400   5.147   4.147   5.603 -1.9463  1.7382  0.4496
 3303TIP3    H231401   5.280   4.195   5.547 -0.0341 -2.5370  0.9035
 3304TIP3   OH231402   3.168   2.937  12.007  0.2797 -0.0833  0.6821
 3304TIP3    H131403   3.150   2.883  12.083 -0.0168  0.5585  1.0743
 3304TIP3    H231404   3.082   2.961  11.973  0.3517  1.5957  1.5618
 3305TIP3   OH231405   3.143   1.106   0.186  0.0855 -0.7963 -0.4148
 3305TIP3    H131406   3.118   1.143   0.102 -1.1179  2.3873  1.1943
 3305TIP3    H231407   3.062   1.070   0.222 -0.2929  1.1804  0.8607
 3306TIP3   OH231408   0.395   2.438  10.851 -0.0706  0.0389  0.1082
 3306TIP3    H131409   0.428   2.381  10.782  0.3778 -1.1559  1.2701
 3306TIP3    H231410   0.469   2.449  10.911 -1.0492 -0.7682  1.5409
 3307TIP3   OH231411   6.334   0.880  10.797  0.3935 -0.3781  0.4608
 3307TIP3    H131412   6.239   0.876  10.805  0.3733 -0.5541  0.1603
 3307TIP3    H231413   6.357   0.802  10.747  0.8412 -1.1287  1.8022
 3308TIP3   OH231414   1.477   4.018  15.829 -0.5030  0.3202  0.6394
 3308TIP3    H131415   1.519   4.104  15.827  0.6795 -0.2461  0.5122
 3308TIP3    H231416   1.484   3.990  15.921  0.0675 -0.0950  0.4714
 3309TIP3   OH231417   5.775   1.967   3.588 -0.3424 -0.0137 -0.2973
 3309TIP3    H131418   5.746   1.884   3.626 -0.1144 -1.9821 -3.9786
 3309TIP3    H231419   5.805   1.944   3.500 -1.5412  4.1507 -2.0532
 3310TIP3   OH231420   2.717   4.480  16.338 -0.7307 -0.4643 -0.1719
 3310TIP3    H131421   2.622   4.483  16.333 -0.7155  0.8127 -0.2274
 3310TIP3    H231422   2.742   4.566  16.372  0.3938 -0.8474  0.0313
 3311TIP3   OH231423   0.473   2.723  14.800  0.4958  0.0956 -0.0494
 3311TIP3    H131424   0.432   2.638  14.817  0.5631  0.1689  0.5133
 3311TIP3    H231425   0.553   2.702  14.753  0.5264 -0.1559  0.1112
 3312TIP3   OH231426   5.087   2.600  13.695  0.1128 -0.0399 -0.0544
 3312TIP3    H131427   5.004   2.553  13.681 -0.5903  1.1578 -0.0194
 3312TIP3    H231428   5.066   2.666  13.761  1.3250 -0.2685  0.5829
 3313TIP3   OH231429   1.163   4.379   0.428 -1.0078  0.2142  0.3382
 3313TIP3    H131430   1.161   4.315   0.499 -2.8292  0.4049  0.4881
 3313TIP3    H231431   1.084   4.431   0.439 -1.4961  0.0918 -1.9595
 3314TIP3   OH231432   5.125   1.346   2.155  0.6143  0.5239  0.3183
 3314TIP3    H131433   5.069   1.418   2.128  0.4031 -0.1620 -1.2106
 3314TIP3    H231434   5.065   1.278   2.184  0.3904 -0.9213 -3.0536
 3315TIP3   OH231435   6.815   2.365   3.722 -0.0402  0.1198  0.1179
 3315TIP3    H131436   6.732   2.391   3.761 -1.7670 -0.8142 -2.6917
 3315TIP3    H231437   6.879   2.427   3.759 -1.8862  0.7633  2.4608
 3316TIP3   OH231438   2.484   6.712   4.519  0.6865 -0.1007 -0.5503
 3316TIP3    H131439   2.451   6.795   4.555  1.3680  0.8760 -2.0784
 3316TIP3    H231440   2.467   6.648   4.588  1.7756  1.6173  1.4333
 3317TIP3   OH231441   2.405   2.158   6.065  0.1620  0.3043  0.3461
 3317TIP3    H131442   2.469   2.212   6.110  1.4774 -1.0240  0.1333
 3317TIP3    H231443   2.401   2.077   6.116 -1.2565  0.2959  0.2743
 3318TIP3   OH231444   5.400   4.087  12.520  0.4185  0.3054 -0.5313
 3318TIP3    H131445   5.461   4.013  12.518 -0.1664 -0.3415  1.7428
 3318TIP3    H231446   5.336   4.063  12.588 -1.0494  1.9584 -1.2480
 3319TIP3   OH231447   3.904   5.909  16.143  0.1153  0.2428 -0.1539
 3319TIP3    H131448   3.996   5.936  16.146 -0.1019  0.9523  1.6433
 3319TIP3    H231449   3.856   5.991  16.133 -0.3991  0.1758  1.5036
 3320TIP3   OH231450   5.256   1.054   5.411 -0.2097  0.2296  0.0080
 3320TIP3    H131451   5.213   0.969   5.425 -0.1221  0.0915 -0.5448
 3320TIP3    H231452   5.300   1.045   5.327  1.4714  0.1295  0.8641
 3321TIP3   OH231453   0.272   3.673  16.869 -0.4804  0.0604  0.0527
 3321TIP3    H131454   0.319   3.666  16.952 -0.8017  1.2822  0.3574
 3321TIP3    H231455   0.247   3.765  16.863 -0.9085 -0.1127 -1.1612
 3322TIP3   OH231456   6.766   2.391  13.404  0.9032 -0.1502  0.3168
 3322TIP3    H131457   6.751   2.472  13.355 -1.8677 -0.7349  0.0081
 3322TIP3    H231458   6.830   2.343  13.352  0.4904  0.6573 -0.9826
 3323TIP3   OH231459   0.877   6.648   0.653  0.0187 -0.5204  0.1908
 3323TIP3    H131460   0.825   6.571   0.629 -2.2895  0.5197  1.4963
 3323TIP3    H231461   0.816   6.721   0.646  0.8161  0.6068  3.3061
 3324TIP3   OH231462   2.446   5.774   0.468 -0.3416 -0.2757  0.8656
 3324TIP3    H131463   2.436   5.791   0.375  1.5691 -0.0489  0.6733
 3324TIP3    H231464   2.390   5.698   0.484 -0.8453 -0.1994 -0.4192
 3325TIP3   OH231465   2.547   4.162   2.581 -0.0124  0.3481  0.8950
 3325TIP3    H131466   2.525   4.210   2.500  0.5931  1.4285  1.3467
 3325TIP3    H231467   2.612   4.098   2.553 -0.4493  0.1244  0.3670
 3326TIP3   OH231468   2.098   3.277  15.474 -0.1949 -0.2722 -0.2125
 3326TIP3    H131469   2.142   3.350  15.430 -1.0831  0.1617 -0.4003
 3326TIP3    H231470   2.010   3.277  15.437 -0.2287 -1.3933 -0.1526
 3327TIP3   OH231471   1.938   1.274  13.306  0.1994 -0.3199 -0.1137
 3327TIP3    H131472   1.898   1.234  13.229  0.0600  0.2045 -0.3202
 3327TIP3    H231473   1.865   1.315  13.352  0.3690 -0.1222 -0.0214
 3328TIP3   OH231474   3.290   0.696  12.996  0.6253  0.3441  0.4885
 3328TIP3    H131475   3.199   0.675  12.976  0.5422  0.4890  0.7154
 3328TIP3    H231476   3.286   0.753  13.072  0.8078  1.9349 -0.6409
 3329TIP3   OH231477   5.221   6.689   2.941 -0.3210  0.0149  0.4403
 3329TIP3    H131478   5.173   6.719   3.019 -0.5088 -0.3821  0.4827
 3329TIP3    H231479   5.312   6.687   2.969 -0.4065 -0.2852  0.7059
 3330TIP3   OH231480   3.077   0.955  14.182  0.1251 -0.0879  0.4317
 3330TIP3    H131481   2.984   0.977  14.187  0.0776 -0.0933 -0.3046
 3330TIP3    H231482   3.080   0.860  14.182  0.2375 -0.1048  2.0718
 3331TIP3   OH231483   6.267   1.742   2.749 -0.4567  0.3882  0.1904
 3331TIP3    H131484   6.236   1.690   2.823 -0.8345  1.2322  0.6411
 3331TIP3    H231485   6.234   1.696   2.671 -2.4017  0.9359  0.6371
 3332TIP3   OH231486   4.208   4.418   4.092 -0.0237 -0.2301  0.0925
 3332TIP3    H131487   4.244   4.447   4.176 -2.1145 -2.0685  1.7551
 3332TIP3    H231488   4.117   4.397   4.112  0.2041 -3.8013 -1.8639
 3333TIP3   OH231489   4.166   4.787  16.917  0.1563 -0.6039 -0.2586
 3333TIP3    H131490   4.206   4.870  16.893 -0.9320  0.5676  1.7064
 3333TIP3    H231491   4.115   4.761  16.840  1.1465  0.1091 -1.1812
 3334TIP3   OH231492   1.691   1.723  13.211 -0.7670 -0.6817 -0.0411
 3334TIP3    H131493   1.668   1.770  13.291  0.0999 -0.4873  0.1002
 3334TIP3    H231494   1.760   1.776  13.170 -1.2864 -0.7100 -0.9907
 3335TIP3   OH231495   4.592   0.719   6.460 -0.4976 -0.0028  0.0627
 3335TIP3    H131496   4.502   0.751   6.454 -0.7900 -0.3754  1.9988
 3335TIP3    H231497   4.598   0.679   6.546  0.9794 -1.7605 -0.7864
 3336TIP3   OH231498   3.607   2.284   6.138  0.4631 -0.3931 -0.0542
 3336TIP3    H131499   3.615   2.255   6.229  2.3398 -0.5696 -0.2406
 3336TIP3    H231500   3.557   2.365   6.143  1.3630  0.1117  1.2542
 3337TIP3   OH231501   5.313   0.851  11.400 -0.4272  0.0536  0.3049
 3337TIP3    H131502   5.254   0.844  11.325 -1.6209 -0.1740  1.2365
 3337TIP3    H231503   5.313   0.764  11.439 -2.0256  0.8074  2.1493
 3338TIP3   OH231504   5.392   6.686  14.550 -0.5110 -0.3732 -0.2764
 3338TIP3    H131505   5.444   6.605  14.550 -0.7519 -0.5262  0.0546
 3338TIP3    H231506   5.325   6.672  14.483 -0.2729 -0.2679 -0.5382
 3339TIP3   OH231507   3.794   3.331   2.955 -0.1313  0.4620 -0.1936
 3339TIP3    H131508   3.740   3.390   2.902  0.0364  0.3009 -0.5493
 3339TIP3    H231509   3.824   3.385   3.028 -0.4341  0.6645 -0.2178
 3340TIP3   OH231510   4.568   2.559  13.218 -0.5029  0.3734  0.0509
 3340TIP3    H131511   4.634   2.535  13.154 -0.1227  0.4565  0.4071
 3340TIP3    H231512   4.583   2.652  13.235 -1.0050  0.5057 -0.2058
 3341TIP3   OH231513   4.326   2.034   3.859 -0.0955 -0.4410  0.4537
 3341TIP3    H131514   4.309   2.057   3.950 -0.3895  3.5368 -0.4050
 3341TIP3    H231515   4.265   1.963   3.840  1.1985 -2.6649  3.7043
 3342TIP3   OH231516   1.422   0.539  13.926 -0.4823 -0.4246 -0.0415
 3342TIP3    H131517   1.394   0.486  13.852 -0.1015  1.0088 -1.2783
 3342TIP3    H231518   1.457   0.619  13.886  1.3218 -0.3144  1.6155
 3343TIP3   OH231519   0.625   1.010  11.820  0.3645  0.1291 -0.4085
 3343TIP3    H131520   0.588   0.945  11.760 -0.8159 -1.3870  1.8329
 3343TIP3    H231521   0.644   1.086  11.764  0.8404 -1.7223 -2.9504
 3344TIP3   OH231522   5.726   6.222   4.414  0.1016  0.2442  0.1235
 3344TIP3    H131523   5.760   6.306   4.445 -0.7487  0.5968  0.1451
 3344TIP3    H231524   5.778   6.156   4.460  1.0364  0.7511 -0.1787
 3345TIP3   OH231525   4.424   5.371  14.364 -0.6742  0.3548 -0.1936
 3345TIP3    H131526   4.465   5.336  14.443  0.6183  3.1819  0.5148
 3345TIP3    H231527   4.486   5.351  14.294 -2.3008 -3.1090 -0.8800
 3346TIP3   OH231528   1.995   0.347   4.880  0.0325 -0.1473  0.1354
 3346TIP3    H131529   2.035   0.371   4.964 -1.1572 -0.4493  0.8175
 3346TIP3    H231530   1.996   0.429   4.830 -2.8158  1.1908  1.9594
 3347TIP3   OH231531   5.828   2.006   6.334 -0.1053 -0.0480  0.2344
 3347TIP3    H131532   5.766   1.986   6.404 -0.8877  1.0431 -0.1102
 3347TIP3    H231533   5.789   2.080   6.288  0.3149 -0.8212 -1.4510
 3348TIP3   OH231534   4.874   2.780  12.972  0.1969  0.0404 -0.7109
 3348TIP3    H131535   4.807   2.846  12.988 -0.7489 -0.9319 -0.5234
 3348TIP3    H231536   4.957   2.826  12.986 -0.4562  0.7544  1.1510
 3349TIP3   OH231537   5.110   6.714   5.060 -0.9282  0.4875 -0.2928
 3349TIP3    H131538   5.138   6.656   5.130  0.4377  1.3775 -0.0671
 3349TIP3    H231539   5.029   6.675   5.027 -0.5629 -0.9871  0.4885
 3350TIP3   OH231540   5.171   2.020  14.987  0.2958 -0.2441  0.1437
 3350TIP3    H131541   5.140   2.111  14.992  0.9204 -0.0234  0.1142
 3350TIP3    H231542   5.261   2.024  15.020  0.9212 -0.5395 -1.4426
 3351TIP3   OH231543   3.219   5.734  13.753 -0.4557  0.0779  0.1710
 3351TIP3    H131544   3.310   5.714  13.773 -0.0486  2.7603  1.3722
 3351TIP3    H231545   3.211   5.828  13.767 -3.4849 -0.1101  0.3427
 3352TIP3   OH231546   3.973   1.389   5.216  0.2801  0.1434  0.4135
 3352TIP3    H131547   3.919   1.360   5.290  0.1202  0.8644  0.5883
 3352TIP3    H231548   3.980   1.484   5.227  0.0378  0.3013 -0.6357
 3353TIP3   OH231549   3.077   1.208  13.129 -0.3338  0.5896 -0.2265
 3353TIP3    H131550   2.991   1.199  13.088 -1.2606  2.1856  1.2238
 3353TIP3    H231551   3.059   1.226  13.221  1.4922  1.9045 -0.0476
 3354TIP3   OH231552   0.593   4.633  15.461  0.1146 -0.0624 -0.2129
 3354TIP3    H131553   0.561   4.630  15.371 -1.1377  0.5549  0.1876
 3354TIP3    H231554   0.563   4.552  15.501  0.8685 -0.4424 -0.4066
 3355TIP3   OH231555   0.468   3.251  14.333  0.0663 -0.0774 -0.2873
 3355TIP3    H131556   0.467   3.268  14.427  2.7283  0.5494 -0.2715
 3355TIP3    H231557   0.518   3.170  14.324 -0.0617 -0.0716 -1.1712
 3356TIP3   OH231558   0.525   3.207  11.647 -0.5012 -0.4188  0.4693
 3356TIP3    H131559   0.615   3.242  11.645 -0.7968  0.3223 -0.4796
 3356TIP3    H231560   0.498   3.217  11.738  0.1214  0.0525  0.6114
 3357TIP3   OH231561   4.385   5.816  11.791  0.1513 -0.5756  0.2048
 3357TIP3    H131562   4.338   5.836  11.710  1.7424 -0.2154 -0.6620
 3357TIP3    H231563   4.403   5.722  11.786 -0.8905 -0.8181  0.7813
 3358TIP3   OH231564   2.071   5.807   4.121  0.0234  0.1525  0.0821
 3358TIP3    H131565   1.998   5.861   4.092  0.2078  0.1208 -0.4393
 3358TIP3    H231566   2.119   5.785   4.041 -0.9726 -2.1574  0.0569
 3359TIP3   OH231567   5.233   1.718   1.330  0.0748  0.3692  0.1286
 3359TIP3    H131568   5.179   1.761   1.396  0.3858 -1.3038  1.5446
 3359TIP3    H231569   5.262   1.637   1.372  2.8392  0.7045 -0.9358
 3360TIP3   OH231570   1.915   4.961   2.442 -0.3103 -0.3724  0.2261
 3360TIP3    H131571   1.895   4.901   2.514 -1.1468 -0.9001 -0.4426
 3360TIP3    H231572   1.992   5.009   2.473  1.5005 -2.9724  0.0979
 3361TIP3   OH231573   5.961   0.920  12.012  0.4143 -0.6586 -0.2214
 3361TIP3    H131574   6.013   0.991  12.049 -0.4372  0.0505 -0.3530
 3361TIP3    H231575   5.870   0.946  12.028  0.0810 -1.5264 -0.6301
 3362TIP3   OH231576   6.627   6.254   5.736 -0.4796  0.0941  0.3586
 3362TIP3    H131577   6.668   6.283   5.817 -0.3329 -0.5959  0.5383
 3362TIP3    H231578   6.687   6.282   5.667 -0.1979 -0.0348  0.5499
 3363TIP3   OH231579   5.917   2.108  15.488  0.3311 -0.3727 -0.2480
 3363TIP3    H131580   5.990   2.046  15.481  1.7287  1.2176 -0.3831
 3363TIP3    H231581   5.909   2.125  15.582  2.1182  1.6172 -0.3792
 3364TIP3   OH231582   2.399   6.218  17.084 -0.6711 -0.5342 -0.0601
 3364TIP3    H131583   2.373   6.175  17.166 -0.4727  1.9692  1.4269
 3364TIP3    H231584   2.445   6.297  17.113 -0.0016  0.0832 -2.6238
 3365TIP3   OH231585   0.255   5.669   3.449 -0.6564  0.2589  0.1175
 3365TIP3    H131586   0.232   5.608   3.519 -0.5870 -0.5636 -0.5454
 3365TIP3    H231587   0.290   5.612   3.379  2.2814  1.3146  0.5908
 3366TIP3   OH231588   6.523   6.157   0.333 -0.0634 -0.1288 -0.0253
 3366TIP3    H131589   6.511   6.110   0.251 -0.0998  0.5649 -0.4216
 3366TIP3    H231590   6.610   6.196   0.326  0.2670 -0.7298  0.6076
 3367TIP3   OH231591   3.954   5.966  11.472 -0.5652 -0.1137 -0.4306
 3367TIP3    H131592   3.863   5.936  11.477 -0.8227  0.4902 -1.2951
 3367TIP3    H231593   3.951   6.040  11.411  0.2797  0.7673  0.5644
 3368TIP3   OH231594   0.221   4.540  12.331  0.0221 -0.0141  0.2890
 3368TIP3    H131595   0.228   4.559  12.238 -1.6191 -0.5363  0.0159
 3368TIP3    H231596   0.310   4.550  12.365  0.1694  3.2804 -0.7038
 3369TIP3   OH231597   5.212   3.728   5.226  0.0854 -0.1020 -0.1788
 3369TIP3    H131598   5.156   3.798   5.259  0.1217 -0.6384  1.0880
 3369TIP3    H231599   5.153   3.672   5.176 -0.0726  0.4743 -0.6459
 3370TIP3   OH231600   2.716   0.602   0.787  0.1460  0.6719 -0.7610
 3370TIP3    H131601   2.726   0.508   0.801 -0.2827  0.4592 -1.7660
 3370TIP3    H231602   2.629   0.623   0.820  0.4814  0.8407  0.0281
 3371TIP3   OH231603   4.339   1.170  16.555 -0.1331  0.3308 -0.1820
 3371TIP3    H131604   4.411   1.226  16.583 -0.8212  1.1076  0.0816
 3371TIP3    H231605   4.260   1.218  16.580 -0.7720 -1.3109  1.1653
 3372TIP3   OH231606   0.613   2.024  12.073 -0.2391 -0.1062  0.1011
 3372TIP3    H131607   0.536   1.998  12.022  0.8028 -0.5188 -1.3440
 3372TIP3    H231608   0.658   2.088  12.017  0.5083  0.0737  0.8844
 3373TIP3   OH231609   3.763   4.335   3.850  0.3135  0.5525  0.1104
 3373TIP3    H131610   3.700   4.407   3.852 -1.4094 -0.8769 -0.6323
 3373TIP3    H231611   3.840   4.373   3.807 -0.5866  1.9281 -0.3700
 3374TIP3   OH231612   3.427   5.814   2.754  0.3113  0.0397  0.1494
 3374TIP3    H131613   3.393   5.827   2.666 -0.9838  1.2097  0.7645
 3374TIP3    H231614   3.393   5.728   2.781  1.6309 -0.8223 -0.8579
 3375TIP3   OH231615   2.136   0.939   2.712 -0.5254  0.3652  0.3998
 3375TIP3    H131616   2.156   1.021   2.667 -0.1437  1.2703  2.1603
 3375TIP3    H231617   2.127   0.963   2.804  0.0165 -1.6311  1.0231
 3376TIP3   OH231618   1.381   6.744   3.748 -0.3489 -0.7729 -0.4256
 3376TIP3    H131619   1.397   6.783   3.662 -0.4769  0.7404  0.2132
 3376TIP3    H231620   1.294   6.704   3.740 -0.6009 -0.1580 -0.8331
 3377TIP3   OH231621   4.954   3.440  10.707 -1.0379  0.3980  0.1032
 3377TIP3    H131622   4.974   3.424  10.614  0.9067 -0.6522  0.6523
 3377TIP3    H231623   4.865   3.406  10.718 -1.1227  0.1074 -1.2638
 3378TIP3   OH231624   2.415   5.556  15.985 -0.2463  0.6284 -0.2025
 3378TIP3    H131625   2.481   5.511  15.932 -1.5547 -1.6626 -0.0205
 3378TIP3    H231626   2.462   5.582  16.065  1.2501  2.3359 -1.5491
 3379TIP3   OH231627   2.309   5.991   0.092 -0.4974 -0.6480  0.5089
 3379TIP3    H131628   2.368   6.066   0.078 -0.4625 -0.9161 -0.9216
 3379TIP3    H231629   2.231   6.030   0.130 -0.5298  0.1656 -0.3346
 3380TIP3   OH231630   5.719   1.066   3.533  0.3548 -0.2785 -0.0661
 3380TIP3    H131631   5.704   1.088   3.625 -1.1753 -0.7327 -0.1683
 3380TIP3    H231632   5.679   0.979   3.523 -0.0884  0.0472 -1.3012
 3381TIP3   OH231633   3.080   5.894   1.967  0.1589  0.1718  0.2722
 3381TIP3    H131634   3.021   5.951   2.015  0.0355  0.7590 -0.5633
 3381TIP3    H231635   3.026   5.852   1.901  0.6419  0.6564 -0.4505
 3382TIP3   OH231636   3.314   1.665   5.248  1.0956 -0.0616  0.2361
 3382TIP3    H131637   3.251   1.595   5.229  0.9757  0.0076  0.3759
 3382TIP3    H231638   3.371   1.629   5.316  0.0807  0.5096  1.4508
 3383TIP3   OH231639   2.452   3.368   0.935  0.3130 -0.3287 -0.1933
 3383TIP3    H131640   2.526   3.323   0.894  0.4080  0.4709 -0.9253
 3383TIP3    H231641   2.376   3.336   0.887  0.3165 -0.1552 -0.3121
 3384TIP3   OH231642   5.081   4.678   4.983 -0.3033  0.0197 -0.0657
 3384TIP3    H131643   5.034   4.693   4.901  1.4279  2.0581 -0.7694
 3384TIP3    H231644   5.132   4.758   4.997  2.4054 -1.7559  1.0120
 3385TIP3   OH231645   6.155   1.265   1.652  0.3526  0.0174  0.4478
 3385TIP3    H131646   6.205   1.267   1.734  0.3947 -0.3200  0.4301
 3385TIP3    H231647   6.187   1.187   1.607  0.0771  0.0103  0.2660
 3386TIP3   OH231648   6.725   3.674   2.010 -0.6500 -0.0223 -0.3680
 3386TIP3    H131649   6.646   3.715   2.045 -0.5862  1.0775 -1.4830
 3386TIP3    H231650   6.704   3.580   2.008  0.5103 -0.8673  5.8376
 3387TIP3   OH231651   6.774   4.170  15.704  0.1773  0.1584  0.1294
 3387TIP3    H131652   6.719   4.243  15.678 -0.2494 -0.8136 -1.8454
 3387TIP3    H231653   6.786   4.118  15.625  1.6770 -1.1494  1.1266
 3388TIP3   OH231654   2.482   2.991  14.615  0.3755  0.5143 -0.3554
 3388TIP3    H131655   2.549   2.968  14.551  0.1029 -0.3931 -0.3221
 3388TIP3    H231656   2.401   2.995  14.564 -0.2614 -2.4998  0.2655
 3389TIP3   OH231657   3.513   6.073  14.218 -0.3030  0.0257  0.7995
 3389TIP3    H131658   3.509   6.164  14.248 -0.0835  0.0034  0.8935
 3389TIP3    H231659   3.602   6.061  14.187  0.5845 -1.0133  3.5046
 3390TIP3   OH231660   4.096   0.934   0.632  0.2426 -0.1926 -0.3108
 3390TIP3    H131661   4.164   0.882   0.589  0.4784 -1.6738  1.7301
 3390TIP3    H231662   4.113   0.923   0.726 -2.4725 -0.1816  0.2515
 3391TIP3   OH231663   5.567   4.156  13.048 -0.5950 -0.1590  0.1439
 3391TIP3    H131664   5.576   4.157  12.953 -2.4979 -0.6705 -0.0759
 3391TIP3    H231665   5.599   4.070  13.074 -2.0888 -0.8678 -0.2934
 3392TIP3   OH231666   3.692   6.019   2.054 -0.0468  0.0300  0.6873
 3392TIP3    H131667   3.658   5.939   2.015 -0.1647 -0.6436  2.1202
 3392TIP3    H231668   3.783   5.998   2.076  0.1402  0.5397  0.4195
 3393TIP3   OH231669   4.075   1.067  14.049  0.5556  0.2182 -0.1191
 3393TIP3    H131670   4.014   0.999  14.021  1.1665 -0.9519  1.2573
 3393TIP3    H231671   4.128   1.026  14.117  1.9363  1.6328 -0.2627
 3394TIP3   OH231672   3.536   5.230   2.708  0.4904 -0.1543 -1.0791
 3394TIP3    H131673   3.462   5.169   2.710  0.5308 -0.2739 -2.2868
 3394TIP3    H231674   3.496   5.315   2.686  0.2845  0.5462  1.6659
 3395TIP3   OH231675   4.044   1.165  12.496 -0.1430  0.2959 -0.2603
 3395TIP3    H131676   4.097   1.211  12.431 -0.2637 -0.5968 -1.0076
 3395TIP3    H231677   4.021   1.232  12.560  0.8533  0.9619 -0.5827
 3396TIP3   OH231678   0.077   3.998   2.603 -0.3833  0.1908  0.0070
 3396TIP3    H131679   0.010   4.042   2.550 -1.0280  0.2282  0.8465
 3396TIP3    H231680   0.151   4.058   2.602 -0.5110  0.3455 -0.5793
 3397TIP3   OH231681   0.449   4.179   6.556  0.2861  0.2196  0.2112
 3397TIP3    H131682   0.510   4.105   6.565  0.6062  0.6612  1.9607
 3397TIP3    H231683   0.377   4.143   6.504  1.1034 -0.8975 -0.2031
 3398TIP3   OH231684   3.119   6.226  11.858  0.2592 -0.6638  0.0238
 3398TIP3    H131685   3.109   6.302  11.915  0.7127 -1.2299  0.8865
 3398TIP3    H231686   3.196   6.181  11.891  0.3382 -1.1899 -0.8414
 3399TIP3   OH231687   5.167   6.282   5.982  0.4625  0.1519 -0.4212
 3399TIP3    H131688   5.136   6.271   6.071 -0.7457 -0.9155 -0.9400
 3399TIP3    H231689   5.260   6.257   5.985  0.3654 -0.1142  0.4921
 3400TIP3   OH231690   3.919   3.323   6.518 -0.2340 -0.0918 -0.1467
 3400TIP3    H131691   3.924   3.256   6.449 -0.1662 -2.5100  2.0501
 3400TIP3    H231692   3.835   3.306   6.561  0.4821  0.2312  1.4266
 3401TIP3   OH231693   1.779   0.314   0.496  0.9583  0.0963  0.0182
 3401TIP3    H131694   1.702   0.262   0.477 -0.4514  0.8788  2.9228
 3401TIP3    H231695   1.841   0.253   0.536  0.9041 -0.0942 -0.1915
 3402TIP3   OH231696   2.619   5.347   5.299  0.9634  0.4513 -0.3800
 3402TIP3    H131697   2.653   5.311   5.217 -0.2986  2.6974 -2.0167
 3402TIP3    H231698   2.530   5.312   5.305  0.8965  0.6475 -0.2168
 3403TIP3   OH231699   5.516   2.516  15.293  0.3507 -0.0245  0.4003
 3403TIP3    H131700   5.456   2.467  15.236 -0.0364  0.3622  0.4749
 3403TIP3    H231701   5.602   2.481  15.271  0.1601 -0.1925 -0.1140
 3404TIP3   OH231702   0.240   5.165  11.588 -0.1959 -0.4387  0.7709
 3404TIP3    H131703   0.198   5.249  11.605  1.3850  0.4287  0.5492
 3404TIP3    H231704   0.333   5.180  11.605  0.5835 -1.2978 -2.0284
 3405TIP3   OH231705   2.398   1.663   4.774  0.1926 -0.3683 -0.6524
 3405TIP3    H131706   2.427   1.612   4.698  3.1088  1.0387 -0.6005
 3405TIP3    H231707   2.373   1.597   4.839  0.5724 -1.6531 -1.7567
 3406TIP3   OH231708   3.463   2.580  13.705  0.2918 -0.4905  0.1212
 3406TIP3    H131709   3.393   2.637  13.737  0.0135 -0.8326  0.1210
 3406TIP3    H231710   3.418   2.504  13.668  0.6099 -0.2172 -0.8788
 3407TIP3   OH231711   4.418   5.623  10.733  0.2964  0.3023  0.2241
 3407TIP3    H131712   4.382   5.556  10.675 -1.3077 -0.0457  1.5498
 3407TIP3    H231713   4.392   5.706  10.694 -0.2464  0.0861  0.1306
 3408TIP3   OH231714   4.837   2.078  10.940 -0.6065 -0.0389  0.5399
 3408TIP3    H131715   4.801   2.107  10.856 -0.0801 -0.5332  0.1356
 3408TIP3    H231716   4.829   2.155  10.996  1.1955  1.1237 -0.6552
 3409TIP3   OH231717   3.996   4.154  16.376  0.2561 -0.1638 -0.2117
 3409TIP3    H131718   3.984   4.239  16.335  1.8153  0.3912  0.4228
 3409TIP3    H231719   4.002   4.093  16.302 -0.1029  0.3693 -0.6914
 3410TIP3   OH231720   6.027   4.313  11.684  0.0773 -0.0017  0.4364
 3410TIP3    H131721   5.988   4.249  11.743 -1.1529 -0.4791 -0.8264
 3410TIP3    H231722   5.959   4.379  11.671  0.5150  0.3704 -0.0361
 3411TIP3   OH231723   1.868   5.633  13.866 -0.2604 -0.3203 -0.1675
 3411TIP3    H131724   1.954   5.600  13.840  0.7689  1.5100  0.6703
 3411TIP3    H231725   1.831   5.564  13.921  1.6100 -0.3163  1.1787
 3412TIP3   OH231726   1.292   3.269  11.686  0.1158  0.1595 -0.5603
 3412TIP3    H131727   1.355   3.317  11.632  1.0664 -1.3110 -0.7978
 3412TIP3    H231728   1.336   3.188  11.709 -1.0188 -0.1025  0.8233
 3413TIP3   OH231729   1.478   1.749   5.890 -0.0609  0.1443 -0.9618
 3413TIP3    H131730   1.572   1.763   5.901 -0.3870  1.0378  1.2341
 3413TIP3    H231731   1.471   1.689   5.816  2.3890 -1.7834  0.2212
 3414TIP3   OH231732   0.097   5.636  14.520 -0.4393 -0.1287 -0.4778
 3414TIP3    H131733   0.121   5.567  14.457 -0.5025 -0.4948 -0.1057
 3414TIP3    H231734   0.181   5.667  14.554 -0.4391 -1.7736  1.2123
 3415TIP3   OH231735   4.545   1.008  16.925  0.3112  0.0319  0.1421
 3415TIP3    H131736   4.540   1.078  16.990  0.6556  0.9859 -0.8247
 3415TIP3    H231737   4.460   1.011  16.880 -0.7393 -1.9481  1.7963
 3416TIP3   OH231738   5.348   0.436  12.600  0.2450 -0.0681 -0.0191
 3416TIP3    H131739   5.402   0.515  12.597 -0.5481  0.4554 -2.1679
 3416TIP3    H231740   5.408   0.367  12.630  0.9402  1.3076  1.9331
 3417TIP3   OH231741   3.453   3.292  16.315  0.6189 -0.5174 -0.5830
 3417TIP3    H131742   3.423   3.235  16.386 -1.2662 -0.0092 -0.9212
 3417TIP3    H231743   3.436   3.242  16.235  0.6725 -0.2109 -0.7870
 3418TIP3   OH231744   2.182   0.003   5.107  0.2365 -0.1498 -0.6162
 3418TIP3    H131745   2.113   0.012   5.172 -0.0421  0.9359 -1.0349
 3418TIP3    H231746   2.263   0.019   5.155 -0.0281  1.5920 -0.6850
 3419TIP3   OH231747   1.962   0.771   0.800  0.1518  0.2874  0.0351
 3419TIP3    H131748   1.989   0.777   0.708 -2.6681 -0.8887 -0.9852
 3419TIP3    H231749   1.967   0.677   0.820 -0.3592  0.3894  0.6834
 3420TIP3   OH231750   1.814   4.761   4.525  0.5120 -0.0192 -0.3239
 3420TIP3    H131751   1.776   4.701   4.589 -3.0966  1.1396 -1.0843
 3420TIP3    H231752   1.879   4.710   4.479  1.1254 -1.7719  2.2695
 3421TIP3   OH231753   2.811   1.192   2.681  0.2289 -0.3238  0.1074
 3421TIP3    H131754   2.838   1.115   2.731  0.2274 -0.9620 -0.8409
 3421TIP3    H231755   2.881   1.204   2.616  0.3104  0.5791  0.3459
 3422TIP3   OH231756   0.221   5.847   4.358 -0.1282 -0.0035 -0.0307
 3422TIP3    H131757   0.142   5.872   4.310  0.0382  0.9782  0.1841
 3422TIP3    H231758   0.213   5.752   4.371 -0.0393 -0.3443 -2.2260
 3423TIP3   OH231759   0.224   6.789  15.016  0.2479  0.2462  0.3145
 3423TIP3    H131760   0.296   6.816  15.074  1.0406  0.0164 -0.5274
 3423TIP3    H231761   0.245   6.699  14.994  0.0641  0.3926 -0.4726
 3424TIP3   OH231762   5.084   5.882   5.367 -0.6163  0.4001 -0.5707
 3424TIP3    H131763   5.071   5.973   5.395  1.4700  0.6253 -0.1956
 3424TIP3    H231764   5.070   5.830   5.446  0.9260  0.6623 -0.0956
 3425TIP3   OH231765   0.321   1.726  15.880 -0.5478 -1.0490 -0.3622
 3425TIP3    H131766   0.228   1.730  15.857 -0.3984  0.8529 -0.8398
 3425TIP3    H231767   0.345   1.817  15.899  1.0736 -1.5825  0.3979
 3426TIP3   OH231768   6.348   1.801   6.121  0.2377  0.4178  0.3990
 3426TIP3    H131769   6.329   1.824   6.031 -0.2830  1.4452  0.7502
 3426TIP3    H231770   6.298   1.722   6.138  1.4916 -0.6444 -0.6314
 3427TIP3   OH231771   1.476   3.594  10.443 -0.4543  0.3102 -0.4998
 3427TIP3    H131772   1.414   3.531  10.478 -0.2119  0.1242 -0.4101
 3427TIP3    H231773   1.543   3.603  10.510 -0.8871  1.2410 -0.1807
 3428TIP3   OH231774   4.524   2.892  14.786 -0.1168  0.2911  0.4105
 3428TIP3    H131775   4.599   2.946  14.811  1.8222 -2.1395  0.1572
 3428TIP3    H231776   4.483   2.868  14.870  0.8953 -0.3711  0.7313
 3429TIP3   OH231777   6.076   1.253   2.236  0.4405  0.3041  0.0043
 3429TIP3    H131778   6.104   1.304   2.160  1.5486  2.1292  1.5604
 3429TIP3    H231779   6.156   1.210   2.267 -0.0612 -0.6802 -0.0253
 3430TIP3   OH231780   5.052   1.223  12.560 -0.5713 -0.3836 -0.0582
 3430TIP3    H131781   4.992   1.152  12.582 -1.2443  0.0756 -0.3875
 3430TIP3    H231782   5.022   1.297  12.611 -0.5556 -0.0282 -0.5556
 3431TIP3   OH231783   6.249   5.624   2.412  0.2700  0.1717  0.1338
 3431TIP3    H131784   6.264   5.628   2.506  1.1168  0.5365 -0.0105
 3431TIP3    H231785   6.197   5.703   2.393  1.0652  0.7028  0.1304
 3432TIP3   OH231786   4.580   3.730  11.319  1.0236 -0.4171 -0.0286
 3432TIP3    H131787   4.562   3.671  11.391 -1.1070 -1.4954 -1.3508
 3432TIP3    H231788   4.502   3.726  11.264  1.5606  2.2212 -1.1501
 3433TIP3   OH231789   2.710   3.926  11.263 -0.4090 -0.2041  0.2535
 3433TIP3    H131790   2.770   3.947  11.191  1.3192  0.3327  1.7742
 3433TIP3    H231791   2.646   3.866  11.224  1.2125 -0.9516 -1.4024
 3434TIP3   OH231792   6.740   5.868  11.659 -0.0725  0.4061  0.2246
 3434TIP3    H131793   6.784   5.924  11.595  0.9451  0.9711  1.3648
 3434TIP3    H231794   6.790   5.880  11.740  0.4960 -2.4931  0.4415
 3435TIP3   OH231795   3.374   4.795  15.284 -0.3092  0.4121 -0.4848
 3435TIP3    H131796   3.330   4.872  15.248 -0.2728  0.8255  0.3516
 3435TIP3    H231797   3.334   4.783  15.370 -0.3325 -0.5220 -0.6128
 3436TIP3   OH231798   2.925   0.329   3.951 -0.0736  0.0024  0.1174
 3436TIP3    H131799   2.959   0.418   3.945  0.7149 -0.3898 -2.8640
 3436TIP3    H231800   3.002   0.273   3.946 -0.6828 -0.8539  0.0197
 3437TIP3   OH231801   2.125   3.333   1.252 -0.4528 -0.6792  0.0708
 3437TIP3    H131802   2.060   3.286   1.199 -1.8352  1.2305 -0.0272
 3437TIP3    H231803   2.151   3.407   1.197  3.7211 -2.5627 -0.9335
 3438TIP3   OH231804   0.309   5.216   3.164 -0.2300 -0.2968  0.0165
 3438TIP3    H131805   0.227   5.199   3.118 -0.6623  1.3646  0.0786
 3438TIP3    H231806   0.347   5.291   3.118  0.6357 -0.2845  0.7311
 3439TIP3   OH231807   3.203   3.437   1.778  0.3407 -0.2896 -0.0903
 3439TIP3    H131808   3.203   3.355   1.729 -0.1674 -0.6517  0.5024
 3439TIP3    H231809   3.259   3.496   1.726 -1.6423 -0.0389 -2.1214
 3440TIP3   OH231810   2.417   3.499  13.107 -0.1347 -0.4986 -0.7032
 3440TIP3    H131811   2.467   3.430  13.065  0.8694 -1.0670  1.3025
 3440TIP3    H231812   2.416   3.476  13.200 -0.3610  1.8131 -0.0584
 3441TIP3   OH231813   5.577   5.730  16.503  0.2151 -0.3337 -0.2604
 3441TIP3    H131814   5.577   5.652  16.558  0.1632 -0.4409 -0.4099
 3441TIP3    H231815   5.510   5.786  16.541  2.7736  1.3359  2.1844
 3442TIP3   OH231816   2.809   1.217   2.031 -0.0767  0.2517  0.2427
 3442TIP3    H131817   2.802   1.126   2.004  1.1387  0.2317 -0.0670
 3442TIP3    H231818   2.720   1.252   2.022 -0.2827 -0.5255 -0.9625
 3443TIP3   OH231819   1.874   1.817  15.174  0.2678 -0.3381 -0.2871
 3443TIP3    H131820   1.833   1.898  15.207 -1.5770 -1.2584 -0.1936
 3443TIP3    H231821   1.885   1.833  15.080  0.1531  0.1277 -0.2258
 3444TIP3   OH231822   1.380   6.538  10.952 -0.2745  0.0613 -0.1726
 3444TIP3    H131823   1.296   6.526  10.997 -0.2558 -0.5057 -0.2800
 3444TIP3    H231824   1.418   6.450  10.949  0.3161  0.3133 -0.1392
 3445TIP3   OH231825   5.580   4.318  14.665 -0.9567  0.4210 -0.0471
 3445TIP3    H131826   5.589   4.413  14.660 -2.0666  0.5235 -0.3609
 3445TIP3    H231827   5.552   4.292  14.577 -0.4745 -0.2257 -0.0179
 3446TIP3   OH231828   6.510   3.519   3.872 -0.1946  0.3881 -0.3634
 3446TIP3    H131829   6.444   3.543   3.807 -1.8806  1.1215  1.5190
 3446TIP3    H231830   6.522   3.599   3.924  2.3009  0.3097 -0.6865
 3447TIP3   OH231831   5.281   3.068  16.440 -0.6204 -0.1181  0.1146
 3447TIP3    H131832   5.257   3.042  16.529 -0.4556 -0.3515  0.0917
 3447TIP3    H231833   5.244   2.999  16.384  0.7928 -0.9476  0.1358
 3448TIP3   OH231834   0.009   3.836   5.618  0.1509  0.1161  0.1523
 3448TIP3    H131835   0.042   3.799   5.700 -0.3229 -0.7958 -0.0659
 3448TIP3    H231836   0.013   3.931   5.632 -0.3307 -0.0289  1.3860
 3449TIP3   OH231837   0.957   4.836  14.204 -0.3483 -0.0764 -0.5569
 3449TIP3    H131838   0.902   4.799  14.136 -0.8591 -0.1003 -0.1381
 3449TIP3    H231839   0.896   4.863  14.273  0.0876  0.6791 -0.4496
 3450TIP3   OH231840   5.296   3.593  10.592  0.7320  0.0711  0.3808
 3450TIP3    H131841   5.389   3.617  10.593  0.7935 -0.1728  1.2444
 3450TIP3    H231842   5.280   3.555  10.679 -0.7509  2.2591  1.1398
 3451TIP3   OH231843   5.007   2.987   1.612 -0.5877 -0.5543  0.2252
 3451TIP3    H131844   5.082   2.939   1.647 -0.6139  1.9868  4.4401
 3451TIP3    H231845   4.933   2.955   1.662 -2.1365 -1.5601 -2.4767
 3452TIP3   OH231846   2.783   3.672   5.744  0.2249  0.1547 -0.0032
 3452TIP3    H131847   2.700   3.687   5.789  1.2953  4.0311  1.0183
 3452TIP3    H231848   2.840   3.633   5.810  0.3882  1.4119  0.6303
 3453TIP3   OH231849   3.964   4.454  11.575 -0.3399  0.2679  0.0093
 3453TIP3    H131850   3.945   4.548  11.584 -0.1786  0.2446  0.6163
 3453TIP3    H231851   4.008   4.447  11.490 -0.6781  0.6913 -0.2030
 3454TIP3   OH231852   3.810   6.798   1.151 -0.0047  0.7726 -0.0001
 3454TIP3    H131853   3.767   6.730   1.099  0.1543  0.1032  0.7251
 3454TIP3    H231854   3.784   6.779   1.241  1.8526  0.3125  0.4807
 3455TIP3   OH231855   6.403   2.883   2.614 -0.6409  0.1204 -0.2901
 3455TIP3    H131856   6.396   2.946   2.542 -1.3420 -0.0686 -0.3890
 3455TIP3    H231857   6.463   2.816   2.580  0.7279  1.1015  0.0998
 3456TIP3   OH231858   4.962   3.817  13.013  0.0072  0.1863 -0.6010
 3456TIP3    H131859   4.928   3.772  13.090 -1.1063  0.4406 -0.9372
 3456TIP3    H231860   4.910   3.783  12.940  1.3159 -0.3634 -1.3178
 3457TIP3   OH231861   4.231   2.778   2.625  0.0336  0.3633  0.1772
 3457TIP3    H131862   4.265   2.703   2.577  0.2132  1.0847 -0.8701
 3457TIP3    H231863   4.170   2.819   2.563  1.1428  1.9864  0.0959
 3458TIP3   OH231864   2.933   0.548   3.001 -0.1742 -0.5117  0.6265
 3458TIP3    H131865   2.860   0.552   2.940  0.9933  2.4481 -0.7551
 3458TIP3    H231866   2.893   0.562   3.087 -1.2986  0.8804 -0.0765
 3459TIP3   OH231867   2.905   2.695  17.301  0.2769  0.3439 -0.1419
 3459TIP3    H131868   2.813   2.695  17.276 -0.0203  0.5253  0.8783
 3459TIP3    H231869   2.939   2.611  17.270 -0.7914 -0.7037  1.3536
 3460TIP3   OH231870   6.761   3.641   1.317  0.0584  0.4300 -0.2228
 3460TIP3    H131871   6.751   3.580   1.390 -0.8149  0.2215 -0.5004
 3460TIP3    H231872   6.855   3.649   1.305  0.2149  0.4971  0.9435
 3461TIP3   OH231873   3.883   4.883   4.116  0.3234  0.6811 -0.0295
 3461TIP3    H131874   3.847   4.960   4.159  1.6688  0.9873  0.6053
 3461TIP3    H231875   3.938   4.842   4.183 -0.8270 -1.1830 -0.1502
 3462TIP3   OH231876   5.225   6.075   2.060  0.2006 -0.2336 -0.1569
 3462TIP3    H131877   5.135   6.050   2.081  0.6522 -1.2336  0.6754
 3462TIP3    H231878   5.266   6.090   2.145 -0.0867  3.8550 -0.5156
 3463TIP3   OH231879   4.729   1.605  13.129 -0.0400 -0.1833 -0.0270
 3463TIP3    H131880   4.671   1.553  13.185 -0.3798  0.9315  0.6947
 3463TIP3    H231881   4.776   1.662  13.190  0.2845  0.4015 -0.8037
 3464TIP3   OH231882   5.984   4.522  13.052  0.2727 -0.4772 -0.5329
 3464TIP3    H131883   6.069   4.538  13.094  1.4406 -1.9121 -2.2054
 3464TIP3    H231884   5.986   4.429  13.029 -1.2933 -0.2701 -1.6651
 3465TIP3   OH231885   1.107   0.251  14.815  0.1072  0.5330  0.3547
 3465TIP3    H131886   1.030   0.290  14.856 -1.1621 -0.7767 -0.6594
 3465TIP3    H231887   1.138   0.318  14.753 -0.4830  0.9187  0.4685
 3466TIP3   OH231888   0.253   4.104  11.258 -0.5911 -0.1051  0.2134
 3466TIP3    H131889   0.177   4.153  11.227  0.3128  0.0629 -1.8801
 3466TIP3    H231890   0.309   4.095  11.181  1.4481 -0.3552  1.6380
 3467TIP3   OH231891   3.757   5.182   0.751  0.0746 -0.3128 -0.5889
 3467TIP3    H131892   3.830   5.123   0.731  1.0616  0.8235 -0.4117
 3467TIP3    H231893   3.688   5.154   0.692  0.8229 -1.0786 -1.1353
 3468TIP3   OH231894   6.318   2.180  14.275  0.2953  0.2943 -0.1621
 3468TIP3    H131895   6.392   2.236  14.299  2.7974 -0.8448 -4.1830
 3468TIP3    H231896   6.261   2.237  14.224 -1.3270  0.9386  2.1975
 3469TIP3   OH231897   5.584   0.831  13.135 -0.2924 -0.2225  0.4442
 3469TIP3    H131898   5.554   0.740  13.147 -1.0687  0.0133  0.3643
 3469TIP3    H231899   5.631   0.851  13.216  0.6661 -0.9841  0.0945
 3470TIP3   OH231900   0.871   1.111  11.908  0.1548 -0.1149 -0.0884
 3470TIP3    H131901   0.788   1.088  11.950 -0.8336  1.7273 -0.9169
 3470TIP3    H231902   0.888   1.040  11.846  0.4887 -1.7249  1.7413
 3471TIP3   OH231903   3.709   4.939   2.225  0.1393  0.2618 -0.0703
 3471TIP3    H131904   3.777   5.004   2.243  1.1232 -1.3089  2.2950
 3471TIP3    H231905   3.688   4.952   2.132  3.7851  0.7004 -0.9988
 3472TIP3   OH231906   0.458   0.407   0.177 -0.2164 -0.0903  0.1405
 3472TIP3    H131907   0.503   0.445   0.252  0.7389  1.4294 -1.1450
 3472TIP3    H231908   0.527   0.366   0.125 -0.5881  0.3920 -0.7719
 3473TIP3   OH231909   1.581   3.038   4.271 -0.2822 -0.5919  0.1400
 3473TIP3    H131910   1.572   2.978   4.345  0.0948 -2.6813 -1.4087
 3473TIP3    H231911   1.510   3.014   4.212 -0.1386  0.5372 -0.5312
 3474TIP3   OH231912   3.282   6.091  11.410 -0.1757  0.0471  0.5336
 3474TIP3    H131913   3.257   6.137  11.330 -0.8959  0.6215  1.0831
 3474TIP3    H231914   3.300   6.001  11.381 -2.3578 -0.2778 -0.0001
 3475TIP3   OH231915   3.021   1.061   5.932 -0.5662 -0.4429  0.3226
 3475TIP3    H131916   2.964   1.017   5.995 -2.4718  1.0789 -0.2324
 3475TIP3    H231917   2.999   1.154   5.941  0.1969 -0.0412 -1.5235
 3476TIP3   OH231918   2.393   2.376  16.177 -0.1785  0.1442  0.0357
 3476TIP3    H131919   2.415   2.468  16.161 -1.3956  0.3333 -0.6363
 3476TIP3    H231920   2.477   2.334  16.195  0.4616  1.2672 -0.2557
 3477TIP3   OH231921   0.026   5.654  14.065  0.1580 -0.0349 -0.4800
 3477TIP3    H131922   0.013   5.607  14.148 -0.8591 -0.2284 -0.7286
 3477TIP3    H231923  -0.054   5.705  14.055  0.3880  0.1797 -1.2195
 3478TIP3   OH231924   4.447   3.013   4.460  0.8886  0.7030  0.2144
 3478TIP3    H131925   4.523   3.063   4.490  0.6227  0.2863  1.6662
 3478TIP3    H231926   4.461   2.925   4.496 -0.1264  0.5391  0.2250
 3479TIP3   OH231927   0.588   5.549  12.380  0.3807 -0.2413 -0.5484
 3479TIP3    H131928   0.605   5.626  12.326 -0.7212  0.6092  0.2609
 3479TIP3    H231929   0.653   5.555  12.450 -0.6535  0.8487  0.3737
 3480TIP3   OH231930   3.630   3.641  11.881 -0.1034 -0.3315  0.2292
 3480TIP3    H131931   3.558   3.693  11.916  0.8223  1.1784 -0.0482
 3480TIP3    H231932   3.640   3.569  11.944 -0.7092  0.4120  1.2105
 3481TIP3   OH231933   3.514   5.659  15.903 -0.0247 -0.6020  0.1678
 3481TIP3    H131934   3.468   5.698  15.977  1.6199 -1.6870  1.8200
 3481TIP3    H231935   3.521   5.566  15.924  2.7075 -0.5285 -0.0923
 3482TIP3   OH231936   4.415   3.432   5.426  0.7805 -0.4424 -0.2685
 3482TIP3    H131937   4.444   3.342   5.411  0.0167 -0.8677  0.6461
 3482TIP3    H231938   4.448   3.482   5.352 -0.7231 -1.9052 -2.0133
 3483TIP3   OH231939   0.210   3.889  13.126 -0.1012 -0.2708 -0.1340
 3483TIP3    H131940   0.126   3.847  13.144 -1.2515  2.3990  1.1649
 3483TIP3    H231941   0.189   3.959  13.065  1.2412  0.2727  0.0087
 3484TIP3   OH231942   5.211   2.989  13.817 -0.0433 -0.3346 -1.1454
 3484TIP3    H131943   5.187   2.980  13.725  1.2498  0.9908 -1.6570
 3484TIP3    H231944   5.299   3.026  13.815  0.9127 -2.2573  0.6254
 3485TIP3   OH231945   5.095   2.672   1.446  0.7139 -0.1275 -0.2300
 3485TIP3    H131946   5.066   2.738   1.508  1.7768  1.4931 -1.3801
 3485TIP3    H231947   5.014   2.630   1.415 -0.2037  2.0156 -0.9328
 3486TIP3   OH231948   0.979   3.239   4.947  0.0747 -0.0358  0.0300
 3486TIP3    H131949   0.986   3.238   5.043 -0.6172  0.5672  0.0964
 3486TIP3    H231950   0.974   3.332   4.925 -0.2019 -0.1870 -0.5559
 3487TIP3   OH231951   2.901   1.336   3.614  0.0873 -0.3967  0.2047
 3487TIP3    H131952   2.959   1.271   3.574  1.7126 -0.5309  2.5727
 3487TIP3    H231953   2.816   1.321   3.574  0.8886 -2.6096 -0.8070
 3488TIP3   OH231954   2.967   5.238  16.218  0.3571 -0.5481  0.2330
 3488TIP3    H131955   3.017   5.181  16.159 -0.2605 -0.5056 -0.3466
 3488TIP3    H231956   2.905   5.180  16.262  0.2957 -0.4557  0.2701
 3489TIP3   OH231957   4.132   4.837  14.129 -0.2733  0.1514 -0.4073
 3489TIP3    H131958   4.164   4.868  14.045  0.2524  0.0067 -0.2639
 3489TIP3    H231959   4.204   4.852  14.190 -0.2187 -0.8099 -0.2157
 3490TIP3   OH231960   4.362   4.560  16.856 -0.2915  0.7708  0.6875
 3490TIP3    H131961   4.285   4.608  16.886 -0.1174  1.3885  0.1879
 3490TIP3    H231962   4.425   4.629  16.833 -0.6981  0.4072 -1.8800
 3491TIP3   OH231963   6.303   3.760   1.141 -0.2687  0.4997  0.2394
 3491TIP3    H131964   6.389   3.801   1.129 -0.2001  0.3731  0.2949
 3491TIP3    H231965   6.261   3.769   1.055 -0.5670  1.3898  0.4739
 3492TIP3   OH231966   0.008   2.669   1.468 -0.6290  0.2252 -0.4981
 3492TIP3    H131967  -0.012   2.593   1.523  0.3153  0.5252  0.2904
 3492TIP3    H231968  -0.040   2.741   1.508 -1.9439 -0.0288 -1.5498
 3493TIP3   OH231969   2.163   0.279   3.782  0.5230 -0.3423 -0.1599
 3493TIP3    H131970   2.202   0.191   3.789 -1.3614 -1.1745  0.6617
 3493TIP3    H231971   2.077   0.269   3.822 -0.5132  1.4208 -1.8222
 3494TIP3   OH231972   6.724   0.503  11.433  0.5244  0.4668  0.1065
 3494TIP3    H131973   6.715   0.541  11.346  0.4482 -2.0669 -1.0832
 3494TIP3    H231974   6.752   0.413  11.418  1.4193  0.1865  2.7592
 3495TIP3   OH231975   1.484   2.084  16.491 -0.2510 -0.4456  0.1094
 3495TIP3    H131976   1.548   2.013  16.500  0.1771 -0.2556 -1.1882
 3495TIP3    H231977   1.517   2.154  16.548  0.3622 -0.5857 -0.0605
 3496TIP3   OH231978   3.738   6.291   6.302 -0.3960  1.0469 -0.5281
 3496TIP3    H131979   3.773   6.335   6.379 -0.0312 -1.5143  0.8883
 3496TIP3    H231980   3.794   6.320   6.230  0.0975  2.4856  0.3833
 3497TIP3   OH231981   3.293   6.476   5.323  0.3194  0.0416  0.5081
 3497TIP3    H131982   3.296   6.510   5.412  0.5250 -0.3898  0.6677
 3497TIP3    H231983   3.360   6.407   5.321  0.9716  0.6622 -0.2337
 3498TIP3   OH231984   2.886   5.904   0.557 -0.3171  0.2338  0.0216
 3498TIP3    H131985   2.933   5.891   0.638 -0.6002 -0.0050  0.1497
 3498TIP3    H231986   2.923   5.840   0.496  0.9121  1.3700 -0.4939
 3499TIP3   OH231987   6.251   1.842  11.379 -0.0204  0.2733 -0.7016
 3499TIP3    H131988   6.182   1.801  11.327 -0.0076 -0.3465 -0.2420
 3499TIP3    H231989   6.317   1.867  11.315 -0.5198  0.5694 -1.1120
 3500TIP3   OH231990   6.479   6.069  12.538 -0.2443  0.0182 -0.1176
 3500TIP3    H131991   6.413   6.072  12.470  0.2148  0.6455 -0.5458
 3500TIP3    H231992   6.439   6.018  12.609 -1.8042  1.6969  0.2798
 3501TIP3   OH231993   1.219   0.273   5.031 -0.5033 -0.3734 -0.3225
 3501TIP3    H131994   1.284   0.343   5.041 -1.1105 -0.0423  1.8405
 3501TIP3    H231995   1.242   0.209   5.098 -0.3086 -2.0361 -1.8923
 3502TIP3   OH231996   1.637   6.223  16.984 -0.9787  0.0223 -0.6332
 3502TIP3    H131997   1.666   6.179  17.064 -1.5721 -0.7766 -0.8480
 3502TIP3    H231998   1.718   6.243  16.937 -0.7147 -1.3325 -0.7911
 3503TIP3   OH231999   4.469   2.788   3.632  0.1924 -0.2666  0.4452
 3503TIP3    H132000   4.428   2.719   3.683  1.8516 -1.6557 -0.0263
 3503TIP3    H232001   4.441   2.770   3.542  2.1599 -1.5438  0.0424
 3504TIP3   OH232002   2.809   6.465   2.732 -0.3906 -0.2662  0.1652
 3504TIP3    H132003   2.890   6.487   2.779 -0.2004  0.4328 -0.4700
 3504TIP3    H232004   2.757   6.415   2.796  0.1099  0.1551  0.9203
 3505TIP3   OH232005   4.707   1.890  15.925  0.4288 -0.0071 -0.1527
 3505TIP3    H132006   4.677   1.834  15.852  0.5181 -1.1021  0.6253
 3505TIP3    H232007   4.633   1.949  15.941 -0.0343 -0.5071 -0.4026
 3506TIP3   OH232008   0.246   5.448   6.035 -0.4744 -0.5748  0.4976
 3506TIP3    H132009   0.278   5.524   6.083  0.3729 -0.6166  0.0303
 3506TIP3    H232010   0.176   5.412   6.089 -1.7754  1.2547  0.1420
 3507TIP3   OH232011   3.264   6.676   3.050  0.0947 -0.0947  0.3883
 3507TIP3    H132012   3.205   6.668   2.975  0.1771  0.6205  0.2358
 3507TIP3    H232013   3.291   6.587   3.069  0.4326 -0.2490 -0.7279
 3508TIP3   OH232014   4.728   4.686  12.783  0.2752 -0.1698 -0.1321
 3508TIP3    H132015   4.818   4.652  12.778 -0.1647 -1.5803  1.0239
 3508TIP3    H232016   4.674   4.610  12.804 -1.1816  0.7035 -0.5682
 3509TIP3   OH232017   2.860   4.466  12.858 -0.0157 -0.0056 -0.5666
 3509TIP3    H132018   2.953   4.462  12.836  0.1058 -1.5076  0.0551
 3509TIP3    H232019   2.858   4.494  12.949 -0.1221 -0.6129 -0.3760
 3510TIP3   OH232020   3.017   1.486  11.914 -0.9030 -0.0269 -0.4036
 3510TIP3    H132021   2.995   1.398  11.943 -1.0224 -0.3997 -1.5644
 3510TIP3    H232022   3.099   1.476  11.865 -1.1135  0.4417 -0.8620
 3511TIP3   OH232023   6.420   1.876  17.165  0.0835  0.4211 -0.0853
 3511TIP3    H132024   6.412   1.848  17.256  1.3454  0.2551  0.0021
 3511TIP3    H232025   6.330   1.884  17.133 -0.4182  1.8290  1.5656
 3512TIP3   OH232026   6.314   4.249  14.618 -0.4602 -0.4728  0.4911
 3512TIP3    H132027   6.226   4.277  14.645  0.3493  0.2389  2.5547
 3512TIP3    H232028   6.306   4.154  14.608 -1.9765 -0.1996 -1.6120
 3513TIP3   OH232029   4.915   5.011   1.859 -0.4234  0.0009 -0.0772
 3513TIP3    H132030   4.927   5.009   1.954 -0.2311 -0.3215 -0.1053
 3513TIP3    H232031   5.001   5.034   1.823 -0.7040  0.9811 -0.1400
 3514TIP3   OH232032   0.973   5.614  15.246  0.2103  0.2230 -0.5439
 3514TIP3    H132033   0.971   5.685  15.182 -0.3895  0.1743 -0.5778
 3514TIP3    H232034   1.062   5.579  15.239  0.4916  0.9207 -0.5783
 3515TIP3   OH232035   4.108   2.359  12.704  0.2634 -0.2064 -0.4605
 3515TIP3    H132036   4.136   2.321  12.787  1.4426 -0.3841 -0.9207
 3515TIP3    H232037   4.116   2.287  12.641  1.7776  0.5631 -1.1983
 3516TIP3   OH232038   4.686   4.248   2.796  0.2857  0.3893  0.0397
 3516TIP3    H132039   4.766   4.294   2.770  0.3820 -0.0311 -0.4179
 3516TIP3    H232040   4.709   4.155   2.793  0.2027  0.3081  1.3203
 3517TIP3   OH232041   4.706   3.332  13.107 -0.2425 -0.1506 -0.3003
 3517TIP3    H132042   4.649   3.395  13.064 -0.3959 -1.0502 -1.4776
 3517TIP3    H232043   4.676   3.247  13.075  0.5035 -0.7689  0.5793
 3518TIP3   OH232044   5.311   1.906   2.887  0.3775  0.0009 -0.3754
 3518TIP3    H132045   5.249   1.853   2.936  0.0998  0.1196 -0.5937
 3518TIP3    H232046   5.393   1.857   2.891  0.4265  0.1370  0.4175
 3519TIP3   OH232047   0.433   0.347  12.897 -0.0329 -0.1655  0.4725
 3519TIP3    H132048   0.352   0.358  12.848  0.1112 -1.3449 -0.0632
 3519TIP3    H232049   0.410   0.288  12.968  0.3882 -0.6598  0.2064
 3520TIP3   OH232050   4.744   2.555  15.898  0.6091 -0.1780 -0.2547
 3520TIP3    H132051   4.825   2.508  15.917  1.4425  0.6698 -1.5381
 3520TIP3    H232052   4.713   2.585  15.984  1.3374 -1.0017  0.3069
 3521TIP3   OH232053   3.507   1.088   4.629 -0.4892 -0.1287  0.2997
 3521TIP3    H132054   3.543   1.025   4.566 -1.3973 -0.0362 -0.3293
 3521TIP3    H232055   3.490   1.167   4.577  1.4975  1.0041  1.2553
 3522TIP3   OH232056   1.968   3.704  12.671  0.4820  0.4567  0.7387
 3522TIP3    H132057   2.010   3.662  12.746  0.1797  0.3213  0.8305
 3522TIP3    H232058   1.879   3.669  12.670  1.0744 -1.1047 -0.8879
 3523TIP3   OH232059   2.763   3.213  15.459 -0.1306  0.4804 -0.5685
 3523TIP3    H132060   2.740   3.149  15.392  1.4097  0.2488 -0.9153
 3523TIP3    H232061   2.681   3.257  15.480 -1.1539 -1.3011 -0.6340
 3524TIP3   OH232062   5.750   5.736  14.030 -0.1579  0.5016  0.3874
 3524TIP3    H132063   5.695   5.810  14.006  1.3676  0.8044 -2.6280
 3524TIP3    H232064   5.818   5.773  14.087 -0.5547  0.9698  0.5615
 3525TIP3   OH232065   6.400   3.369  16.228  0.5265  0.4100  0.4147
 3525TIP3    H132066   6.480   3.352  16.178  0.5682  0.6665  0.3946
 3525TIP3    H232067   6.423   3.346  16.318 -0.1835 -2.1565  0.0237
 3526TIP3   OH232068   3.492   3.598   4.723  0.3692 -0.0475  0.2428
 3526TIP3    H132069   3.579   3.636   4.734  0.8359 -0.5101 -1.4722
 3526TIP3    H232070   3.496   3.554   4.638 -1.5013 -0.2083  0.1952
 3527TIP3   OH232071   4.447   6.811  14.463  0.7888  0.1450 -0.3091
 3527TIP3    H132072   4.393   6.733  14.476  1.2622 -0.1986 -0.3906
 3527TIP3    H232073   4.506   6.788  14.391  1.2015  0.4337 -0.0680
 3528TIP3   OH232074   1.425   1.847   0.975 -0.4050  0.2195 -0.2377
 3528TIP3    H132075   1.469   1.910   0.917 -0.6853  1.4142  0.8105
 3528TIP3    H232076   1.459   1.762   0.947  0.5420  0.8830 -1.2114
 3529TIP3   OH232077   0.012   2.655  12.882 -0.1922 -0.0291 -0.2073
 3529TIP3    H132078   0.082   2.610  12.834 -0.0145  0.5693 -0.5219
 3529TIP3    H232079  -0.048   2.685  12.814  0.2085  1.0796 -0.0935
 3530TIP3   OH232080   5.339   0.037  12.820 -0.2302 -0.2239  0.1288
 3530TIP3    H132081   5.304  -0.052  12.817  1.2534 -0.8083 -1.3559
 3530TIP3    H232082   5.433   0.026  12.808  0.2388  1.4366  1.9023
 3531TIP3   OH232083   2.391   4.830  11.860  0.1845  0.0559 -0.3587
 3531TIP3    H132084   2.411   4.854  11.769  1.7778 -1.0746 -0.3374
 3531TIP3    H232085   2.304   4.790  11.856 -0.9373  2.3438 -0.9434
 3532TIP3   OH232086   4.148   3.240   1.743 -0.2171 -0.0615  0.3163
 3532TIP3    H132087   4.054   3.251   1.759 -0.4147  0.1253 -0.8490
 3532TIP3    H232088   4.168   3.154   1.779 -0.7139  0.1225  1.0645
 3533TIP3   OH232089   2.910   4.518  12.169  0.1951  0.5997 -0.4829
 3533TIP3    H132090   2.986   4.475  12.129  0.2435  0.6997 -0.4988
 3533TIP3    H232091   2.871   4.451  12.225 -0.8027 -0.0620 -1.9022
 3534TIP3   OH232092   4.389   0.671   5.867  0.2000  0.3335 -0.1607
 3534TIP3    H132093   4.418   0.730   5.797  1.4907 -0.1892 -0.0851
 3534TIP3    H232094   4.469   0.637   5.905 -0.5122 -0.9466  0.2633
 3535TIP3   OH232095   1.484   4.991   5.232 -0.2537 -0.1732 -0.1267
 3535TIP3    H132096   1.491   5.084   5.255 -1.7367 -0.0873  0.1159
 3535TIP3    H232097   1.475   4.946   5.317 -1.2538 -0.3390 -0.3081
 3536TIP3   OH232098   4.815   5.890   0.650 -0.8489  0.0821 -0.2950
 3536TIP3    H132099   4.736   5.914   0.601 -0.1580 -1.8444 -2.5070
 3536TIP3    H232100   4.810   5.795   0.657  0.5686  0.0681  0.8454
 3537TIP3   OH232101   5.465   6.006  15.957 -0.0083 -0.6784  0.4843
 3537TIP3    H132102   5.538   5.951  15.984  1.3329  0.9264  0.3209
 3537TIP3    H232103   5.444   6.057  16.036  0.4289  0.3022 -0.0145
 3538TIP3   OH232104   6.718   0.899  16.542 -0.0589  0.1337  0.4126
 3538TIP3    H132105   6.764   0.924  16.461  1.7686  1.7423  1.8523
 3538TIP3    H232106   6.726   0.804  16.545  0.0505  0.0645 -1.1717
 3539TIP3   OH232107   4.766   5.764  12.400 -0.2335  0.4160 -0.3663
 3539TIP3    H132108   4.852   5.795  12.372 -1.0183  1.9618 -1.2049
 3539TIP3    H232109   4.705   5.803  12.338 -1.7301  1.0615  1.4268
 3540TIP3   OH232110   6.744   4.011  15.925 -0.0609 -0.1130 -0.9301
 3540TIP3    H132111   6.783   4.087  15.881 -0.2877  0.6904  0.2100
 3540TIP3    H232112   6.657   4.002  15.886 -0.6960  1.2848  0.0891
 3541TIP3   OH232113   5.750   0.000   0.576 -0.4203 -0.1102 -0.4339
 3541TIP3    H132114   5.842  -0.005   0.552 -0.3587 -1.4806  0.0291
 3541TIP3    H232115   5.740  -0.061   0.649 -1.2706  1.5390  0.9132
 3542TIP3   OH232116   0.265   2.000  11.632 -0.1570 -0.6368 -0.3980
 3542TIP3    H132117   0.326   2.019  11.561 -0.6435 -3.6097 -1.7674
 3542TIP3    H232118   0.199   2.069  11.626  0.3496 -0.2612 -2.2121
 3543TIP3   OH232119   4.467   4.697   0.097  0.0393 -0.1586  0.4170
 3543TIP3    H132120   4.540   4.696   0.159  1.0840 -0.1565 -0.7660
 3543TIP3    H232121   4.463   4.788   0.066 -0.8769 -0.0184  0.9404
 3544TIP3   OH232122   6.638   2.821  11.929  0.6834 -0.4063  0.1524
 3544TIP3    H132123   6.700   2.868  11.873  1.2850  0.6645  1.6516
 3544TIP3    H232124   6.603   2.888  11.987 -0.7174 -1.2968  0.3843
 3545TIP3   OH232125   1.272   5.987  14.837 -0.1123 -0.3370  0.2975
 3545TIP3    H132126   1.315   6.072  14.835 -0.2892 -0.2610 -1.6724
 3545TIP3    H232127   1.179   6.007  14.845 -0.1706 -0.3327 -0.3716
 3546TIP3   OH232128   1.630   1.993   5.304 -0.8911 -0.3184  0.3578
 3546TIP3    H132129   1.691   1.992   5.231 -1.3346  0.0099 -0.0267
 3546TIP3    H232130   1.573   1.918   5.290 -0.0255 -1.1544  1.2058
 3547TIP3   OH232131   2.353   1.563  14.008 -0.0725  0.3625  0.1068
 3547TIP3    H132132   2.425   1.539  13.951 -1.1386 -0.6561 -0.8569
 3547TIP3    H232133   2.348   1.658  14.003 -0.1449  0.2853 -1.5030
 3548TIP3   OH232134   6.505   2.427  13.875  0.5463 -0.1216 -0.1728
 3548TIP3    H132135   6.493   2.355  13.813  1.7828 -0.3817 -0.1453
 3548TIP3    H232136   6.426   2.480  13.867 -0.0626 -1.0859 -0.7238
 3549TIP3   OH232137   6.798   3.725   2.461  0.3275 -0.4896 -0.0831
 3549TIP3    H132138   6.804   3.788   2.388  1.3944 -0.0276  0.3798
 3549TIP3    H232139   6.777   3.779   2.537 -1.8863 -1.1058 -0.2022
 3550TIP3   OH232140   3.733   3.706   4.737  0.0523  0.4358 -0.1323
 3550TIP3    H132141   3.775   3.766   4.798  1.7201 -0.3259 -0.4668
 3550TIP3    H232142   3.762   3.735   4.651  1.1227 -0.9687 -0.2859
 3551TIP3   OH232143   5.451   4.457   0.474 -0.2952  0.2061  0.1548
 3551TIP3    H132144   5.457   4.431   0.382  1.1516  1.7512 -0.2317
 3551TIP3    H232145   5.541   4.478   0.499 -0.7430  0.3481  1.7776
 3552TIP3   OH232146   0.909   3.280   2.548  0.2489 -0.1231 -0.2900
 3552TIP3    H132147   0.965   3.342   2.594  1.1093 -0.6499 -0.5927
 3552TIP3    H232148   0.832   3.331   2.523  0.9965  0.8618 -0.6544
 3553TIP3   OH232149   5.193   6.609   0.395  0.4177  0.4556 -0.0009
 3553TIP3    H132150   5.157   6.606   0.484 -1.2619 -1.1626 -0.6689
 3553TIP3    H232151   5.190   6.702   0.371 -1.2296  0.6586  0.8429
 3554TIP3   OH232152   5.449   5.074  13.457  0.2546  0.2686 -0.1252
 3554TIP3    H132153   5.382   5.008  13.478  2.1573 -1.6844  0.1233
 3554TIP3    H232154   5.486   5.099  13.541  0.1152  1.0816 -0.2943
 3555TIP3   OH232155   1.140   5.616   1.543 -0.1242 -0.2362 -0.3481
 3555TIP3    H132156   1.173   5.542   1.593 -1.5455  0.1256  1.1863
 3555TIP3    H232157   1.066   5.581   1.493 -0.7377  0.1018  0.3055
 3556TIP3   OH232158   6.548   2.617  17.054 -0.5121 -0.3960  0.4611
 3556TIP3    H132159   6.604   2.687  17.087  0.6927 -1.3194  0.4421
 3556TIP3    H232160   6.463   2.659  17.039  0.5140  1.3481 -0.7792
 3557TIP3   OH232161   4.117   0.365   3.710 -0.2837  0.3688 -0.4901
 3557TIP3    H132162   4.048   0.300   3.724 -0.5704  1.0080  1.3054
 3557TIP3    H232163   4.187   0.337   3.770 -1.1129  2.6583  1.7006
 3558TIP3   OH232164   2.107   2.396  11.281 -0.2504 -0.3125  0.2001
 3558TIP3    H132165   2.152   2.451  11.217  1.6103 -0.5332  1.2576
 3558TIP3    H232166   2.035   2.356  11.232 -0.7239  1.8374 -0.9751
 3559TIP3   OH232167   5.139   0.693  16.359  0.5866 -0.3349  0.1452
 3559TIP3    H132168   5.103   0.687  16.270 -0.0958 -2.3122  0.4947
 3559TIP3    H232169   5.126   0.605  16.395 -0.7706  0.8483  2.8044
 3560TIP3   OH232170   5.114   5.627   5.182 -0.1256  0.0813  0.1337
 3560TIP3    H132171   5.107   5.705   5.237 -1.9648 -0.3688  0.5981
 3560TIP3    H232172   5.163   5.564   5.236  0.1408  0.4405  0.3144
 3561TIP3   OH232173   3.186   0.149  16.082  0.2468  0.0020 -0.6794
 3561TIP3    H132174   3.276   0.182  16.091  0.4678 -0.0645 -2.3614
 3561TIP3    H232175   3.145   0.206  16.017 -1.2859  0.6726  0.8204
 3562TIP3   OH232176   0.617   5.813  13.253 -0.1442 -0.3674 -0.7129
 3562TIP3    H132177   0.609   5.878  13.183  1.4957 -1.4731 -2.0325
 3562TIP3    H232178   0.539   5.825  13.307 -0.8744  1.3261 -2.0564
 3563TIP3   OH232179   1.670   3.783  12.162  0.0097  0.3839 -0.5803
 3563TIP3    H132180   1.721   3.822  12.092 -0.2559 -0.5518 -1.3121
 3563TIP3    H232181   1.588   3.833  12.163  0.2059  0.7045 -0.6190
 3564TIP3   OH232182   2.486   4.830   2.998  1.0377  0.0177 -0.0009
 3564TIP3    H132183   2.455   4.740   3.001 -0.9528  0.6783  0.3481
 3564TIP3    H232184   2.572   4.827   3.039  1.7072 -1.9581 -1.3885
 3565TIP3   OH232185   6.227   3.522   2.593 -0.2578  0.2702 -0.2651
 3565TIP3    H132186   6.251   3.430   2.582 -1.6195  0.1809 -3.5445
 3565TIP3    H232187   6.295   3.570   2.545 -0.2745  0.9124  0.3313
 3566TIP3   OH232188   6.182   2.654   3.093  0.1744  0.4495  0.3598
 3566TIP3    H132189   6.273   2.627   3.084  0.2942  0.8094  0.4858
 3566TIP3    H232190   6.186   2.741   3.132 -0.1863  0.9192 -0.6262
 3567TIP3   OH232191   0.932   5.201   2.679 -0.6707 -0.1070  0.2255
 3567TIP3    H132192   0.977   5.144   2.617  0.4180  0.1672  0.7411
 3567TIP3    H232193   0.964   5.174   2.764 -0.7026  0.7799  0.5303
 3568TIP3   OH232194   4.903   6.807   1.674 -0.1183  0.3552  0.5362
 3568TIP3    H132195   4.989   6.831   1.640  0.1850  0.0031  1.0364
 3568TIP3    H232196   4.873   6.737   1.616  0.1300  0.1736  0.6240
 3569TIP3   OH232197   3.946   4.036   0.230  0.4384 -0.4854  0.2705
 3569TIP3    H132198   4.005   4.090   0.178  0.2616  0.5896  1.1467
 3569TIP3    H232199   3.899   3.982   0.166 -1.3938  2.3665 -0.9725
 3570TIP3   OH232200   3.694   1.564  16.523 -0.2453 -0.0022 -0.1716
 3570TIP3    H132201   3.726   1.635  16.467 -0.7260  0.3494 -0.0135
 3570TIP3    H232202   3.608   1.594  16.553 -0.2075 -0.4030  0.3578
 3571TIP3   OH232203   5.375   0.661   0.461 -0.2068 -0.2867  0.1823
 3571TIP3    H132204   5.427   0.665   0.541  3.0753  0.5326 -1.8048
 3571TIP3    H232205   5.426   0.606   0.402 -3.1750 -2.0034 -1.0393
 3572TIP3   OH232206   0.155   0.876   3.099  0.1230 -0.2759  0.3467
 3572TIP3    H132207   0.157   0.971   3.090 -0.4584 -0.2088  0.8398
 3572TIP3    H232208   0.187   0.859   3.188  5.6640 -0.9077 -1.4290
 3573TIP3   OH232209   0.367   1.768  12.029  0.2486  0.1408 -0.1273
 3573TIP3    H132210   0.283   1.733  12.000  0.3034 -0.4673  0.4183
 3573TIP3    H232211   0.391   1.832  11.963 -0.7768  0.5221 -0.1415
 3574TIP3   OH232212   6.178   0.293  16.870 -0.3013  0.1820 -0.0514
 3574TIP3    H132213   6.176   0.264  16.961 -0.2793  0.4687  0.0415
 3574TIP3    H232214   6.185   0.388  16.875 -1.2288  0.2817 -0.3443
 3575TIP3   OH232215   6.366   4.885  10.721 -0.1659  0.2793 -0.0802
 3575TIP3    H132216   6.302   4.933  10.773  1.2606  0.2979  1.7500
 3575TIP3    H232217   6.413   4.953  10.672 -1.6243  0.2463 -1.6298
 3576TIP3   OH232218   6.463   3.763  12.435  0.5678 -0.0943 -0.7447
 3576TIP3    H132219   6.411   3.695  12.477 -0.9489  2.1325  1.2883
 3576TIP3    H232220   6.435   3.844  12.477  0.8630  2.0900 -4.3264
 3577TIP3   OH232221   5.367   4.669  12.800  0.0417  0.2369 -1.0796
 3577TIP3    H132222   5.403   4.612  12.868 -2.5258 -0.2493 -0.0253
 3577TIP3    H232223   5.311   4.731  12.847 -1.0105  0.5439 -2.6460
 3578TIP3   OH232224   1.209   4.097  13.191 -0.1924  0.0407  0.1379
 3578TIP3    H132225   1.276   4.029  13.187 -0.4907 -0.1922 -1.5289
 3578TIP3    H232226   1.228   4.154  13.117 -2.3014 -0.5236 -0.9213
 3579TIP3   OH232227   1.849   0.002  12.361 -0.3743  0.3797 -0.6118
 3579TIP3    H132228   1.919   0.031  12.420  0.2324 -1.2158 -0.4839
 3579TIP3    H232229   1.888  -0.072  12.313 -1.7132 -0.0219 -1.1066
 3580TIP3   OH232230   4.848   6.607   1.458  0.1347 -0.2284 -0.2703
 3580TIP3    H132231   4.850   6.579   1.367 -2.5447  2.7626 -1.4634
 3580TIP3    H232232   4.776   6.557   1.497  0.2268 -0.3469 -0.2508
 3581TIP3   OH232233   6.700   5.659   2.928  0.6846 -0.5333  0.1211
 3581TIP3    H132234   6.652   5.729   2.972  4.8119  0.4493  3.7946
 3581TIP3    H232235   6.688   5.582   2.985  0.2849 -1.4143 -1.1086
 3582TIP3   OH232236   5.953   5.674  11.460 -0.2594  0.1028  0.4972
 3582TIP3    H132237   6.009   5.750  11.473 -0.7950  0.8624 -1.3465
 3582TIP3    H232238   5.957   5.657  11.366 -2.8436  0.0104  0.3303
 3583TIP3   OH232239   1.696   5.425   3.094  0.0892 -0.5607 -0.4718
 3583TIP3    H132240   1.628   5.492   3.083  0.4047 -0.4610 -2.1543
 3583TIP3    H232241   1.697   5.407   3.188 -2.4148 -0.7118 -0.4009
 3584TIP3   OH232242   0.967   4.534  16.118 -0.3436  0.8507  0.1749
 3584TIP3    H132243   0.900   4.509  16.182 -0.2240  0.0368 -0.0076
 3584TIP3    H232244   1.031   4.584  16.169  0.3462 -0.7750  0.9711
 3585TIP3   OH232245   3.083   4.476  14.916 -0.2162  0.1326 -0.5177
 3585TIP3    H132246   3.007   4.447  14.865 -1.3746 -0.4003  1.4156
 3585TIP3    H232247   3.053   4.556  14.959 -0.8792 -1.6861  2.7211
 3586TIP3   OH232248   6.795   0.393   0.552 -0.7323  0.1996 -0.7864
 3586TIP3    H132249   6.863   0.326   0.556 -2.6017 -1.7251  2.5935
 3586TIP3    H232250   6.725   0.354   0.499 -1.1456  0.1724 -0.2266
 3587TIP3   OH232251   2.988   4.554  16.823  0.3793  0.1116  0.2948
 3587TIP3    H132252   2.947   4.637  16.849  1.1396  0.3855  0.6425
 3587TIP3    H232253   2.935   4.487  16.865  0.1053  0.4495  0.4935
 3588TIP3   OH232254   6.285   0.283   6.280 -0.5157 -0.5224  0.3515
 3588TIP3    H132255   6.282   0.311   6.371  1.1694 -0.9815  0.5785
 3588TIP3    H232256   6.295   0.188   6.285 -2.4140 -0.8144 -0.3696
 3589TIP3   OH232257   3.908   2.976  13.048 -0.2116  0.3080 -0.6654
 3589TIP3    H132258   3.945   2.979  12.960  1.8218 -0.6311  0.0886
 3589TIP3    H232259   3.822   2.935  13.037  0.7866 -1.5851 -2.0292
 3590TIP3   OH232260   1.280   1.202  12.481 -0.1177  0.0026  0.1895
 3590TIP3    H132261   1.279   1.179  12.574 -1.1816 -0.5401  0.0513
 3590TIP3    H232262   1.342   1.275  12.475  1.7907 -1.4760  0.9450
 3591TIP3   OH232263   1.167   2.821   1.282  0.5736  0.0368  0.5089
 3591TIP3    H132264   1.147   2.871   1.362  0.9381  1.0094  0.0063
 3591TIP3    H232265   1.218   2.881   1.228 -1.6537  0.2667 -1.4954
 3592TIP3   OH232266   6.005   0.465   0.040 -0.1586 -0.2831 -0.0031
 3592TIP3    H132267   6.033   0.386   0.085  0.7895  0.3497  0.5550
 3592TIP3    H232268   5.913   0.450   0.019 -0.6403 -0.6039  2.1241
 3593TIP3   OH232269   0.324   5.604   5.000  0.0827  0.3474  0.9514
 3593TIP3    H132270   0.314   5.581   5.092 -1.1570 -1.0168  0.5196
 3593TIP3    H232271   0.381   5.537   4.964 -2.8080 -1.7643 -0.1179
 3594TIP3   OH232272   4.938   2.669  10.878 -1.0078 -0.0153  0.5036
 3594TIP3    H132273   5.010   2.638  10.932 -0.8093  1.0072  0.8654
 3594TIP3    H232274   4.940   2.764  10.889 -3.5436 -0.0376  2.0407
 3595TIP3   OH232275   5.287   0.824   5.893  0.8255  0.0665  0.1898
 3595TIP3    H132276   5.198   0.797   5.915  0.2188  0.2634 -1.7477
 3595TIP3    H232277   5.288   0.918   5.911  1.4495 -0.3469  2.5141
 3596TIP3   OH232278   0.604   3.920  16.555  0.3272  0.0983 -0.5798
 3596TIP3    H132279   0.620   3.860  16.482  1.0712  2.3120 -2.3562
 3596TIP3    H232280   0.521   3.963  16.533 -0.1599 -0.2038  0.6205
 3597TIP3   OH232281   6.614   0.008   3.819  0.0251 -0.0453 -0.0098
 3597TIP3    H132282   6.522   0.003   3.793  0.2264 -1.9974 -0.5379
 3597TIP3    H232283   6.661  -0.033   3.746  1.0394 -1.4626  1.3836
 3598TIP3   OH232284   2.170   3.327  16.631 -0.0682 -0.6262  0.1498
 3598TIP3    H132285   2.236   3.258  16.641  1.3901  0.7615  0.4613
 3598TIP3    H232286   2.180   3.381  16.710  1.1419  1.8140 -1.5636
 3599TIP3   OH232287   5.945   4.871   2.397  0.3646  0.6143 -0.2406
 3599TIP3    H132288   5.858   4.906   2.377 -0.2618 -0.7250  0.0472
 3599TIP3    H232289   5.977   4.926   2.469 -0.4902  0.7676  0.0330
 3600TIP3   OH232290   1.469   5.119   2.608  0.0558  0.1935 -0.1220
 3600TIP3    H132291   1.405   5.155   2.548  0.7837 -2.2518 -2.5653
 3600TIP3    H232292   1.553   5.156   2.580  0.6734 -2.3433 -2.0363
 3601TIP3   OH232293   0.387   0.601   0.639  0.2761 -1.1258 -0.0518
 3601TIP3    H132294   0.437   0.644   0.708 -0.7066 -0.0390  0.0008
 3601TIP3    H232295   0.298   0.636   0.647  0.2556 -0.5208 -2.2406
 3602TIP3   OH232296   3.827   6.503  14.453  0.0305 -0.1885 -0.4048
 3602TIP3    H132297   3.904   6.525  14.505 -0.8687  1.2366  0.3877
 3602TIP3    H232298   3.834   6.559  14.376 -1.5809  2.0415  0.9819
 3603TIP3   OH232299   2.096   1.029   3.713 -1.2697 -0.4159 -0.8420
 3603TIP3    H132300   2.055   0.965   3.772 -1.6935  0.0171 -0.6625
 3603TIP3    H232301   2.026   1.091   3.693 -0.6500  0.4606 -0.3604
 3604TIP3   OH232302   4.364   5.550  13.691  0.1186 -0.3563  0.4949
 3604TIP3    H132303   4.433   5.613  13.669 -1.8273  1.2576 -1.3424
 3604TIP3    H232304   4.376   5.535  13.785  0.9449  2.4643  0.9486
 3605TIP3   OH232305   0.944   1.933  12.780 -0.0773 -0.2840  0.2068
 3605TIP3    H132306   0.948   1.848  12.736 -1.5847 -1.0235  1.4189
 3605TIP3    H232307   0.976   1.916  12.869 -0.4208  0.3983  0.4695
 3606TIP3   OH232308   0.644   1.726   0.373 -0.3454 -0.2591 -0.1005
 3606TIP3    H132309   0.692   1.741   0.292 -0.0813  1.9386  0.4035
 3606TIP3    H232310   0.576   1.663   0.349  1.3116 -1.6447 -1.3779
 3607TIP3   OH232311   6.254   1.359  17.191  0.3228  0.1953  0.6439
 3607TIP3    H132312   6.237   1.373  17.284  1.4432  1.1771  0.7236
 3607TIP3    H232313   6.322   1.291  17.189 -0.3215 -0.4502  0.5035
 3608TIP3   OH232314   3.514   0.525   6.031 -0.0777 -0.6883 -0.7766
 3608TIP3    H132315   3.442   0.497   6.087 -1.1287  1.6919 -0.8271
 3608TIP3    H232316   3.593   0.493   6.076 -0.9617  0.0342  1.3998
 3609TIP3   OH232317   3.433   0.059   2.258  0.2619  0.4827  0.6721
 3609TIP3    H132318   3.352   0.009   2.268  0.7264 -0.2631  0.7291
 3609TIP3    H232319   3.502  -0.007   2.251  0.6553  1.0569 -1.4844
 3610TIP3   OH232320   5.868   1.673  16.630 -0.2819  0.1286  0.4883
 3610TIP3    H132321   5.809   1.598  16.637  0.6884 -0.6933  0.2246
 3610TIP3    H232322   5.901   1.687  16.719 -0.7654  0.5097  0.6125
 3611TIP3   OH232323   3.510   1.778  13.819  0.0548  0.6602  0.2327
 3611TIP3    H132324   3.457   1.841  13.868  1.2304  0.0887  2.3702
 3611TIP3    H232325   3.575   1.832  13.773 -0.0733  1.1233  0.5891
 3612TIP3   OH232326   2.144   2.066   2.988  1.3054  0.0757  0.2267
 3612TIP3    H132327   2.114   1.977   3.005  1.0446  0.4401  1.9455
 3612TIP3    H232328   2.063   2.116   2.971  1.1332  0.4972  2.0481
 3613TIP3   OH232329   1.072   5.320  12.407  0.5335  0.0617 -0.4096
 3613TIP3    H132330   1.131   5.299  12.335 -0.3871 -1.8631 -0.6814
 3613TIP3    H232331   0.989   5.340  12.365 -0.2835 -2.0403  0.0717
 3614TIP3   OH232332   2.691   0.385  15.078 -0.1255  0.1839 -0.1115
 3614TIP3    H132333   2.780   0.369  15.111 -0.0509 -2.1063 -1.2426
 3614TIP3    H232334   2.704   0.432  14.996  0.0497 -0.0649 -0.2285
 3615TIP3   OH232335   0.798   0.417  16.182 -0.1860 -1.0300 -0.4318
 3615TIP3    H132336   0.748   0.429  16.263 -2.4719 -0.0285 -1.8902
 3615TIP3    H232337   0.735   0.379  16.121  1.3572 -1.3420 -1.9025
 3616TIP3   OH232338   2.859   0.160  12.153  0.2707  0.0592  0.1954
 3616TIP3    H132339   2.925   0.091  12.149  1.4519  1.0073  1.8462
 3616TIP3    H232340   2.793   0.127  12.213 -0.3117 -0.5168 -0.7442
 3617TIP3   OH232341   3.153   4.985  10.540  0.0133 -0.2099 -0.7614
 3617TIP3    H132342   3.115   4.908  10.499 -0.9929  1.0063 -2.2431
 3617TIP3    H232343   3.111   4.990  10.626  1.3475 -2.1987  0.0841
 3618TIP3   OH232344   3.762   2.468  14.701 -0.4694  0.0394 -0.4854
 3618TIP3    H132345   3.752   2.430  14.788 -0.5793  0.9299 -0.1012
 3618TIP3    H232346   3.712   2.409  14.644 -0.0045 -0.8147 -0.0331
 3619TIP3   OH232347   2.849   6.398  10.981  0.7087  0.3805  0.5277
 3619TIP3    H132348   2.890   6.351  10.908 -1.2258 -0.1767 -0.2753
 3619TIP3    H232349   2.799   6.331  11.027 -0.5834  1.2860  0.4956
 3620TIP3   OH232350   3.417   1.976   2.931 -0.1046 -0.1907 -0.0280
 3620TIP3    H132351   3.485   1.949   2.869  1.8074  1.2226  1.3336
 3620TIP3    H232352   3.402   1.899   2.985 -0.0813 -0.7223 -0.7653
 3621TIP3   OH232353   4.359   3.855  10.228  0.8107 -0.0706 -0.7289
 3621TIP3    H132354   4.393   3.770  10.200  0.1536 -0.4732 -0.3610
 3621TIP3    H232355   4.265   3.840  10.239  0.8871  0.2939  0.7469
 3622TIP3   OH232356   0.594   4.516   4.381  0.0286 -0.2115 -0.6780
 3622TIP3    H132357   0.618   4.550   4.467 -0.3459 -0.9113 -0.2903
 3622TIP3    H232358   0.670   4.465   4.354  0.3936  0.5098 -1.0432
 3623TIP3   OH232359   1.601   6.402   1.425  0.4989 -0.5005  0.5812
 3623TIP3    H132360   1.601   6.455   1.345  0.3539 -1.5285 -0.1183
 3623TIP3    H232361   1.692   6.404   1.455  0.1815  1.5589  1.5526
 3624TIP3   OH232362   3.611   5.125  11.233  0.5035 -0.3171 -0.2624
 3624TIP3    H132363   3.573   5.158  11.151 -0.2972  2.4170  1.1099
 3624TIP3    H232364   3.703   5.151  11.229  0.1796  0.9884  0.2092
 3625TIP3   OH232365   1.533   3.797   2.283 -0.5878 -0.0817 -0.0850
 3625TIP3    H132366   1.490   3.882   2.298  0.4645  0.6225 -0.8976
 3625TIP3    H232367   1.620   3.820   2.249 -0.4727 -1.4989 -0.8076
 3626TIP3   OH232368   1.008   0.152  15.638 -0.0773  0.6680 -0.3055
 3626TIP3    H132369   1.095   0.190  15.653 -0.4448  1.6040 -0.5280
 3626TIP3    H232370   0.949   0.204  15.692 -0.2763 -1.1702  1.3776
 3627TIP3   OH232371   6.764   6.462   0.341  0.3082  0.3683  0.4893
 3627TIP3    H132372   6.771   6.557   0.350  1.2373  0.4303 -0.6016
 3627TIP3    H232373   6.804   6.443   0.256 -0.3777 -0.9400  0.4288
 3628TIP3   OH232374   1.213   0.979   6.775  0.4241 -0.6006 -0.3935
 3628TIP3    H132375   1.130   1.009   6.738  0.8871 -0.8720 -1.6984
 3628TIP3    H232376   1.208   0.883   6.769  1.3151 -0.5834 -1.5997
 3629TIP3   OH232377   0.024   4.490   0.096  0.5739 -0.2295  0.8494
 3629TIP3    H132378   0.024   4.467   0.189 -0.6264 -0.1861  0.8713
 3629TIP3    H232379   0.042   4.408   0.051  1.2513 -0.2323  1.1189
 3630TIP3   OH232380   5.324   5.455  12.920  0.5574 -0.1786 -0.0840
 3630TIP3    H132381   5.263   5.528  12.915 -0.1074 -0.7339 -0.1510
 3630TIP3    H232382   5.276   5.380  12.886  1.2456 -0.6471 -0.0551
 3631TIP3   OH232383   2.222   2.013  12.862  0.0764 -0.0940  0.8910
 3631TIP3    H132384   2.252   1.992  12.950  2.3828 -1.3459 -0.1113
 3631TIP3    H232385   2.188   1.931  12.827  0.6104  0.0120  0.0970
 3632TIP3   OH232386   1.457   4.647  15.144 -0.0283  0.3142  0.0650
 3632TIP3    H132387   1.551   4.631  15.133  0.2799 -0.5129  3.1356
 3632TIP3    H232388   1.415   4.578  15.093  1.0420 -0.1075 -0.2808
 3633TIP3   OH232389   0.112   4.113  14.588 -0.2109  0.1129  0.3395
 3633TIP3    H132390   0.136   4.046  14.524 -4.2025  0.3318 -1.7576
 3633TIP3    H232391   0.128   4.073  14.673  2.6643 -1.2900 -0.7349
 3634TIP3   OH232392   3.659   2.820  12.995 -0.1669  0.5813  0.5873
 3634TIP3    H132393   3.579   2.781  12.961  0.9055  0.1897 -1.6164
 3634TIP3    H232394   3.642   2.832  13.089 -1.5078 -2.7784  0.9092
 3635TIP3   OH232395   4.332   5.318   5.717  0.0399 -0.5807  0.2001
 3635TIP3    H132396   4.340   5.223   5.709  0.1441 -0.8852  2.9585
 3635TIP3    H232397   4.419   5.347   5.744 -0.3168  0.1209  0.6257
 3636TIP3   OH232398   1.384   5.602   4.956  0.3239  0.7120 -0.1338
 3636TIP3    H132399   1.435   5.585   4.876  0.6286 -0.5017  0.2922
 3636TIP3    H232400   1.412   5.533   5.016 -0.1471  1.4155  0.9122
 3637TIP3   OH232401   0.664   0.008   1.933 -0.0805  0.1418  0.1240
 3637TIP3    H132402   0.650   0.052   1.849 -3.4015  0.6430  0.7851
 3637TIP3    H232403   0.747   0.042   1.965  0.5087  1.1259 -2.2534
 3638TIP3   OH232404   5.066   0.966  11.554  0.7339  0.6261 -0.1547
 3638TIP3    H132405   5.120   0.890  11.576  1.9815  1.0046 -1.7136
 3638TIP3    H232406   4.999   0.968  11.622 -0.0608 -2.5223 -0.6863
 3639TIP3   OH232407   0.208   0.241   2.430  0.1862 -0.1780 -0.5744
 3639TIP3    H132408   0.203   0.151   2.400  1.2246  0.0275 -1.4529
 3639TIP3    H232409   0.290   0.245   2.479 -0.2393  0.1096  0.1297
 3640TIP3   OH232410   5.556   1.555  16.481  0.1855 -1.0766 -0.1426
 3640TIP3    H132411   5.608   1.563  16.561  0.7943  2.1817 -0.7359
 3640TIP3    H232412   5.617   1.520  16.416 -0.5900 -4.8245  0.8807
 3641TIP3   OH232413   5.568   5.454   3.277 -0.5939 -0.1922 -0.0054
 3641TIP3    H132414   5.606   5.417   3.198  0.1550 -0.0517  0.2815
 3641TIP3    H232415   5.591   5.547   3.273  0.1134 -0.3302  0.7570
 3642TIP3   OH232416   4.561   1.777   2.314 -0.1107  0.3464 -0.1670
 3642TIP3    H132417   4.609   1.823   2.383 -1.1194  0.6133  0.3757
 3642TIP3    H232418   4.478   1.824   2.306 -1.7438 -2.0300  1.2696
 3643TIP3   OH232419   4.585   3.790   1.090 -0.7090 -0.0351  0.0600
 3643TIP3    H132420   4.676   3.784   1.118 -1.1735  0.0123  1.6830
 3643TIP3    H232421   4.590   3.799   0.994  0.9591 -0.3241  0.0841
 3644TIP3   OH232422   3.962   6.117  17.155  0.1784 -0.4785 -0.2457
 3644TIP3    H132423   4.040   6.062  17.159  0.0406 -0.6672 -0.1320
 3644TIP3    H232424   3.991   6.197  17.111 -0.1448 -1.5058 -2.4340
 3645TIP3   OH232425   3.325   4.492  11.797 -0.3035  0.0374 -0.3667
 3645TIP3    H132426   3.348   4.436  11.871 -1.7830  0.8220  0.7383
 3645TIP3    H232427   3.292   4.432  11.730  2.7076 -0.8889 -1.1916
 3646TIP3   OH232428   3.641   2.426   4.716  0.0849 -0.4296  0.2079
 3646TIP3    H132429   3.556   2.419   4.760  0.4431  0.0774  1.0049
 3646TIP3    H232430   3.686   2.345   4.737  0.0628 -0.4032  0.3575
 3647TIP3   OH232431   3.813   4.328  16.610 -0.0193 -0.1278 -0.2256
 3647TIP3    H132432   3.851   4.307  16.695 -1.3464 -1.1964  0.1269
 3647TIP3    H232433   3.888   4.359  16.558  1.0048 -0.4852  0.9748
 3648TIP3   OH232434   6.556   2.097  15.713  0.5700 -0.3579  0.1113
 3648TIP3    H132435   6.472   2.059  15.688 -1.2641  1.9596  2.2094
 3648TIP3    H232436   6.589   2.137  15.632 -0.3763 -1.2137 -0.7326
 3649TIP3   OH232437   3.007   4.729   1.831 -0.4247 -0.2825  0.3847
 3649TIP3    H132438   3.042   4.774   1.754 -3.1574  1.7883  0.2101
 3649TIP3    H232439   3.048   4.642   1.829  0.8329  0.2712 -2.4710
 3650TIP3   OH232440   3.884   1.994  12.987  0.4949  0.1217 -0.2491
 3650TIP3    H132441   3.801   2.042  12.992  0.5571  0.2390 -0.3520
 3650TIP3    H232442   3.883   1.953  12.900  1.2473  1.3967 -0.8887
 3651TIP3   OH232443   4.948   1.054  11.809  0.1723 -0.1790  0.0844
 3651TIP3    H132444   4.935   1.016  11.896  1.5056  0.0903  0.4207
 3651TIP3    H232445   5.035   1.094  11.812  0.0722  0.2081 -1.2412
 3652TIP3   OH232446   5.323   4.964  15.501 -0.4735  0.6168  0.4767
 3652TIP3    H132447   5.337   5.045  15.550  1.1545 -0.3602  1.7360
 3652TIP3    H232448   5.230   4.965  15.478 -0.4836  2.8317  0.4456
 3653TIP3   OH232449   6.057   6.704  15.356 -0.4200  0.1502  0.0778
 3653TIP3    H132450   6.132   6.673  15.406 -0.7668 -0.0328  0.4892
 3653TIP3    H232451   6.020   6.625  15.317  0.5722  0.4194 -1.4981
 3654TIP3   OH232452   5.993   2.735   1.273 -0.0825 -0.1481  0.5573
 3654TIP3    H132453   5.985   2.743   1.178 -1.1978  0.2937  0.6804
 3654TIP3    H232454   6.020   2.823   1.302  0.1489 -0.2526  0.6611
 3655TIP3   OH232455   5.589   1.899  14.478 -0.6865  0.3394  0.2757
 3655TIP3    H132456   5.532   1.850  14.418  0.5373  1.5250 -2.0004
 3655TIP3    H232457   5.662   1.840  14.496 -0.6011  0.2926 -0.1933
 3656TIP3   OH232458   0.501   5.101   0.564  0.4015 -0.1852 -0.1409
 3656TIP3    H132459   0.547   5.033   0.614  3.8344  1.5471 -0.6847
 3656TIP3    H232460   0.456   5.153   0.631  0.9562 -0.6795  0.6370
 3657TIP3   OH232461   1.723   6.695   4.267  0.1710  0.5551  0.1806
 3657TIP3    H132462   1.683   6.627   4.213  1.5813  0.9330 -1.4273
 3657TIP3    H232463   1.759   6.648   4.342  0.6997 -0.4461 -0.6621
 3658TIP3   OH232464   1.105   3.775  14.083  0.1758  0.1605 -0.0182
 3658TIP3    H132465   1.177   3.815  14.034  0.3637 -1.1380 -0.8593
 3658TIP3    H232466   1.147   3.745  14.165  1.0125 -1.9390 -1.1321
 3659TIP3   OH232467   2.528   0.371  15.321  0.3831 -0.3067  0.2665
 3659TIP3    H132468   2.554   0.382  15.230  0.9321  0.1580  0.4762
 3659TIP3    H232469   2.610   0.374  15.371 -0.0673  1.8915  0.9989
 3660TIP3   OH232470   2.360   5.673   2.667 -0.5450  0.1158  0.0347
 3660TIP3    H132471   2.269   5.699   2.651  0.0258  1.5688 -1.1213
 3660TIP3    H232472   2.404   5.689   2.583  0.3204 -2.8459 -0.1996
 3661TIP3   OH232473   4.179   5.733  13.831 -0.5618  0.2365 -0.3310
 3661TIP3    H132474   4.245   5.665  13.844  0.1502  1.2064  1.3812
 3661TIP3    H232475   4.193   5.763  13.741  2.4535  1.5204  0.4451
 3662TIP3   OH232476   5.505   5.760   4.199  0.2458  0.4090  0.0770
 3662TIP3    H132477   5.540   5.671   4.189 -0.3929  0.0637  0.7562
 3662TIP3    H232478   5.499   5.793   4.109 -0.9368 -0.8234 -0.3446
 3663TIP3   OH232479   3.608   1.937  16.636  0.6847 -0.2934  0.1249
 3663TIP3    H132480   3.576   2.016  16.592 -0.4456 -0.4260  0.6780
 3663TIP3    H232481   3.567   1.938  16.722  1.1837 -1.1486  0.3947
 3664TIP3   OH232482   4.131   1.496   5.869  0.1761 -0.4287 -0.2093
 3664TIP3    H132483   4.138   1.566   5.934 -0.2668 -1.0930  0.5769
 3664TIP3    H232484   4.188   1.426   5.903  2.7399  0.4682 -2.2932
 3665TIP3   OH232485   4.414   1.981  17.082 -0.6207  0.1673 -0.4306
 3665TIP3    H132486   4.382   1.925  17.012  0.7934  0.2989 -1.2092
 3665TIP3    H232487   4.388   2.070  17.057 -0.0022  0.2300 -0.8768
 3666TIP3   OH232488   4.816   2.626  15.122 -0.3981  0.5160 -0.1405
 3666TIP3    H132489   4.824   2.713  15.162 -0.6176  2.1298 -3.2674
 3666TIP3    H232490   4.857   2.636  15.036 -2.5637 -1.7782 -1.5625
 3667TIP3   OH232491   3.153   1.288   2.177 -0.5918  0.3129  0.0651
 3667TIP3    H132492   3.210   1.273   2.252 -1.3198 -1.3165  0.3215
 3667TIP3    H232493   3.178   1.221   2.113 -1.5238  0.2234 -0.2247
 3668TIP3   OH232494   4.599   2.808   2.251 -0.2226  0.3201  0.1378
 3668TIP3    H132495   4.645   2.862   2.187  0.1622 -0.7125 -0.4878
 3668TIP3    H232496   4.605   2.857   2.333  0.1453  1.1942 -0.4013
 3669TIP3   OH232497   5.508   6.403   3.993 -0.0241  0.3150 -0.4765
 3669TIP3    H132498   5.484   6.474   4.053 -1.0949 -0.6768  0.3206
 3669TIP3    H232499   5.509   6.444   3.907 -1.7738  1.0696 -0.1794
 3670TIP3   OH232500   4.659   1.106  13.521  0.0686  0.2846 -0.2582
 3670TIP3    H132501   4.658   1.087  13.427 -0.7619 -1.3388  0.0499
 3670TIP3    H232502   4.750   1.089  13.547  0.1620  0.1679 -0.6525
 3671TIP3   OH232503   3.851   0.038  13.511 -0.4414  0.0101  0.2886
 3671TIP3    H132504   3.827  -0.054  13.507 -2.4181  0.5059 -0.4062
 3671TIP3    H232505   3.775   0.081  13.550  0.4629  1.3605  0.6401
 3672TIP3   OH232506   1.245   2.188   1.371  0.2097 -0.2795  0.2034
 3672TIP3    H132507   1.264   2.145   1.287 -2.7892 -0.5542 -0.4451
 3672TIP3    H232508   1.258   2.119   1.436  0.1591 -0.7742 -0.3010
 3673TIP3   OH232509   1.893   1.347  15.622 -0.0943  0.0758  0.1036
 3673TIP3    H132510   1.977   1.374  15.585 -0.1163 -1.9697 -1.6660
 3673TIP3    H232511   1.828   1.382  15.561 -0.4608  0.5846  0.7736
 3674TIP3   OH232512   0.677   4.560   3.648 -0.1189  0.3560 -0.1209
 3674TIP3    H132513   0.624   4.561   3.569 -1.7878 -0.2515  0.9236
 3674TIP3    H232514   0.766   4.578   3.618 -0.5340 -0.7569 -2.2396
 3675TIP3   OH232515   6.658   0.253  16.396 -0.3219  0.0704 -0.2821
 3675TIP3    H132516   6.630   0.239  16.306 -1.6175 -2.9701  0.4691
 3675TIP3    H232517   6.745   0.212  16.401 -0.0823  0.5792 -0.2369
 3676TIP3   OH232518   5.619   4.653   2.087  0.5116 -0.2074 -0.9791
 3676TIP3    H132519   5.640   4.741   2.117  0.9062 -0.8953  0.9380
 3676TIP3    H232520   5.579   4.665   2.001  2.8222  1.6596 -1.8987
 3677TIP3   OH232521   2.328   1.162  16.122  0.2495  0.2945  0.0446
 3677TIP3    H132522   2.350   1.095  16.057 -0.3855 -0.7235  0.8481
 3677TIP3    H232523   2.239   1.140  16.150 -0.2590  1.9089 -0.1756
 3678TIP3   OH232524   2.846   6.235   0.542 -0.0483  0.1944  0.2483
 3678TIP3    H132525   2.813   6.166   0.600 -2.6200  0.2286 -1.0523
 3678TIP3    H232526   2.812   6.316   0.579 -1.6764  0.2211 -1.1793
 3679TIP3   OH232527   1.362   6.342   1.560  0.8920 -0.0679  0.2567
 3679TIP3    H132528   1.303   6.410   1.528 -0.7474 -0.9712  1.2165
 3679TIP3    H232529   1.448   6.368   1.528 -0.1104  0.9258 -1.7877
 3680TIP3   OH232530   0.848   0.804   1.624  0.1852 -0.1191  0.3611
 3680TIP3    H132531   0.924   0.746   1.612  0.1975 -0.3337  1.4087
 3680TIP3    H232532   0.857   0.837   1.713  0.0382  1.3274 -0.1266
 3681TIP3   OH232533   0.415   5.727   5.940 -0.1604 -0.0385  0.2800
 3681TIP3    H132534   0.387   5.718   6.031  0.0246  1.0262  0.4555
 3681TIP3    H232535   0.471   5.804   5.940 -0.1005 -0.0726 -0.7272
 3682TIP3   OH232536   2.390   6.096  11.784 -0.0767  0.4906  0.0204
 3682TIP3    H132537   2.446   6.112  11.860 -0.3920  0.2670  0.2958
 3682TIP3    H232538   2.375   6.002  11.784  0.6024  0.3637 -0.7972
 3683TIP3   OH232539   4.889   1.828   5.174 -0.1159  0.5896 -0.4250
 3683TIP3    H132540   4.951   1.761   5.203 -0.1488  1.2322  1.2335
 3683TIP3    H232541   4.831   1.782   5.113 -0.1102 -0.8939  0.6297
 3684TIP3   OH232542   1.341   1.312  13.709  0.1335 -0.6757 -0.4754
 3684TIP3    H132543   1.251   1.298  13.679 -0.0823 -1.3800  0.4674
 3684TIP3    H232544   1.331   1.342  13.799  0.8767 -2.5483  0.2709
 3685TIP3   OH232545   1.462   5.555   3.074 -0.5736  0.8084  0.3844
 3685TIP3    H132546   1.407   5.534   3.149 -0.7296  0.9072  0.2967
 3685TIP3    H232547   1.467   5.651   3.073  0.2971  0.7820  0.9008
 3686TIP3   OH232548   4.711   0.198  13.921  0.3082  0.2036  0.4508
 3686TIP3    H132549   4.765   0.151  13.859  0.0295 -0.6919  0.8676
 3686TIP3    H232550   4.675   0.272  13.872 -0.3277 -0.7817 -0.6066
 3687TIP3   OH232551   3.349   3.453  10.563  0.1908  0.0633  0.3186
 3687TIP3    H132552   3.362   3.422  10.473 -2.8268 -1.6918  0.3406
 3687TIP3    H232553   3.354   3.548  10.557 -0.6704  0.0145 -1.8607
 3688TIP3   OH232554   4.359   4.767   1.841 -1.0394  0.2786 -0.0547
 3688TIP3    H132555   4.341   4.860   1.855 -1.4781  0.0433  1.1052
 3688TIP3    H232556   4.426   4.745   1.906  0.9006  0.3224 -1.9710
 3689TIP3   OH232557   3.467   2.693   5.693  0.1382 -0.3130  0.1382
 3689TIP3    H132558   3.532   2.763   5.689  0.0056 -0.0376  1.9083
 3689TIP3    H232559   3.479   2.644   5.612 -0.4678  2.3560 -1.6930
 3690TIP3   OH232560   3.007   6.444  15.566 -0.3881 -0.4441  0.0470
 3690TIP3    H132561   2.931   6.471  15.514 -0.2163 -0.9289 -0.4599
 3690TIP3    H232562   3.066   6.404  15.503  1.1808  1.6852  0.0517
 3691TIP3   OH232563   2.922   0.422   0.623  0.8065  0.3493 -0.2174
 3691TIP3    H132564   2.986   0.440   0.691  0.9198  0.7658 -0.4317
 3691TIP3    H232565   2.899   0.509   0.588 -1.7801  0.4960  1.5823
 3692TIP3   OH232566   6.230   3.499   5.266  0.5179  0.0604 -0.0612
 3692TIP3    H132567   6.275   3.564   5.319  1.2118 -0.5179  0.0662
 3692TIP3    H232568   6.172   3.453   5.327 -2.6530  2.8036 -0.7268
 3693TIP3   OH232569   1.858   2.972  15.389  0.8025  0.0180 -0.0006
 3693TIP3    H132570   1.944   2.960  15.430  1.2966 -1.6224 -1.4101
 3693TIP3    H232571   1.877   2.980  15.295 -0.6209 -1.1651 -0.4284
 3694TIP3   OH232572   1.367   3.298  16.812 -0.0071  0.4472 -0.0583
 3694TIP3    H132573   1.288   3.323  16.861  1.0943  2.6161  0.7444
 3694TIP3    H232574   1.431   3.365  16.834  1.7214 -0.5911 -1.6249
 3695TIP3   OH232575   2.583   3.442   3.848  0.4102 -0.1303 -0.4542
 3695TIP3    H132576   2.654   3.406   3.795  0.1504 -0.7463 -0.3858
 3695TIP3    H232577   2.540   3.366   3.885  0.9823  0.3135  1.1853
 3696TIP3   OH232578   2.934   2.888   4.115 -0.5945 -0.0682  0.2504
 3696TIP3    H132579   2.899   2.807   4.152 -0.4582 -0.9599 -1.4615
 3696TIP3    H232580   2.978   2.861   4.035  1.0021  1.4828  0.5303
 3697TIP3   OH232581   1.664   1.279   2.424 -0.2262  0.1037 -0.5132
 3697TIP3    H132582   1.633   1.194   2.392  0.9772 -0.2635 -0.7493
 3697TIP3    H232583   1.655   1.273   2.519 -0.7443 -0.0423 -0.5660
 3698TIP3   OH232584   3.162   6.204   1.317  0.9467  0.5443 -0.1105
 3698TIP3    H132585   3.242   6.251   1.295  1.1485  0.9917  1.4671
 3698TIP3    H232586   3.101   6.273   1.346  1.2008 -0.0877  2.0986
 3699TIP3   OH232587   3.510   4.546   1.552 -0.8773  0.3630  0.7209
 3699TIP3    H132588   3.598   4.530   1.518 -1.5436  1.3907 -1.6999
 3699TIP3    H232589   3.511   4.638   1.580 -1.5518  0.8302 -0.7094
 3700TIP3   OH232590   1.270   0.870   0.369 -0.2436  0.3682  0.5474
 3700TIP3    H132591   1.355   0.863   0.326  0.3201  0.8153  1.5654
 3700TIP3    H232592   1.238   0.957   0.344  1.0868  1.5823  2.7319
 3701TIP3   OH232593   6.166   6.743  15.098  0.2594  0.5323 -0.6703
 3701TIP3    H132594   6.163   6.709  15.187  0.9235 -1.3500 -1.3184
 3701TIP3    H232595   6.084   6.792  15.088 -0.7037 -0.7969  0.3806
 3702TIP3   OH232596   3.748   5.835   5.809 -0.0795  0.3355  0.0644
 3702TIP3    H132597   3.686   5.767   5.782  1.3166 -1.8794  2.0268
 3702TIP3    H232598   3.714   5.867   5.893  1.3904 -1.0209  1.2455
 3703TIP3   OH232599   6.352   5.197   4.171 -0.3060 -0.0241  0.1389
 3703TIP3    H132600   6.447   5.201   4.182 -0.4457 -0.0954  1.4785
 3703TIP3    H232601   6.317   5.257   4.237 -1.2228 -0.7823  0.3626
 3704TIP3   OH232602   1.154   1.292   6.301 -0.0600  0.3598  0.0208
 3704TIP3    H132603   1.088   1.359   6.288 -0.8776 -0.4393 -0.0498
 3704TIP3    H232604   1.180   1.300   6.392 -0.4235  0.5193  0.1091
 3705TIP3   OH232605   0.704   1.883  13.985 -0.0462  0.1825 -0.0866
 3705TIP3    H132606   0.779   1.831  13.957 -0.0790  0.8795 -1.5494
 3705TIP3    H232607   0.628   1.839  13.948 -0.2510  0.2044  0.2953
 3706TIP3   OH232608   2.132   2.854  15.101  0.0740  0.4547  0.0286
 3706TIP3    H132609   2.183   2.923  15.059  1.3210  0.0478  0.8273
 3706TIP3    H232610   2.042   2.871  15.074  0.7114  0.7157 -2.0822
 3707TIP3   OH232611   2.849   3.936   2.254 -0.3937  0.0662  0.4057
 3707TIP3    H132612   2.898   3.864   2.215 -0.7264  0.6884 -1.2590
 3707TIP3    H232613   2.778   3.953   2.193 -0.1194  2.0189  0.5509
 3708TIP3   OH232614   3.818   5.331  11.568  0.2917  0.4057  0.2855
 3708TIP3    H132615   3.892   5.367  11.617 -0.5370  0.2234  1.7316
 3708TIP3    H232616   3.813   5.239  11.596  0.4600 -0.0051 -0.9802
 3709TIP3   OH232617   4.870   6.680   5.241  0.0978  0.2109 -0.6169
 3709TIP3    H132618   4.857   6.774   5.243 -0.4864  0.1272 -0.0977
 3709TIP3    H232619   4.809   6.648   5.174 -1.3141 -0.0088  0.6988
 3710TIP3   OH232620   4.294   0.727  15.111 -0.0654 -0.0655 -0.1360
 3710TIP3    H132621   4.233   0.773  15.169 -0.7414 -0.4242 -0.5546
 3710TIP3    H232622   4.316   0.647  15.159 -1.5321 -0.9314 -0.8398
 3711TIP3   OH232623   5.932   4.329   5.435 -0.5727 -0.2388 -0.3199
 3711TIP3    H132624   5.861   4.377   5.477 -0.5688 -0.4780 -0.0333
 3711TIP3    H232625   5.889   4.270   5.375 -0.5108  1.3602 -2.0231
 3712TIP3   OH232626   4.167   2.918  16.737 -0.4314  0.1063 -0.2452
 3712TIP3    H132627   4.147   2.887  16.649  1.2662 -0.0796 -0.6058
 3712TIP3    H232628   4.244   2.974  16.725 -0.7132  0.7942  1.0090
 3713TIP3   OH232629   0.157   0.111  12.627 -0.0981  0.4068 -0.1267
 3713TIP3    H132630   0.181   0.095  12.536  1.3057 -1.4934  0.5116
 3713TIP3    H232631   0.207   0.046  12.677 -1.5561  0.7561  1.9255
 3714TIP3   OH232632   0.918   2.971   5.695 -0.2592 -0.4289 -0.1124
 3714TIP3    H132633   1.004   2.941   5.724  0.0007 -1.1615 -1.5469
 3714TIP3    H232634   0.894   3.039   5.758  2.8673  2.2495 -1.4541
 3715TIP3   OH232635   2.883   5.964   0.103  0.1684  0.7215  0.1412
 3715TIP3    H132636   2.817   6.027   0.076  0.2102  0.6088 -0.2282
 3715TIP3    H232637   2.951   6.017   0.144  0.4399  0.9770 -0.6184
 3716TIP3   OH232638   5.597   6.049   5.546 -0.8855 -0.2350  0.6515
 3716TIP3    H132639   5.643   6.032   5.627 -1.7712  1.6943  1.6194
 3716TIP3    H232640   5.650   6.007   5.478  0.0306 -1.6103  2.1637
 3717TIP3   OH232641   0.282   0.924   0.952 -0.7024 -0.1204  0.2293
 3717TIP3    H132642   0.190   0.902   0.968 -1.2396  1.5978 -0.2592
 3717TIP3    H232643   0.304   0.877   0.872 -0.6060 -1.8615  1.2066
 3718TIP3   OH232644   3.389   5.436  14.152 -0.2018  0.5143  0.3038
 3718TIP3    H132645   3.338   5.490  14.212 -1.4572  0.0707 -0.3452
 3718TIP3    H232646   3.479   5.445  14.184 -0.5771  1.7938  1.1031
 3719TIP3   OH232647   3.103   6.098   1.747  0.3096 -0.5124  0.1236
 3719TIP3    H132648   3.157   6.076   1.823 -0.3438  0.4791  0.9078
 3719TIP3    H232649   3.145   6.053   1.674 -0.4605 -3.5850  1.4140
 3720TIP3   OH232650   3.591   2.184  11.833  0.4791 -0.2441 -0.5229
 3720TIP3    H132651   3.564   2.254  11.893  0.6051 -0.8031  0.2090
 3720TIP3    H232652   3.529   2.188  11.761  0.0524  0.1682 -0.1414
 3721TIP3   OH232653   0.511   1.349  11.499  0.0114  0.6418 -0.0397
 3721TIP3    H132654   0.536   1.364  11.407  0.8352  2.5392  0.4408
 3721TIP3    H232655   0.505   1.437  11.537  0.6016 -0.1230  1.9632
 3722TIP3   OH232656   3.392   2.966   4.761 -0.2111  0.3765  0.3840
 3722TIP3    H132657   3.451   2.892   4.775  0.8945  1.1968  0.1592
 3722TIP3    H232658   3.345   2.975   4.844 -0.7569 -0.8954  0.2419
 3723TIP3   OH232659   0.345   5.747  14.624 -0.0739  0.6204 -0.2189
 3723TIP3    H132660   0.343   5.833  14.666  0.1118  1.1600 -1.2881
 3723TIP3    H232661   0.438   5.730  14.609 -0.0477 -0.1634  0.7629
 3724TIP3   OH232662   2.621   3.706  13.798 -0.8128  0.4480 -0.4354
 3724TIP3    H132663   2.687   3.689  13.731  0.6068  0.3758  0.9331
 3724TIP3    H232664   2.559   3.765  13.755 -0.5085 -0.3723 -2.1208
 3725TIP3   OH232665   3.077   0.976   1.930  0.3989  0.6688 -0.4170
 3725TIP3    H132666   3.066   1.010   1.841  0.2246  3.1194  0.4914
 3725TIP3    H232667   2.993   0.992   1.973  1.2836  1.9194  0.9344
 3726TIP3   OH232668   1.390   0.439   1.831 -0.3617 -0.2364  0.2921
 3726TIP3    H132669   1.364   0.397   1.913 -0.4058 -0.0155  0.3919
 3726TIP3    H232670   1.440   0.515   1.858  1.8431 -1.5431  0.0813
 3727TIP3   OH232671   0.021   3.185   6.354  0.1268 -0.3440  0.4970
 3727TIP3    H132672   0.062   3.124   6.293 -1.0932  0.1757 -0.9258
 3727TIP3    H232673   0.025   3.270   6.310 -1.8161 -0.1584  0.5801
 3728TIP3   OH232674   2.619   4.248   2.829 -0.0838  0.7639  0.4904
 3728TIP3    H132675   2.573   4.170   2.860  0.5899  0.5472  0.9897
 3728TIP3    H232676   2.591   4.259   2.739  0.8180 -0.8528 -0.0326
 3729TIP3   OH232677   4.471   3.172  11.528  0.1217 -0.5434  0.5582
 3729TIP3    H132678   4.513   3.220  11.599 -0.6714 -0.0087  0.6810
 3729TIP3    H232679   4.494   3.080  11.543 -1.2439 -0.6231  2.3493
 3730TIP3   OH232680   4.451   6.481   4.156 -0.5720 -0.1694  0.2621
 3730TIP3    H132681   4.467   6.549   4.091 -1.8296 -0.1368 -0.0404
 3730TIP3    H232682   4.476   6.399   4.113  0.6030  0.0519  0.5003
 3731TIP3   OH232683   2.604   2.248   0.134 -0.2572 -0.2615  0.0763
 3731TIP3    H132684   2.577   2.210   0.050 -1.2501  0.3233  0.1187
 3731TIP3    H232685   2.699   2.255   0.127 -0.3170 -0.2938 -0.9717
 3732TIP3   OH232686   2.719   0.143   0.421  0.4534  0.0689 -0.5273
 3732TIP3    H132687   2.668   0.205   0.369  0.1241  1.1220  1.0033
 3732TIP3    H232688   2.809   0.154   0.390  0.4467  1.5375 -0.0779
 3733TIP3   OH232689   4.855   6.376   4.078  0.4146 -0.2607  0.4673
 3733TIP3    H132690   4.837   6.438   4.149  0.5471 -1.1672  1.3169
 3733TIP3    H232691   4.894   6.300   4.122  0.1096 -1.0185 -0.5308
 3734TIP3   OH232692   2.970   1.238  16.434 -0.1390  0.1415 -0.1598
 3734TIP3    H132693   3.004   1.230  16.524 -0.0989  0.2644 -0.1640
 3734TIP3    H232694   2.933   1.326  16.430 -0.2397  0.0953 -0.2310
 3735TIP3   OH232695   3.026   2.963   4.587 -0.5227 -0.6867 -0.1502
 3735TIP3    H132696   3.066   2.876   4.579  0.9111 -0.1330  0.7170
 3735TIP3    H232697   2.954   2.951   4.650 -0.4080 -1.2599 -0.1231
 3736TIP3   OH232698   6.337   0.672  16.171  0.1727  0.3433 -0.5290
 3736TIP3    H132699   6.277   0.616  16.221  1.4516 -0.9564 -0.3846
 3736TIP3    H232700   6.283   0.745  16.143 -1.0319  0.1932  1.2020
 3737TIP3   OH232701   5.163   5.228  15.382 -0.4302  0.5217  0.2490
 3737TIP3    H132702   5.103   5.157  15.404  0.0801  0.1955  0.5981
 3737TIP3    H232703   5.121   5.272  15.308 -0.2061 -0.8638 -0.7571
 3738TIP3   OH232704   2.430   4.532   4.054 -0.4150 -0.1583 -0.9687
 3738TIP3    H132705   2.372   4.600   4.021 -1.4108 -0.3088  0.3907
 3738TIP3    H232706   2.396   4.451   4.015 -0.6042 -0.1394 -0.8461
 3739TIP3   OH232707   6.819   4.893  15.172  0.3104 -0.1655 -0.7991
 3739TIP3    H132708   6.910   4.866  15.186 -0.6871 -3.6757 -0.0883
 3739TIP3    H232709   6.815   4.915  15.079  1.8637  0.0944 -0.8419
 3740TIP3   OH232710   4.329   1.310   3.855  0.3194 -0.2736 -0.1097
 3740TIP3    H132711   4.424   1.308   3.872  0.7153  0.3955 -2.0307
 3740TIP3    H232712   4.316   1.388   3.800 -1.1901 -0.9179 -0.7153
 3741TIP3   OH232713   5.502   0.046   6.719  0.0324 -0.2132 -0.0931
 3741TIP3    H132714   5.544  -0.040   6.723  0.2037 -0.1692 -0.8891
 3741TIP3    H232715   5.416   0.029   6.682 -0.3071 -0.1735  0.6697
 3742TIP3   OH232716   2.999   2.927   0.657 -0.5001  0.2648 -0.1087
 3742TIP3    H132717   3.077   2.873   0.668 -1.5672 -1.9518 -2.5355
 3742TIP3    H232718   2.988   2.935   0.563 -1.4893  3.2559  0.1507
 3743TIP3   OH232719   6.021   3.004   2.013 -0.2230  0.6239  0.2292
 3743TIP3    H132720   6.053   2.929   1.963  0.2464  1.0492 -0.1258
 3743TIP3    H232721   6.092   3.068   2.008  0.2834  0.3056  2.3016
 3744TIP3   OH232722   5.295   6.128  11.434 -0.7130 -0.3873 -0.7050
 3744TIP3    H132723   5.348   6.162  11.506 -0.2310  0.8142 -1.5988
 3744TIP3    H232724   5.359   6.088  11.374 -1.1003 -1.2939 -0.5358
 3745TIP3   OH232725   1.446   1.809   4.226 -0.1143 -0.1054  0.7307
 3745TIP3    H132726   1.395   1.734   4.195 -0.7792  0.9620 -0.8663
 3745TIP3    H232727   1.390   1.884   4.212  1.2414  0.9206  0.5523
 3746TIP3   OH232728   1.463   0.553   4.336 -0.0668  0.3725 -0.3686
 3746TIP3    H132729   1.442   0.471   4.379  0.1179  0.0013 -0.9733
 3746TIP3    H232730   1.384   0.575   4.286 -0.3361  0.8792  0.2611
 3747TIP3   OH232731   5.988   4.759  10.594 -0.0847  0.4031 -0.1827
 3747TIP3    H132732   5.993   4.825  10.663 -0.2658  1.2100 -0.9099
 3747TIP3    H232733   5.907   4.780  10.547 -0.8277 -1.1599  0.3535
 3748TIP3   OH232734   1.279   0.503   0.633 -0.0256 -0.0781 -0.1236
 3748TIP3    H132735   1.192   0.543   0.633 -0.2008 -0.4564  0.1557
 3748TIP3    H232736   1.334   0.566   0.679  0.6366  1.8240 -3.2024
 3749TIP3   OH232737   4.889   0.277   5.629 -0.9499  0.1175  0.6354
 3749TIP3    H132738   4.901   0.212   5.698 -0.5222 -1.3097 -0.7342
 3749TIP3    H232739   4.814   0.245   5.579 -1.3458  1.2108  0.4856
 3750TIP3   OH232740   0.763   2.618  11.741 -0.1212  0.3229 -0.0729
 3750TIP3    H132741   0.809   2.653  11.664  0.1301  0.6212  0.2082
 3750TIP3    H232742   0.833   2.589  11.800 -0.2488  1.6317  0.7604
 3751TIP3   OH232743   3.629   3.291  11.582 -0.2615 -0.0600 -0.5971
 3751TIP3    H132744   3.587   3.377  11.589  0.8115  0.3747  0.8453
 3751TIP3    H232745   3.662   3.288  11.492 -0.6898  0.8447 -0.7992
 3752TIP3   OH232746   6.671   2.103   3.798  0.0414 -0.0303  0.3480
 3752TIP3    H132747   6.669   2.053   3.879  0.3384 -1.1776 -0.3362
 3752TIP3    H232748   6.691   2.039   3.730 -0.0612  0.9313 -0.6223
 3753TIP3   OH232749   3.413   3.892  13.920 -0.0306 -0.1746  0.3119
 3753TIP3    H132750   3.417   3.926  13.830  0.5498  1.4153  0.9019
 3753TIP3    H232751   3.476   3.820  13.921  0.7776  0.5033 -0.2884
 3754TIP3   OH232752   3.057   2.239   2.709  0.9539 -0.6698 -1.1074
 3754TIP3    H132753   3.145   2.213   2.684  1.1141 -0.7564 -0.4626
 3754TIP3    H232754   3.066   2.329   2.739  0.6376 -0.3172 -2.0136
 3755TIP3   OH232755   0.231   3.237  11.146  0.0184 -0.3725 -0.3250
 3755TIP3    H132756   0.323   3.262  11.154 -0.3775  1.6793 -1.4860
 3755TIP3    H232757   0.226   3.188  11.064  0.0530 -0.3767 -0.3248
 3756TIP3   OH232758   3.673   3.976   0.926 -0.8271  0.2132  0.6371
 3756TIP3    H132759   3.726   4.002   1.002 -0.7459  0.7740  0.3853
 3756TIP3    H232760   3.735   3.933   0.868 -0.7731  0.3128  0.6213
 3757TIP3   OH232761   6.765   1.050  14.197  0.5667 -0.8608  0.0243
 3757TIP3    H132762   6.801   1.009  14.119 -0.1038 -1.3082 -0.0600
 3757TIP3    H232763   6.670   1.036  14.189  0.4428 -0.3824  0.6150
 3758TIP3   OH232764   0.448   5.537  13.161 -0.3076  0.0747 -0.0305
 3758TIP3    H132765   0.542   5.554  13.162 -0.0573 -1.2418  0.5901
 3758TIP3    H232766   0.440   5.447  13.130 -1.3244 -0.0305  0.5098
 3759TIP3   OH232767   5.750   6.580  10.517  0.1676  0.5135 -0.0864
 3759TIP3    H132768   5.824   6.523  10.496  0.0981  0.1301  0.6720
 3759TIP3    H232769   5.786   6.669  10.512  0.3979  0.3887 -0.7957
 3760TIP3   OH232770   0.531   2.305  11.508 -0.0312 -0.0466 -0.1796
 3760TIP3    H132771   0.506   2.357  11.584 -1.7900  0.0764 -0.7948
 3760TIP3    H232772   0.557   2.369  11.443  0.3628 -0.0872 -0.0624
 3761TIP3   OH232773   4.386   2.182  11.267  0.1916  0.1738  0.4392
 3761TIP3    H132774   4.336   2.200  11.188 -1.8829  0.4464  1.7274
 3761TIP3    H232775   4.472   2.155  11.236  0.3094  2.7639 -1.8181
 3762TIP3   OH232776   4.203   6.428   2.036 -0.3480 -0.1432 -0.2863
 3762TIP3    H132777   4.255   6.509   2.039 -0.2629 -0.1850  2.6718
 3762TIP3    H232778   4.137   6.444   1.969 -0.1204  2.2652 -0.0324
 3763TIP3   OH232779   4.905   3.255  12.557 -0.2170  0.0644  0.3356
 3763TIP3    H132780   4.814   3.275  12.578 -0.3193  0.5065 -0.4858
 3763TIP3    H232781   4.955   3.289  12.631 -0.5630  1.5524 -0.0855
 3764TIP3   OH232782   2.283   4.597   1.824 -0.4153 -0.2242  0.5512
 3764TIP3    H132783   2.194   4.562   1.815 -0.7171  0.5828  0.3558
 3764TIP3    H232784   2.274   4.671   1.884  0.3841 -1.0592  1.7451
 3765TIP3   OH232785   3.219   1.712  14.950  0.3104 -0.3660  0.3561
 3765TIP3    H132786   3.168   1.724  14.870 -1.6987  1.5230  1.7662
 3765TIP3    H232787   3.231   1.801  14.984  1.2285 -1.0978  2.0696
 3766TIP3   OH232788   4.874   5.122  16.251  0.6139  0.1464  0.0636
 3766TIP3    H132789   4.924   5.183  16.198  1.4392  0.3941  1.0982
 3766TIP3    H232790   4.863   5.166  16.335  0.5881 -0.8291  0.5849
 3767TIP3   OH232791   0.975   2.455  11.556  0.2534  0.0616 -0.0108
 3767TIP3    H132792   0.913   2.513  11.511 -0.3646 -1.5792 -1.3794
 3767TIP3    H232793   0.967   2.478  11.648 -0.2409  1.8725 -0.4627
 3768TIP3   OH232794   1.170   0.207   5.654  0.0556  0.0589 -0.3596
 3768TIP3    H132795   1.118   0.225   5.576 -0.2328 -0.7360 -0.3587
 3768TIP3    H232796   1.141   0.273   5.717 -0.4115  0.0931 -0.6034
 3769TIP3   OH232797   1.863   0.168   6.599  0.5899  0.2269 -0.1468
 3769TIP3    H132798   1.773   0.141   6.616  0.2820  0.9235 -0.5931
 3769TIP3    H232799   1.872   0.252   6.645  1.0625  0.0833  0.0276
 3770TIP3   OH232800   6.710   2.865  15.175  0.3004  0.2241  0.0553
 3770TIP3    H132801   6.731   2.856  15.082  3.3076  1.0319  0.5284
 3770TIP3    H232802   6.771   2.805  15.218 -2.4150 -1.6887  1.5028
 3771TIP3   OH232803   4.472   6.509  14.516 -0.0711  0.1439  0.0694
 3771TIP3    H132804   4.561   6.473  14.509  0.9103  2.4145  0.2022
 3771TIP3    H232805   4.447   6.528  14.425  0.4220  1.4174  0.1931
 3772TIP3   OH232806   2.896   2.619  13.515 -0.2643  0.4363 -0.3143
 3772TIP3    H132807   2.864   2.678  13.446  1.4430 -0.6313 -2.1002
 3772TIP3    H232808   2.940   2.548  13.468 -0.9046 -1.5009  1.8217
 3773TIP3   OH232809   2.116   4.440  14.664 -0.0458  0.5706  0.2820
 3773TIP3    H132810   2.107   4.535  14.652 -0.7813  0.5131  0.3679
 3773TIP3    H232811   2.146   4.431  14.755  4.1540  0.9206 -0.8716
 3774TIP3   OH232812   6.486   4.564   4.996  0.1790  0.3372 -0.6136
 3774TIP3    H132813   6.426   4.589   4.926 -0.2834  1.8953  0.2927
 3774TIP3    H232814   6.526   4.647   5.024  0.9903 -0.3731  0.3885
 3775TIP3   OH232815   5.631   0.714  17.118  0.4122 -0.7862 -0.0764
 3775TIP3    H132816   5.644   0.650  17.188 -0.3461  0.0686  0.8835
 3775TIP3    H232817   5.639   0.799  17.162 -1.8622 -0.2230 -0.6416
 3776TIP3   OH232818   2.265   0.868  13.947  0.3130  0.3061  0.4137
 3776TIP3    H132819   2.170   0.880  13.950  0.1671 -0.7932  2.7506
 3776TIP3    H232820   2.279   0.776  13.970  1.9096 -0.0242 -1.5988
 3777TIP3   OH232821   1.615   5.437  13.699 -0.4186  0.6864 -0.6117
 3777TIP3    H132822   1.643   5.397  13.781 -0.0892 -0.2271 -1.1576
 3777TIP3    H232823   1.522   5.413  13.692 -0.3252  0.3657 -0.7403
 3778TIP3   OH232824   3.149   1.472   5.149  0.3518  0.3005  0.1961
 3778TIP3    H132825   3.170   1.382   5.125 -0.1820  0.2423 -0.0667
 3778TIP3    H232826   3.146   1.519   5.066 -0.7346  0.2643  0.2023
 3779TIP3   OH232827   4.198   6.609  10.604 -0.2106 -0.2165 -0.2883
 3779TIP3    H132828   4.152   6.691  10.585  1.4522  0.8671  0.2382
 3779TIP3    H232829   4.290   6.633  10.607  0.2273 -1.8983  0.9991
 3780TIP3   OH232830   2.680   4.361   1.110 -0.5946 -0.2303  0.0415
 3780TIP3    H132831   2.761   4.347   1.159 -0.4855 -1.6857 -0.5167
 3780TIP3    H232832   2.615   4.309   1.156 -0.7141 -0.8160 -0.7791
 3781TIP3   OH232833   2.432   2.934  12.523  0.3670 -0.1901 -0.1410
 3781TIP3    H132834   2.474   2.850  12.542  0.9407  0.1902  0.3028
 3781TIP3    H232835   2.438   2.983  12.605 -2.9171 -0.8976  0.6944
 3782TIP3   OH232836   3.856   6.510   2.557  0.0355 -0.3133 -0.1921
 3782TIP3    H132837   3.919   6.509   2.629 -0.5685 -0.9187  0.3599
 3782TIP3    H232838   3.905   6.480   2.481  0.6247  0.0845  0.0253
 3783TIP3   OH232839   3.480   0.076  16.626  0.1194  0.7153  0.1592
 3783TIP3    H132840   3.442  -0.011  16.637  0.0376  0.8168  0.6837
 3783TIP3    H232841   3.436   0.111  16.548  1.8399 -0.6066 -1.5165
 3784TIP3   OH232842   2.359   3.142  11.088 -0.0175  0.3521  0.0706
 3784TIP3    H132843   2.320   3.139  11.001 -0.6295  1.0027  0.3185
 3784TIP3    H232844   2.298   3.193  11.140 -0.4723 -1.3765  1.3071
 3785TIP3   OH232845   5.973   2.948   3.078 -0.3918  0.4939 -0.2583
 3785TIP3    H132846   5.967   2.877   3.014 -1.3999  0.2359  0.0963
 3785TIP3    H232847   6.040   2.918   3.140  0.0609  0.4111 -0.7821
 3786TIP3   OH232848   3.397   0.261   0.778 -0.9380 -0.0690  0.3897
 3786TIP3    H132849   3.417   0.346   0.818 -1.2620  1.4820 -2.4287
 3786TIP3    H232850   3.470   0.205   0.803 -0.4381  1.1818  1.9141
 3787TIP3   OH232851   2.405   0.098  13.699 -0.0388 -0.0763 -0.6407
 3787TIP3    H132852   2.319   0.056  13.691  0.5316 -1.4741  0.1880
 3787TIP3    H232853   2.393   0.184  13.659 -2.0577  0.1137  0.2425
 3788TIP3   OH232854   5.121   1.242  11.529 -0.2662  0.3796  0.4060
 3788TIP3    H132855   5.146   1.150  11.520 -1.0572 -0.0142  1.9977
 3788TIP3    H232856   5.026   1.242  11.531 -0.3490  1.4445 -1.3247
 3789TIP3   OH232857   0.377   1.924   1.527  0.5568 -0.7200  0.0395
 3789TIP3    H132858   0.429   1.894   1.452  0.3637  1.4017 -0.9995
 3789TIP3    H232859   0.289   1.938   1.491  0.3585 -0.0634  0.7558
 3790TIP3   OH232860   3.003   6.653  11.271 -0.0915  0.1104  0.1017
 3790TIP3    H132861   2.970   6.569  11.303 -1.2251 -0.1318 -1.6070
 3790TIP3    H232862   3.049   6.631  11.190  1.3565  0.9209  0.6513
 3791TIP3   OH232863   0.038   5.083   6.511 -0.1440 -0.4318  0.0714
 3791TIP3    H132864   0.001   4.995   6.507 -0.8149 -0.1319 -0.5638
 3791TIP3    H232865   0.057   5.097   6.604 -2.7761 -0.1635  0.6623
 3792TIP3   OH232866   6.000   1.335  11.245 -0.2427 -0.2715  0.1419
 3792TIP3    H132867   5.941   1.260  11.245  2.0758 -2.2386  1.0215
 3792TIP3    H232868   5.998   1.366  11.336 -2.3771  1.8573 -0.5303
 3793TIP3   OH232869   4.815   1.013  15.914  0.0518  0.1179 -0.8504
 3793TIP3    H132870   4.781   1.047  15.996  0.0437 -0.9262 -0.4054
 3793TIP3    H232871   4.892   0.962  15.939  1.3741  1.5949 -1.7287
 3794TIP3   OH232872   3.430   2.190  13.427 -0.2978  0.2749 -0.7052
 3794TIP3    H132873   3.355   2.248  13.442 -1.4766 -1.2905 -0.3164
 3794TIP3    H232874   3.453   2.157  13.514  1.9924  2.0327 -0.5643
 3795TIP3   OH232875   6.257   2.958   1.029  0.2536  0.1904  0.3483
 3795TIP3    H132876   6.224   3.047   1.046  2.0736  0.7471  1.2566
 3795TIP3    H232877   6.341   2.973   0.985  1.2835 -1.0056  1.7961
 3796TIP3   OH232878   6.050   3.107  17.034 -0.0220 -0.2209 -0.0815
 3796TIP3    H132879   6.036   3.169  16.962 -0.7717 -0.8857 -0.5227
 3796TIP3    H232880   6.047   3.021  16.993 -0.0714 -0.5984  0.6938
 3797TIP3   OH232881   5.559   2.572  17.219  0.3808 -0.2332  0.6305
 3797TIP3    H132882   5.511   2.490  17.211 -0.2820  0.0084  1.7639
 3797TIP3    H232883   5.651   2.547  17.219  0.2106 -0.8794  0.0436
 3798TIP3   OH232884   2.136   0.327   0.700 -0.1415  0.3716  0.2683
 3798TIP3    H132885   2.205   0.266   0.729 -0.6368  0.2028  1.1195
 3798TIP3    H232886   2.071   0.271   0.658 -0.5650  0.3131  0.9913
 3799TIP3   OH232887   5.034   0.731  16.751  0.1551 -0.2637 -0.4770
 3799TIP3    H132888   5.076   0.809  16.715  1.6199 -0.1259  1.3525
 3799TIP3    H232889   4.944   0.757  16.767  0.9080  1.4972  1.2488
 3800TIP3   OH232890   3.208   0.844  11.517  0.4318 -0.2518 -0.2939
 3800TIP3    H132891   3.137   0.782  11.534  1.7473 -1.3613  1.5493
 3800TIP3    H232892   3.266   0.796  11.457  0.5064 -0.0575 -0.3763
 3801TIP3   OH232893   2.537   5.225  16.506 -0.0455 -0.3834 -0.4573
 3801TIP3    H132894   2.604   5.157  16.512  0.8220  0.3352 -1.6564
 3801TIP3    H232895   2.527   5.257  16.595  0.0860 -1.5459 -0.0077
 3802TIP3   OH232896   2.724   4.258  13.166  0.2015 -0.1644  0.7077
 3802TIP3    H132897   2.692   4.330  13.112 -0.1601  0.1574  1.3442
 3802TIP3    H232898   2.766   4.302  13.240 -0.3735 -0.6173  1.2980
 3803TIP3   OH232899   5.567   2.288   5.785  0.0385  0.0279 -0.2848
 3803TIP3    H132900   5.543   2.372   5.825  0.3781  1.2600 -2.4913
 3803TIP3    H232901   5.662   2.284   5.793  0.1602  0.5094 -1.3010
 3804TIP3   OH232902   0.300   4.594   5.992 -0.1923 -0.4402  0.0679
 3804TIP3    H132903   0.306   4.557   5.904 -2.0292  1.2419 -0.8550
 3804TIP3    H232904   0.217   4.642   5.992 -1.2598 -1.9443  3.3387
 3805TIP3   OH232905   0.984   5.158   3.583  0.1317 -0.2705 -0.0517
 3805TIP3    H132906   0.948   5.241   3.551 -0.1876 -0.8008 -1.1203
 3805TIP3    H232907   0.996   5.105   3.504  2.2935 -0.5094  0.3865
 3806TIP3   OH232908   3.686   4.431   4.681  0.4002  0.0901 -0.1065
 3806TIP3    H132909   3.655   4.419   4.771  1.0396  0.4295  0.1673
 3806TIP3    H232910   3.775   4.464   4.691  0.9057 -0.9919 -0.8793
 3807TIP3   OH232911   5.493   3.171  16.237  0.4665  0.5227 -0.0129
 3807TIP3    H132912   5.460   3.122  16.312 -0.1235  0.8152 -0.0793
 3807TIP3    H232913   5.554   3.110  16.194 -1.1434 -0.6206 -0.7862
 3808TIP3   OH232914   3.423   2.567   0.628 -0.0653  0.2710  0.3398
 3808TIP3    H132915   3.364   2.617   0.573  0.2615 -0.3524 -0.5996
 3808TIP3    H232916   3.505   2.563   0.578  0.0401 -0.8386  0.5667
 3809TIP3   OH232917   5.708   3.751   5.423 -0.3838  0.1957 -0.3694
 3809TIP3    H132918   5.794   3.785   5.446 -1.3634  1.7283  1.2789
 3809TIP3    H232919   5.697   3.776   5.331 -0.1886  2.6118  0.1909
 3810TIP3   OH232920   5.483   0.509   1.307 -0.8437 -0.4357  0.5198
 3810TIP3    H132921   5.473   0.500   1.213  0.2284  2.3291  0.0563
 3810TIP3    H232922   5.574   0.484   1.324 -0.9724 -0.7179  0.8167
 3811TIP3   OH232923   2.599   5.149  11.428 -0.6321  0.0662  0.0276
 3811TIP3    H132924   2.657   5.149  11.351  0.4898 -0.9910  0.8318
 3811TIP3    H232925   2.654   5.181  11.499 -1.1077 -0.7116  0.7584
 3812TIP3   OH232926   5.578   1.510   0.398 -0.0948  0.0946  0.3096
 3812TIP3    H132927   5.544   1.600   0.402  0.6208  0.4444 -0.8309
 3812TIP3    H232928   5.514   1.464   0.344 -0.3216 -0.0224  0.6732
 3813TIP3   OH232929   1.127   3.171  13.230 -0.3900  0.0755 -0.6042
 3813TIP3    H132930   1.070   3.233  13.276 -1.2390 -1.1331  0.0262
 3813TIP3    H232931   1.118   3.089  13.278  2.1032 -0.1291 -0.3183
 3814TIP3   OH232932   5.030   0.335  12.776 -0.4799  0.6398 -0.2501
 3814TIP3    H132933   5.094   0.402  12.801 -0.5436  0.8918 -0.7460
 3814TIP3    H232934   5.041   0.324  12.681  0.4701 -1.0505  0.0174
 3815TIP3   OH232935   0.278   4.019   2.395 -0.3991 -0.0452 -0.1950
 3815TIP3    H132936   0.214   4.088   2.375  0.4468  0.9931  0.5590
 3815TIP3    H232937   0.275   3.961   2.320 -1.6911  0.3951 -0.5130
 3816TIP3   OH232938   3.756   2.910  16.115  0.4157  0.4593 -0.2293
 3816TIP3    H132939   3.713   2.877  16.036  0.3832  0.0852 -0.0602
 3816TIP3    H232940   3.788   2.997  16.091 -3.1109  2.1333  0.5558
 3817TIP3   OH232941   2.511   6.793  12.889  0.9971 -0.1084  0.4213
 3817TIP3    H132942   2.437   6.851  12.906  0.8934 -0.2170  0.3463
 3817TIP3    H232943   2.519   6.741  12.969  1.8298  0.7995  0.9453
 3818TIP3   OH232944   2.949   0.690  11.349 -0.5000 -0.4260 -0.5194
 3818TIP3    H132945   3.019   0.654  11.295  1.8108  3.9301 -0.9140
 3818TIP3    H232946   2.980   0.681  11.439 -1.0814 -1.5060 -0.4162
 3819TIP3   OH232947   1.799   5.678  15.527  0.0849 -0.9744  0.1024
 3819TIP3    H132948   1.767   5.707  15.441  1.4306 -3.8199 -1.4959
 3819TIP3    H232949   1.722   5.680  15.583 -1.2083 -0.5484 -1.6008
 3820TIP3   OH232950   6.524   3.292  15.285 -0.1179  0.0097 -0.2045
 3820TIP3    H132951   6.524   3.207  15.329 -0.0760 -0.0634 -0.3477
 3820TIP3    H232952   6.572   3.278  15.204  1.6022  0.6407  0.6674
 3821TIP3   OH232953   0.269   6.801   0.460 -0.1306 -0.3133  0.4874
 3821TIP3    H132954   0.178   6.783   0.439 -0.4400  1.6841 -0.1038
 3821TIP3    H232955   0.288   6.885   0.417  2.1500 -0.9368  0.1018
 3822TIP3   OH232956   2.720   5.907  16.940 -0.3374 -0.7117 -0.7126
 3822TIP3    H132957   2.727   5.824  16.987  0.4661  0.0573  0.6207
 3822TIP3    H232958   2.809   5.944  16.945 -0.9128  0.6892 -0.3323
 3823TIP3   OH232959   1.647   2.985   0.522 -0.6495 -0.4487  0.2401
 3823TIP3    H132960   1.673   2.992   0.613  0.1272 -1.3875  0.1066
 3823TIP3    H232961   1.717   2.934   0.480  0.5383  2.3889 -1.5232
 3824TIP3   OH232962   1.711   2.959  13.414  0.0400  0.2147  0.4058
 3824TIP3    H132963   1.670   2.938  13.498 -1.3971 -1.9342 -0.7624
 3824TIP3    H232964   1.657   3.029  13.378  0.7229  1.2210  1.2533
 3825TIP3   OH232965   3.777   3.555   5.395 -0.4551  0.3464  0.3997
 3825TIP3    H132966   3.762   3.510   5.312 -1.9954  2.1496 -0.3861
 3825TIP3    H232967   3.720   3.511   5.458 -0.6836  0.1391  0.0499
 3826TIP3   OH232968   5.282   6.404   2.916  0.6093  0.2397 -0.3567
 3826TIP3    H132969   5.275   6.499   2.926 -0.2060  0.0998  0.5059
 3826TIP3    H232970   5.301   6.392   2.823  1.0381  1.2555 -0.4236
 3827TIP3   OH232971   4.054   5.771  15.486  0.6195  0.4421  0.1239
 3827TIP3    H132972   4.029   5.695  15.538  1.0622  0.1078 -0.1437
 3827TIP3    H232973   3.999   5.842  15.519 -0.4632 -0.1999 -0.2370
 3828TIP3   OH232974   5.424   4.718  15.382 -0.0461  0.4763  0.3069
 3828TIP3    H132975   5.409   4.800  15.431  0.4988  1.3797 -0.9792
 3828TIP3    H232976   5.349   4.711  15.324 -0.6658 -0.5680  1.2058
 3829TIP3   OH232977   3.370   5.349   3.418 -0.8164  0.3885  0.1319
 3829TIP3    H132978   3.400   5.430   3.460 -2.1573  0.6545  0.6252
 3829TIP3    H232979   3.337   5.378   3.333  1.6187 -0.1072 -1.0583
 3830TIP3   OH232980   6.073   0.965  12.611  0.2032 -0.9356  0.5632
 3830TIP3    H132981   6.121   0.883  12.618 -1.3218 -2.1190 -1.5153
 3830TIP3    H232982   5.981   0.938  12.605 -0.3073  0.8602 -0.5751
 3831TIP3   OH232983   0.270   4.731  13.970  0.0629  0.0798 -0.1572
 3831TIP3    H132984   0.235   4.768  13.889  1.4979  1.0058 -0.3813
 3831TIP3    H232985   0.206   4.758  14.037 -0.7041  0.0122 -0.8419
 3832TIP3   OH232986   0.831   0.127  14.767 -0.3431 -0.5555 -0.0399
 3832TIP3    H132987   0.789   0.206  14.733  0.7783 -0.6426 -1.7432
 3832TIP3    H232988   0.923   0.136  14.742  0.7714 -0.3392  3.6027
 3833TIP3   OH232989   0.052   5.155  13.948  0.2764  0.0931  0.2388
 3833TIP3    H132990   0.121   5.219  13.963 -0.7595  1.3210 -0.0641
 3833TIP3    H232991  -0.029   5.205  13.953 -0.4790 -0.5982 -2.8604
 3834TIP3   OH232992   5.537   2.295  12.389  0.3152  0.5324 -0.1539
 3834TIP3    H132993   5.449   2.313  12.357  0.7768  2.2981 -0.5471
 3834TIP3    H232994   5.566   2.219  12.339 -0.6692  0.4687 -0.6402
 3835TIP3   OH232995   2.548   5.532   4.995 -0.3324  0.0651 -0.1709
 3835TIP3    H132996   2.461   5.558   4.965 -0.6899 -1.0859 -0.1995
 3835TIP3    H232997   2.559   5.575   5.079 -1.2853 -0.4198  0.2183
 3836TIP3   OH232998   6.550   3.632  17.113  0.2257 -0.6450  0.6348
 3836TIP3    H132999   6.628   3.603  17.065 -0.5861 -0.0540 -1.1298
 3836TIP3    H233000   6.544   3.572  17.187  1.2005 -1.9980 -0.3270
 3837TIP3   OH233001   0.052   4.719   6.048 -0.1380  0.1487  0.0404
 3837TIP3    H133002  -0.032   4.685   6.079  1.2956 -3.6946  0.2104
 3837TIP3    H233003   0.079   4.781   6.117 -2.3876  0.8946  0.3406
 3838TIP3   OH233004   5.599   0.567   5.065  0.2919 -0.5262  0.6677
 3838TIP3    H133005   5.531   0.499   5.061  0.3840 -0.6218  0.7061
 3838TIP3    H233006   5.557   0.640   5.109  0.8506 -1.3374  2.6361
 3839TIP3   OH233007   2.746   2.881   2.440 -0.1561 -0.1623 -0.4125
 3839TIP3    H133008   2.686   2.943   2.398 -0.0909  0.8714  0.9485
 3839TIP3    H233009   2.690   2.808   2.467 -0.3684 -0.3423 -1.2994
 3840TIP3   OH233010   3.307   5.785  17.099  0.6558 -0.4538 -0.0583
 3840TIP3    H133011   3.240   5.847  17.127  0.4950  0.5925 -2.4982
 3840TIP3    H233012   3.262   5.700  17.097  0.2916 -0.3061  1.3006
 3841TIP3   OH233013   6.019   1.480   0.598  0.1741  0.1518 -0.1264
 3841TIP3    H133014   6.031   1.393   0.561  2.1889 -0.0134  0.7756
 3841TIP3    H233015   5.980   1.531   0.528 -1.0294 -1.4580 -0.6785
 3842TIP3   OH233016   4.061   1.720  12.660 -0.3795 -0.1598  0.2231
 3842TIP3    H133017   4.060   1.814  12.680 -2.3279 -0.2189  0.6029
 3842TIP3    H233018   4.022   1.679  12.737 -3.1024 -0.8924 -1.4220
 3843TIP3   OH233019   1.048   1.841   4.151  0.5630 -0.1939 -0.1511
 3843TIP3    H133020   1.119   1.777   4.156  0.1894 -0.5798  0.2716
 3843TIP3    H233021   1.014   1.831   4.062  2.7393  1.8557 -1.3457
 3844TIP3   OH233022   1.652   4.505  13.614  0.1867 -0.4758 -0.3353
 3844TIP3    H133023   1.675   4.451  13.538  1.4786  0.3607 -0.5722
 3844TIP3    H233024   1.735   4.514  13.663 -0.5072 -0.5725  0.9109
 3845TIP3   OH233025   4.828   0.344  10.881  0.1390  0.3063  0.3243
 3845TIP3    H133026   4.817   0.249  10.881 -0.2008  0.2881 -2.0878
 3845TIP3    H233027   4.782   0.374  10.803  1.4594  2.2937  0.2222
 3846TIP3   OH233028   0.329   1.312   3.207  0.1607  0.1780 -0.0261
 3846TIP3    H133029   0.266   1.280   3.272 -0.9639  0.0911 -1.1221
 3846TIP3    H233030   0.414   1.308   3.252 -0.3958 -1.1746  0.9838
 3847TIP3   OH233031   4.591   5.749  11.494  0.0925  0.2412 -0.2322
 3847TIP3    H133032   4.555   5.663  11.472  0.8653  0.1522 -1.2094
 3847TIP3    H233033   4.653   5.768  11.424  2.0800  0.3318  1.4315
 3848TIP3   OH233034   5.229   6.067  12.122  0.0438  0.0951  0.6653
 3848TIP3    H133035   5.200   6.126  12.053  0.1774 -0.7358 -0.1050
 3848TIP3    H233036   5.219   5.979  12.086  0.6004 -0.3333  1.5092
 3849TIP3   OH233037   6.058   4.587   1.609  0.3239  0.1327  0.0316
 3849TIP3    H133038   6.022   4.664   1.565  2.3388 -0.0539 -2.1770
 3849TIP3    H233039   6.018   4.513   1.564  0.6304 -0.0725  0.0897
 3850TIP3   OH233040   4.912   5.797  14.901  0.2796 -0.2057  0.4814
 3850TIP3    H133041   5.003   5.771  14.913 -0.0228 -2.2384 -0.9836
 3850TIP3    H233042   4.916   5.877  14.848  1.2331 -0.7744 -0.3440
 3851TIP3   OH233043   4.378   5.619  14.211  0.4942  0.2100 -0.3900
 3851TIP3    H133044   4.335   5.542  14.249  0.7121 -0.9679 -2.3323
 3851TIP3    H233045   4.471   5.608  14.232  0.5037  0.0275 -0.5261
 3852TIP3   OH233046   0.572   5.135   4.468 -0.3272  0.2485 -0.7910
 3852TIP3    H133047   0.574   5.164   4.559  0.1197 -1.6941 -0.1232
 3852TIP3    H233048   0.650   5.173   4.429 -0.2137  0.6246 -0.2121
 3853TIP3   OH233049   1.947   6.353  14.762 -0.0919  0.6965  0.3872
 3853TIP3    H133050   1.968   6.262  14.785 -0.2838  0.8942  1.3673
 3853TIP3    H233051   1.941   6.352  14.666  0.1772 -0.2651  0.3662
 3854TIP3   OH233052   6.691   1.933   4.012 -0.1042 -0.0527  0.3864
 3854TIP3    H133053   6.782   1.963   4.009 -0.3696  0.7388 -0.1801
 3854TIP3    H233054   6.695   1.848   4.055  0.7532  0.5363  1.5274
 3855TIP3   OH233055   4.172   6.709   0.149  0.2186 -0.0039  0.6198
 3855TIP3    H133056   4.192   6.782   0.207 -0.9749  0.1207  0.8864
 3855TIP3    H233057   4.124   6.647   0.204 -0.2907 -0.2087 -0.0445
 3856TIP3   OH233058   6.778   5.891   0.473 -0.1145  0.1083  0.0750
 3856TIP3    H133059   6.871   5.909   0.481  0.0932 -0.4831 -0.8888
 3856TIP3    H233060   6.757   5.913   0.382 -0.6111 -1.0420 -0.1062
 3857TIP3   OH233061   4.578   1.100  14.408 -0.2342 -0.0327  0.2734
 3857TIP3    H133062   4.578   1.151  14.327 -2.1182 -0.1511  0.1621
 3857TIP3    H233063   4.568   1.164  14.478  1.6440  0.0960  0.4949
 3858TIP3   OH233064   5.318   0.218   4.178  0.5495 -0.0249 -0.2530
 3858TIP3    H133065   5.404   0.207   4.220  2.2990  2.0219 -3.0120
 3858TIP3    H233066   5.313   0.147   4.115 -1.1089 -1.7571  1.6617
 3859TIP3   OH233067   5.897   1.329  15.185 -0.2362 -0.0276  0.1044
 3859TIP3    H133068   5.843   1.388  15.239  1.5573  1.4597  0.3712
 3859TIP3    H233069   5.967   1.301  15.244 -0.7897 -2.1063 -0.1714
 3860TIP3   OH233070   1.892   2.933   4.310 -0.2128 -0.0935  0.4224
 3860TIP3    H133071   1.819   2.978   4.352 -0.5838  0.6430 -0.9335
 3860TIP3    H233072   1.962   2.934   4.375 -0.9700  0.4312  1.2431
 3861TIP3   OH233073   1.601   3.531  14.185 -0.5008 -0.2138  0.4936
 3861TIP3    H133074   1.660   3.591  14.231  0.9692 -0.1070 -1.4199
 3861TIP3    H233075   1.657   3.457  14.161 -1.6509 -1.0796  0.4332
 3862TIP3   OH233076   0.628   0.290  14.051  0.2793  0.1688  0.5846
 3862TIP3    H133077   0.556   0.329  14.101  0.3673  0.1419  0.7318
 3862TIP3    H233078   0.586   0.255  13.972  0.5491  3.0972 -1.0300
 3863TIP3   OH233079   0.170   3.470   4.283 -0.4064  0.1084 -0.1520
 3863TIP3    H133080   0.221   3.416   4.222  0.5552 -1.9311  2.2890
 3863TIP3    H233081   0.236   3.510   4.339 -1.3358  0.5614  0.6295
 3864TIP3   OH233082   5.025   4.945   5.354 -0.0315  0.4528  0.0930
 3864TIP3    H133083   4.936   4.924   5.326  0.5807 -0.4545 -1.2893
 3864TIP3    H233084   5.051   5.019   5.299  0.7352 -0.5308 -0.9150
 3865TIP3   OH233085   3.494   6.166  16.227 -0.2469 -0.8059 -0.0664
 3865TIP3    H133086   3.468   6.255  16.206  0.1719 -1.2049 -2.6884
 3865TIP3    H233087   3.423   6.111  16.192  0.1665 -1.5516  0.2373
 3866TIP3   OH233088   2.215   4.556  11.576 -0.8036 -0.0095 -0.0121
 3866TIP3    H133089   2.267   4.541  11.497 -0.7616  0.6743 -0.1121
 3866TIP3    H233090   2.200   4.468  11.611  2.5006 -0.1728  1.3814
 3867TIP3   OH233091   4.711   2.333  11.735 -0.1069 -0.1188  0.0884
 3867TIP3    H133092   4.661   2.392  11.791  0.4449  1.0324 -0.6046
 3867TIP3    H233093   4.646   2.301  11.671  0.0633  1.7587 -1.1219
 3868TIP3   OH233094   3.344   2.680  15.021  0.2101  0.0502  0.0146
 3868TIP3    H133095   3.421   2.732  14.998  0.0109  0.2378 -0.2456
 3868TIP3    H233096   3.329   2.700  15.113 -0.6170  1.4775 -0.3956
 3869TIP3   OH233097   0.672   5.887   2.988 -0.2551 -0.3221  0.4135
 3869TIP3    H133098   0.603   5.834   2.949 -0.2719  0.1272 -0.1865
 3869TIP3    H233099   0.664   5.972   2.944  1.1892 -0.5079 -0.2665
 3870TIP3   OH233100   1.188   4.281   3.902  0.4589 -0.5451 -0.2129
 3870TIP3    H133101   1.255   4.308   3.840  1.3525  2.9985  1.9697
 3870TIP3    H233102   1.106   4.311   3.864  0.8043  0.1565 -0.4168
 3871TIP3   OH233103   3.394   1.075   3.416 -0.0966  0.3242  0.2374
 3871TIP3    H133104   3.427   0.992   3.381 -0.8601 -0.7812  2.0376
 3871TIP3    H233105   3.373   1.057   3.507 -4.0620  1.4001 -0.2697
 3872TIP3   OH233106   5.102   0.857  13.381  0.1994  0.3590  0.2845
 3872TIP3    H133107   5.196   0.841  13.377  0.1071 -0.4424  1.0680
 3872TIP3    H233108   5.075   0.824  13.467 -0.5920  1.7339  0.5997
 3873TIP3   OH233109   2.248   2.955  13.235  0.4352 -0.5117 -0.0988
 3873TIP3    H133110   2.308   2.970  13.308  1.5672 -2.2071 -0.6303
 3873TIP3    H233111   2.166   2.926  13.276  0.4931  0.2035  0.5458
 3874TIP3   OH233112   3.217   3.795  16.572 -0.3463 -0.3267  0.6181
 3874TIP3    H133113   3.139   3.809  16.626 -0.3741 -0.4766  0.6160
 3874TIP3    H233114   3.189   3.820  16.484 -0.7062 -1.3529  0.4222
 3875TIP3   OH233115   4.978   1.264  14.455 -0.0459 -0.1594 -0.4412
 3875TIP3    H133116   5.049   1.201  14.445 -0.1686 -0.5970  1.0830
 3875TIP3    H233117   5.008   1.322  14.525 -1.6779 -1.1334  1.1605
 3876TIP3   OH233118   3.748   3.027  10.724  0.3051 -0.2617  0.0209
 3876TIP3    H133119   3.700   3.095  10.773 -0.3965 -0.7720  0.0630
 3876TIP3    H233120   3.685   2.996  10.659  1.3233  0.5994 -1.4079
 3877TIP3   OH233121   2.886   5.637   0.751  0.0527 -0.1980 -0.6452
 3877TIP3    H133122   2.954   5.691   0.791 -0.2943 -0.4596  0.3400
 3877TIP3    H233123   2.904   5.641   0.657  0.8620  0.4896 -0.4754
 3878TIP3   OH233124   5.544   2.706  15.791 -0.1794 -0.1129  1.1633
 3878TIP3    H133125   5.538   2.783  15.848  0.7746  0.1286  0.9545
 3878TIP3    H233126   5.521   2.739  15.704  2.0530  0.4191  0.6966
 3879TIP3   OH233127   3.889   1.944   2.005 -0.0359 -0.4905  0.4465
 3879TIP3    H133128   3.834   2.003   1.954  0.1712  0.7280  1.5917
 3879TIP3    H233129   3.966   1.929   1.950 -0.9772 -1.3534 -0.7074
 3880TIP3   OH233130   5.076   0.415   2.604  0.6658 -0.1052 -0.0458
 3880TIP3    H133131   5.066   0.336   2.551  0.6155  0.2766 -0.6171
 3880TIP3    H233132   5.095   0.484   2.541 -2.9817  1.1320 -0.0767
 3881TIP3   OH233133   1.523   2.675   3.934 -0.0323 -0.0246  0.0918
 3881TIP3    H133134   1.523   2.627   3.852  2.3663 -0.4183  0.2521
 3881TIP3    H233135   1.453   2.740   3.924 -1.8159 -2.0140 -1.0127
 3882TIP3   OH233136   2.299   4.925  15.487 -0.2738 -0.0410  0.2323
 3882TIP3    H133137   2.387   4.959  15.502  0.0922 -0.7773 -0.2113
 3882TIP3    H233138   2.249   4.952  15.565  0.1766  0.8997  0.2033
 3883TIP3   OH233139   3.775   3.735   5.845  0.1686  0.6445 -0.0181
 3883TIP3    H133140   3.731   3.811   5.807  0.6998  0.3521 -1.2565
 3883TIP3    H233141   3.826   3.770   5.917 -0.8548  1.2173  0.4502
 3884TIP3   OH233142   3.447   1.625  16.616 -0.2271  0.1920 -0.9074
 3884TIP3    H133143   3.390   1.549  16.619 -2.3576  1.6680 -1.3293
 3884TIP3    H233144   3.463   1.648  16.707  0.5689 -0.8388 -0.7800
 3885TIP3   OH233145   6.352   1.875   3.410 -0.7117  0.0025 -0.4929
 3885TIP3    H133146   6.427   1.934   3.402 -0.2845 -0.4776 -0.0831
 3885TIP3    H233147   6.360   1.837   3.497 -2.5547  1.4516  0.3763
 3886TIP3   OH233148   2.129   0.751  14.305 -0.0472 -0.3956 -0.1533
 3886TIP3    H133149   2.076   0.737  14.226 -0.9469  0.4276  0.2911
 3886TIP3    H233150   2.067   0.744  14.377  0.6450 -0.4298  0.4494
 3887TIP3   OH233151   3.412   3.082   4.088 -0.9834  0.1113 -0.1242
 3887TIP3    H133152   3.373   3.155   4.136  0.0892  0.2162  0.6205
 3887TIP3    H233153   3.360   3.076   4.008 -2.7503 -0.0028  0.9774
 3888TIP3   OH233154   3.077   6.822  16.741  0.5671  0.0728  0.4410
 3888TIP3    H133155   3.123   6.838  16.659 -0.9431  2.3495 -0.0741
 3888TIP3    H233156   2.994   6.783  16.714  0.5941 -0.3941  1.0102
 3889TIP3   OH233157   5.298   5.880  17.285 -0.1183 -0.8587  0.2127
 3889TIP3    H133158   5.240   5.943  17.242  0.0107 -1.0469 -0.2468
 3889TIP3    H233159   5.386   5.903  17.254 -0.0812 -1.3276 -0.0516
 3890TIP3   OH233160   3.638   2.505  12.648  0.1016 -0.1914 -0.1037
 3890TIP3    H133161   3.718   2.557  12.640  1.2457 -2.0177 -1.1953
 3890TIP3    H233162   3.668   2.415  12.660 -1.8103 -0.7055  1.3629
 3891TIP3   OH233163   2.369   6.309   5.171 -0.4679 -0.2321  0.3049
 3891TIP3    H133164   2.307   6.312   5.098 -1.5834  0.0572  1.2463
 3891TIP3    H233165   2.449   6.272   5.132 -0.6194  1.0269 -1.3525
 3892TIP3   OH233166   1.810   6.330   3.566 -0.2433 -0.3787  0.8294
 3892TIP3    H133167   1.894   6.372   3.548 -0.0628 -0.2505  1.9180
 3892TIP3    H233168   1.807   6.254   3.508 -0.1062  0.5294 -0.4061
 3893TIP3   OH233169   2.210   0.973   6.594  0.3816 -0.0934 -0.0621
 3893TIP3    H133170   2.123   0.999   6.564  0.6080  0.1911 -0.4804
 3893TIP3    H233171   2.239   0.908   6.530 -0.2250 -1.4926  1.0310
 3894TIP3   OH233172   0.485   6.725   2.175  0.4640 -0.0890 -0.4243
 3894TIP3    H133173   0.564   6.774   2.151  1.3340 -1.2096  0.0508
 3894TIP3    H233174   0.516   6.660   2.238 -0.9222 -0.2954  0.0827
 3895TIP3   OH233175   5.226   3.868  15.541  0.1463 -0.1023  0.4353
 3895TIP3    H133176   5.276   3.926  15.597 -0.7398 -0.9978  2.2614
 3895TIP3    H233177   5.282   3.792  15.527  0.4671  0.2332 -0.1343
 3896TIP3   OH233178   1.828   4.231   5.370  0.4084 -0.2652  0.0670
 3896TIP3    H133179   1.842   4.322   5.344 -2.1754  1.1456  2.9421
 3896TIP3    H233180   1.794   4.188   5.292 -2.0090  2.3202 -0.4610
 3897TIP3   OH233181   3.980   6.454  13.019 -0.7623  0.6569 -0.1634
 3897TIP3    H133182   4.063   6.412  13.042 -0.7245 -0.0060 -1.4504
 3897TIP3    H233183   4.005   6.544  12.997 -0.3498  0.4351 -0.6492
 3898TIP3   OH233184   3.643   4.166   2.345  0.5818  0.5708  0.1724
 3898TIP3    H133185   3.626   4.211   2.428  2.0278  0.5807  0.4892
 3898TIP3    H233186   3.570   4.105   2.335  0.1049  0.9623  1.1797
 3899TIP3   OH233187   0.071   6.574  14.259 -0.6774  0.2300 -0.3662
 3899TIP3    H133188   0.160   6.576  14.296 -0.7902  1.6156 -0.1175
 3899TIP3    H233189   0.085   6.562  14.165 -0.1953  0.9583 -0.3972
 3900TIP3   OH233190   0.163   6.757  16.643  0.3473  0.2060 -0.7892
 3900TIP3    H133191   0.257   6.750  16.660  0.3590 -1.7761 -1.4242
 3900TIP3    H233192   0.152   6.730  16.552 -0.6432  2.4741 -1.3991
 3901TIP3   OH233193   0.437   4.444  12.917 -0.4524 -0.6395 -0.4237
 3901TIP3    H133194   0.387   4.373  12.957 -0.6973  0.2568  0.9196
 3901TIP3    H233195   0.516   4.402  12.883 -1.4667 -1.8526 -1.3780
 3902TIP3   OH233196   0.123   1.657   1.017 -0.0635  0.4589  0.0122
 3902TIP3    H133197   0.169   1.688   1.095  0.2842  0.6301 -0.2573
 3902TIP3    H233198   0.185   1.672   0.945 -0.3344  0.1932 -0.2798
 3903TIP3   OH233199   0.133   2.230  15.673 -0.3414 -0.0364 -0.1104
 3903TIP3    H133200   0.203   2.165  15.672 -1.7488 -1.6061 -0.0740
 3903TIP3    H233201   0.111   2.243  15.580 -0.2332  0.2251 -0.1026
 3904TIP3   OH233202   0.317   5.897  12.522 -0.5260 -0.0791 -0.2590
 3904TIP3    H133203   0.241   5.955  12.522  0.3778  1.1480 -0.5899
 3904TIP3    H233204   0.382   5.942  12.468 -0.4236 -2.3009 -2.1949
 3905TIP3   OH233205   3.745   2.855   5.301 -0.2457  0.1184 -0.7824
 3905TIP3    H133206   3.827   2.859   5.351 -0.3745 -3.4478 -0.0222
 3905TIP3    H233207   3.773   2.830   5.213 -0.4531 -1.2981 -0.4738
 3906TIP3   OH233208   4.201   3.052  12.538  0.4186 -0.7127  0.3517
 3906TIP3    H133209   4.152   2.983  12.493  1.8163 -0.1551 -2.1783
 3906TIP3    H233210   4.289   3.016  12.547  0.8130  0.2028  0.2619
 3907TIP3   OH233211   1.302   5.803  11.885 -0.6018  0.3942 -0.0104
 3907TIP3    H133212   1.270   5.804  11.795  1.0732  0.7262 -0.6438
 3907TIP3    H233213   1.277   5.888  11.920 -2.4918 -0.2574  0.3431
 3908TIP3   OH233214   2.403   3.820   5.310 -0.1256 -0.2754  0.0841
 3908TIP3    H133215   2.376   3.812   5.219  0.1995 -1.1741  0.0505
 3908TIP3    H233216   2.344   3.762   5.358 -0.4713  0.3976  0.4928
 3909TIP3   OH233217   3.004   1.851  16.979 -0.2697 -0.5236  0.6736
 3909TIP3    H133218   2.937   1.913  16.951 -0.1163 -0.0263  1.3820
 3909TIP3    H233219   3.059   1.900  17.039  0.0490 -1.2595  0.9973
 3910TIP3   OH233220   4.271   5.165   3.238 -0.1405 -0.2715 -0.2008
 3910TIP3    H133221   4.189   5.214   3.244  0.2245  0.1694  2.5754
 3910TIP3    H233222   4.246   5.079   3.204 -1.4700  0.3716 -0.9314
 3911TIP3   OH233223   4.582   5.275   6.538 -0.0428  0.1111  0.1848
 3911TIP3    H133224   4.514   5.336   6.565  0.3629  0.1210  1.2291
 3911TIP3    H233225   4.560   5.193   6.583  1.3591  0.4820  1.6464
 3912TIP3   OH233226   4.020   1.191   4.903 -0.0229  0.1466  0.0043
 3912TIP3    H133227   4.051   1.137   4.976  2.7429  2.1734  0.4585
 3912TIP3    H233228   3.941   1.233   4.937  0.9185  0.6583  1.6754
 3913TIP3   OH233229   0.599   3.467  15.095  0.4941 -0.3583  0.4342
 3913TIP3    H133230   0.637   3.429  15.175  0.7275  0.5739  0.7815
 3913TIP3    H233231   0.560   3.549  15.124 -0.1626 -0.4065 -0.2714
 3914TIP3   OH233232   1.105   4.275  12.560 -0.6587  0.2701 -0.7194
 3914TIP3    H133233   1.153   4.358  12.562 -0.1290 -0.0371 -0.4799
 3914TIP3    H233234   1.173   4.208  12.563 -1.1364 -0.1873  0.9423
 3915TIP3   OH233235   2.052   3.164   6.100  0.1902 -0.7604 -0.1871
 3915TIP3    H133236   2.107   3.164   6.022  0.4254 -2.0298 -0.0416
 3915TIP3    H233237   1.963   3.155   6.067  0.3546 -2.1742 -0.2947
 3916TIP3   OH233238   0.150   6.252   0.437 -0.3522 -0.1017 -0.1192
 3916TIP3    H133239   0.197   6.244   0.520  0.1684  2.0052 -0.1738
 3916TIP3    H233240   0.074   6.305   0.458 -0.8135 -0.4950 -0.7778
 3917TIP3   OH233241   1.998   1.187   4.770 -0.4779 -0.3905  0.1815
 3917TIP3    H133242   2.032   1.178   4.859  0.7891  3.8197  0.3640
 3917TIP3    H233243   1.904   1.200   4.782 -0.3603 -0.1222  0.9180
 3918TIP3   OH233244   6.410   3.059   5.049 -0.3688  0.1850 -0.7643
 3918TIP3    H133245   6.391   3.063   4.955 -1.0931 -1.4806 -0.7337
 3918TIP3    H233246   6.477   2.990   5.057 -0.8044 -0.1650 -0.0082
 3919TIP3   OH233247   4.457   2.348   3.489 -0.0772 -0.2618 -0.0883
 3919TIP3    H133248   4.427   2.352   3.580 -0.2792 -0.1798 -0.1567
 3919TIP3    H233249   4.485   2.258   3.476  4.5955  0.7108  1.5137
 3920TIP3   OH233250   0.855   1.227   6.471  0.2698 -0.4694 -0.0277
 3920TIP3    H133251   0.761   1.236   6.458  0.4349 -0.5631 -1.5183
 3920TIP3    H233252   0.891   1.311   6.441  0.7033 -0.6607 -0.0502
 3921TIP3   OH233253   6.676   5.452   5.565  0.0333 -0.0062  0.9826
 3921TIP3    H133254   6.674   5.372   5.617 -0.0242  0.5979  1.9440
 3921TIP3    H233255   6.759   5.448   5.517 -0.5717 -1.2538 -0.0112
 3922TIP3   OH233256   2.634   4.765  13.526  0.5704 -0.2922  0.2513
 3922TIP3    H133257   2.608   4.769  13.434 -1.3856 -0.1554  0.7691
 3922TIP3    H233258   2.688   4.687  13.533 -1.6236 -1.9716 -0.4900
 3923TIP3   OH233259   4.580   6.543   3.698 -0.3710 -0.2655  0.2457
 3923TIP3    H133260   4.519   6.492   3.644  0.1546 -1.9252  1.1694
 3923TIP3    H233261   4.649   6.482   3.722  0.3909  0.9367  1.2634
 3924TIP3   OH233262   3.306   1.018   4.246  0.4788  0.1414 -0.4071
 3924TIP3    H133263   3.230   1.077   4.247 -1.0822 -1.6131 -2.9203
 3924TIP3    H233264   3.306   0.977   4.332 -1.4229  0.2482 -0.3106
 3925TIP3   OH233265   3.369   0.767   4.885  0.0638 -0.0122 -0.4594
 3925TIP3    H133266   3.377   0.755   4.979 -0.6032  2.2427 -0.0430
 3925TIP3    H233267   3.278   0.743   4.865 -0.8203  2.5861  0.1105
 3926TIP3   OH233268   3.041   5.044   4.673 -0.3078 -0.3650 -0.5489
 3926TIP3    H133269   2.949   5.066   4.660 -0.1934  0.1530 -0.4969
 3926TIP3    H233270   3.047   5.017   4.765 -0.1354  1.0786 -0.1061
 3927TIP3   OH233271   0.526   1.177   5.716 -0.0922 -0.0757  0.2806
 3927TIP3    H133272   0.622   1.185   5.720 -0.1743  0.6535  1.3720
 3927TIP3    H233273   0.502   1.136   5.799 -0.6646 -1.0755 -0.3705
 3928TIP3   OH233274   2.855   3.730  15.589  0.7959  0.6026  0.1124
 3928TIP3    H133275   2.906   3.752  15.668  2.1145 -0.3627 -0.4312
 3928TIP3    H233276   2.787   3.670  15.620  0.6574  1.0360  0.6713
 3929TIP3   OH233277   6.653   1.310  12.698 -0.2599 -0.2508 -0.4545
 3929TIP3    H133278   6.715   1.311  12.625  0.1016  2.2751 -0.2055
 3929TIP3    H233279   6.706   1.294  12.775 -0.2625 -0.3987 -0.4839
 3930TIP3   OH233280   6.753   1.315  14.347  0.2657  0.1068  0.1748
 3930TIP3    H133281   6.778   1.226  14.323  0.5924  0.1793  0.2502
 3930TIP3    H233282   6.689   1.340  14.280 -0.3944 -0.4556  0.5861
 3931TIP3   OH233283   2.360   0.374   0.101  0.1084  0.0931 -0.8471
 3931TIP3    H133284   2.280   0.424   0.086  0.0156  1.0797  2.2236
 3931TIP3    H233285   2.361   0.309   0.030 -2.9406  0.5670 -1.4924
 3932TIP3   OH233286   4.727   4.187  11.173 -0.0821  0.2583 -0.5187
 3932TIP3    H133287   4.637   4.218  11.168  0.2170  1.7305  1.7154
 3932TIP3    H233288   4.726   4.121  11.242  0.6190  0.7091 -0.0622
 3933TIP3   OH233289   6.544   4.580  11.907 -0.2559 -0.0845  0.1864
 3933TIP3    H133290   6.488   4.606  11.834  1.2616 -2.2759 -1.8971
 3933TIP3    H233291   6.536   4.485  11.910  2.4504 -0.3572  0.5374
 3934TIP3   OH233292   1.251   1.247  11.198  0.0008  0.4473 -0.4450
 3934TIP3    H133293   1.274   1.156  11.217  1.2917  0.7944 -0.2644
 3934TIP3    H233294   1.198   1.275  11.273  1.6373  0.5674  0.7087
 3935TIP3   OH233295   2.841   5.477  15.810 -0.5458 -0.7783  0.1244
 3935TIP3    H133296   2.798   5.425  15.877 -1.1332  0.9279  1.1304
 3935TIP3    H233297   2.932   5.446  15.811 -0.8768 -1.7828  0.6605
 3936TIP3   OH233298   1.256   1.425   3.287 -0.3820  0.2866 -0.6765
 3936TIP3    H133299   1.251   1.337   3.251  1.3131  0.0448 -0.4052
 3936TIP3    H233300   1.317   1.471   3.229 -1.0432  1.2107 -0.6621
 3937TIP3   OH233301   5.746   1.401   5.626 -0.1147  0.0247 -0.1599
 3937TIP3    H133302   5.815   1.335   5.627  0.5160  0.6870  0.8053
 3937TIP3    H233303   5.764   1.454   5.548 -0.6332 -0.9069 -0.9519
 3938TIP3   OH233304   2.853   6.403   5.788  0.3102  0.1949 -0.2068
 3938TIP3    H133305   2.903   6.454   5.851  0.1490 -0.6725  0.6444
 3938TIP3    H233306   2.919   6.366   5.730  0.3328  2.9071 -2.0995
 3939TIP3   OH233307   4.918   3.515  15.585  0.7095  0.4199  0.5894
 3939TIP3    H133308   4.977   3.446  15.616  0.2025  0.1113  0.8671
 3939TIP3    H233309   4.936   3.521  15.491  1.0093  0.1592  0.6268
 3940TIP3   OH233310   3.574   3.518   0.831  0.2392  0.0057 -0.0358
 3940TIP3    H133311   3.527   3.509   0.914  0.1560 -3.0464 -0.3057
 3940TIP3    H233312   3.519   3.577   0.779 -0.0762  1.4067  1.7553
 3941TIP3   OH233313   4.752   4.720   4.095  0.2928 -0.7142 -0.7232
 3941TIP3    H133314   4.714   4.740   4.010  1.1596 -3.5081 -1.8691
 3941TIP3    H233315   4.832   4.673   4.076  0.5073 -1.4639  1.6551
 3942TIP3   OH233316   5.314   4.593   2.806  0.3634  0.4599 -0.1810
 3942TIP3    H133317   5.287   4.684   2.813 -0.2148  0.3366 -0.7118
 3942TIP3    H233318   5.392   4.595   2.750  0.3701  0.6286 -0.1647
 3943TIP3   OH233319   3.186   2.151   3.044  0.2010  0.4697  0.2523
 3943TIP3    H133320   3.207   2.068   3.002  1.8931  0.8339  0.3077
 3943TIP3    H233321   3.095   2.168   3.020  0.5448 -0.2301 -1.7523
 3944TIP3   OH233322   5.144   0.974  16.832  0.3445 -0.0232  0.4719
 3944TIP3    H133323   5.225   1.025  16.835  1.4110 -1.6668  1.7667
 3944TIP3    H233324   5.093   1.006  16.906  1.0106 -0.7776  1.2801
 3945TIP3   OH233325   2.010   3.453  11.457  0.7698 -0.0647  0.0430
 3945TIP3    H133326   2.080   3.433  11.519  0.5169 -0.2255  0.2804
 3945TIP3    H233327   1.966   3.369  11.442 -0.7511  0.3674  1.6001
 3946TIP3   OH233328   4.338   3.572   0.945  0.5092 -0.4036 -0.1513
 3946TIP3    H133329   4.324   3.478   0.930 -0.5611 -0.2191 -0.3814
 3946TIP3    H233330   4.319   3.612   0.860 -1.5326  0.2594  0.5837
 3947TIP3   OH233331   0.421   5.251  13.075 -0.2000  0.2317  0.0912
 3947TIP3    H133332   0.434   5.175  13.019 -3.4731  0.6133 -1.4084
 3947TIP3    H233333   0.365   5.219  13.146 -1.1168  1.0847 -0.2322
 3948TIP3   OH233334   6.034   5.228   6.166 -0.1571  0.0959 -0.1653
 3948TIP3    H133335   5.987   5.148   6.189 -0.3659  0.4543  0.6773
 3948TIP3    H233336   6.112   5.226   6.220 -0.5762  0.8728  0.4888
 3949TIP3   OH233337   1.591   6.721  12.445  0.4777 -0.2983  0.1817
 3949TIP3    H133338   1.652   6.647  12.432  0.9765  0.3814 -1.6096
 3949TIP3    H233339   1.638   6.796  12.409 -0.6845  0.5888  0.5007
 3950TIP3   OH233340   1.485   0.985  13.788  0.2254 -0.5689 -0.0128
 3950TIP3    H133341   1.516   1.069  13.822 -1.0128  0.1634 -0.6175
 3950TIP3    H233342   1.476   0.999  13.694 -0.1729 -1.3175 -0.0921
 3951TIP3   OH233343   0.686   6.313   2.463  0.7504  0.0785 -0.0468
 3951TIP3    H133344   0.697   6.371   2.539  0.5558  0.0053  0.0380
 3951TIP3    H233345   0.769   6.319   2.416 -0.2020  2.6344 -1.6094
 3952TIP3   OH233346   5.514   4.518   2.563 -0.1657 -0.3838  0.5505
 3952TIP3    H133347   5.573   4.578   2.518 -0.5899 -0.3181  0.0717
 3952TIP3    H233348   5.568   4.443   2.585  0.0639 -0.3967 -0.0379
 3953TIP3   OH233349   4.578   1.953   1.600 -0.2276 -0.5769 -0.1375
 3953TIP3    H133350   4.543   1.928   1.686  1.7870  0.8097  1.2031
 3953TIP3    H233351   4.505   1.942   1.540 -1.8886 -1.0900  1.8349
 3954TIP3   OH233352   5.428   0.317   5.939 -0.2975  0.2896  0.0833
 3954TIP3    H133353   5.407   0.390   5.997  0.6988  1.4668 -0.9617
 3954TIP3    H233354   5.426   0.356   5.851  4.6495  0.3252 -0.3028
 3955TIP3   OH233355   5.711   5.799  13.036 -0.0889 -0.7958 -0.0764
 3955TIP3    H133356   5.664   5.716  13.024 -2.1797  0.4205 -0.6637
 3955TIP3    H233357   5.737   5.825  12.948  2.0388 -1.5597  0.2505
 3956TIP3   OH233358   4.819   1.611   1.319 -0.0670  0.0083  0.2357
 3956TIP3    H133359   4.726   1.591   1.321  0.0330 -0.5652  2.4274
 3956TIP3    H233360   4.829   1.676   1.250 -2.0426 -0.1224 -0.2181
 3957TIP3   OH233361   6.560   2.112   0.021  0.1808  0.2034  0.6788
 3957TIP3    H133362   6.527   2.024   0.002 -0.2498  0.3311  0.8481
 3957TIP3    H233363   6.648   2.112  -0.017 -0.6671  0.4719 -1.4053
 3958TIP3   OH233364   0.074   3.306   2.101  0.2414  0.0286 -0.6620
 3958TIP3    H133365   0.032   3.305   2.187  0.2407 -1.4852 -0.6619
 3958TIP3    H233366   0.163   3.273   2.117  0.0993 -0.6805 -1.3008
 3959TIP3   OH233367   2.035   6.473  10.656  0.1288  0.4608  0.2826
 3959TIP3    H133368   2.129   6.461  10.648  0.0923 -0.0751  0.6322
 3959TIP3    H233369   2.003   6.390  10.691 -0.8341 -0.4609 -2.4558
 3960TIP3   OH233370   4.235   4.401  17.189 -0.2166  0.0967  0.5024
 3960TIP3    H133371   4.231   4.496  17.177 -3.6558 -0.2148 -2.8904
 3960TIP3    H233372   4.160   4.382  17.247 -0.7307 -0.6423 -0.3890
 3961TIP3   OH233373   3.409   0.313   3.031  0.7154 -0.1573  0.0986
 3961TIP3    H133374   3.349   0.251   2.990  0.1680  0.7678 -0.5343
 3961TIP3    H233375   3.389   0.397   2.990 -0.7199  1.1114  3.1066
 3962TIP3   OH233376   1.363   4.176  16.174 -0.6558 -0.3431 -0.3920
 3962TIP3    H133377   1.445   4.156  16.218  0.8377 -0.2793 -2.9498
 3962TIP3    H233378   1.329   4.253  16.220  0.9250 -0.1107  0.4623
 3963TIP3   OH233379   1.805   2.540  14.348  0.1021 -0.0796  0.0489
 3963TIP3    H133380   1.771   2.453  14.370 -1.9497  0.4979 -0.6540
 3963TIP3    H233381   1.784   2.593  14.425  1.8344 -0.2879  0.7016
 3964TIP3   OH233382   3.109   1.862  13.409  0.2558 -0.0272 -0.2389
 3964TIP3    H133383   3.164   1.920  13.358  1.4172  0.4329  1.4531
 3964TIP3    H233384   3.168   1.824  13.475 -0.8606 -1.7169 -0.1361
 3965TIP3   OH233385   4.621   1.792   6.851  0.0119 -0.3418  0.4191
 3965TIP3    H133386   4.614   1.758   6.762 -0.6481 -1.8806  1.0319
 3965TIP3    H233387   4.713   1.820   6.859  0.0663 -0.1378 -0.7362
 3966TIP3   OH233388   4.936   5.456  13.035 -0.1878  0.2557  0.0132
 3966TIP3    H133389   4.936   5.404  13.115  1.4400  0.3770  0.1405
 3966TIP3    H233390   4.966   5.543  13.063  0.7731  0.1958 -0.7445
 3967TIP3   OH233391   4.122   4.483   2.220  0.3262 -0.2666  0.2808
 3967TIP3    H133392   4.205   4.529   2.238  1.5277 -3.1743  3.2702
 3967TIP3    H233393   4.065   4.508   2.294  0.4053 -2.1177  1.0090
 3968TIP3   OH233394   4.529   5.065  15.519  0.4033  0.0971  0.1304
 3968TIP3    H133395   4.566   5.105  15.441 -0.7059  0.5833 -0.1624
 3968TIP3    H233396   4.590   4.994  15.541  0.0975 -0.8722 -1.9007
 3969TIP3   OH233397   3.369   1.264   4.863 -0.8267  0.6235  0.2500
 3969TIP3    H133398   3.396   1.174   4.844  1.3938  1.1877  0.4634
 3969TIP3    H233399   3.316   1.257   4.943  0.3804 -0.3886  0.9979
 3970TIP3   OH233400   3.246   6.532  12.631  0.0777  0.0925  0.1534
 3970TIP3    H133401   3.282   6.572  12.552 -0.8249 -0.1260 -0.3787
 3970TIP3    H233402   3.322   6.511  12.684  0.7511 -0.5187 -1.0192
 3971TIP3   OH233403   4.894   2.977  15.444  0.8517 -0.0860 -0.5250
 3971TIP3    H133404   4.898   3.061  15.398 -1.1299  0.3172 -0.0662
 3971TIP3    H233405   4.893   2.912  15.373 -1.2963  0.4856 -1.0952
 3972TIP3   OH233406   0.683   3.209  12.610 -0.0593 -0.4003  0.1219
 3972TIP3    H133407   0.622   3.192  12.538 -0.3533  0.7436  0.0874
 3972TIP3    H233408   0.672   3.134  12.669 -0.1107 -1.1472 -0.8112
 3973TIP3   OH233409   0.240   6.241   5.747  0.1438  0.1555  0.3673
 3973TIP3    H133410   0.225   6.212   5.838 -1.7954 -0.7801 -0.1812
 3973TIP3    H233411   0.173   6.195   5.697  0.9214  0.9750 -1.5010
 3974TIP3   OH233412   4.928   5.301   2.695  0.4538  0.1814 -0.6988
 3974TIP3    H133413   4.879   5.355   2.632 -0.3935 -0.0437 -0.2434
 3974TIP3    H233414   4.892   5.325   2.780  0.2263 -0.9425 -0.4649
 3975TIP3   OH233415   4.874   0.492   4.758 -0.1938  0.1588 -0.0168
 3975TIP3    H133416   4.895   0.550   4.831 -1.5955  0.3804  0.2398
 3975TIP3    H233417   4.788   0.456   4.781 -1.1701  1.0576 -2.0367
 3976TIP3   OH233418   6.779   4.462   4.171 -0.9385  0.0088 -0.4192
 3976TIP3    H133419   6.742   4.379   4.140  0.2347 -1.0919  0.9579
 3976TIP3    H233420   6.830   4.438   4.248 -1.5311  2.1944  0.7532
 3977TIP3   OH233421   6.796   3.389  15.828 -0.2105 -0.4631 -0.3384
 3977TIP3    H133422   6.730   3.397  15.759 -0.0649 -0.4041 -0.4726
 3977TIP3    H233423   6.752   3.342  15.898 -0.8048  0.7437  0.1110
 3978TIP3   OH233424   6.426   2.388  16.579  0.3622  0.1203  0.8431
 3978TIP3    H133425   6.517   2.392  16.549  0.1968  0.5596  0.3916
 3978TIP3    H233426   6.429   2.334  16.657  0.9675 -0.1294  0.6498
 3979TIP3   OH233427   4.691   1.780  13.448  0.2740 -0.0526 -0.1659
 3979TIP3    H133428   4.693   1.824  13.533 -0.5501 -1.0074  0.3760
 3979TIP3    H233429   4.781   1.755  13.432  0.3049 -0.7415  0.9305
 3980TIP3   OH233430   5.510   0.031   1.822 -0.2905 -0.2750  0.2726
 3980TIP3    H133431   5.604   0.019   1.833  0.4970  1.8014 -2.9081
 3980TIP3    H233432   5.498   0.126   1.818 -2.6835 -0.4539  1.3538
 3981TIP3   OH233433   4.547   2.499  11.865  0.5095  0.6881 -0.3242
 3981TIP3    H133434   4.585   2.586  11.867  1.6602  0.2043 -0.4567
 3981TIP3    H233435   4.453   2.513  11.880  0.8027  1.8602  0.5322
 3982TIP3   OH233436   0.586   3.702   5.121 -0.5856 -0.4313  0.0556
 3982TIP3    H133437   0.583   3.614   5.158 -1.4583 -1.3335 -2.0432
 3982TIP3    H233438   0.590   3.760   5.198  3.3414 -2.3037  1.4950
 3983TIP3   OH233439   1.320   3.384   5.442 -0.5595 -0.3139 -0.6651
 3983TIP3    H133440   1.408   3.398   5.406 -1.0095 -0.5151 -1.9045
 3983TIP3    H233441   1.286   3.309   5.393 -1.1058 -0.7889  0.4186
 3984TIP3   OH233442   1.585   3.085   6.815  0.2449 -0.1017  0.3492
 3984TIP3    H133443   1.578   3.163   6.869  2.3956 -0.0435  0.6128
 3984TIP3    H233444   1.656   3.034   6.855  0.5715 -0.9815 -1.2748
 3985TIP3   OH233445   0.800   2.914   3.140 -0.2377  0.3116 -0.4874
 3985TIP3    H133446   0.742   2.986   3.117 -1.6506 -0.7672 -0.4393
 3985TIP3    H233447   0.749   2.860   3.201  1.0940 -0.2800  0.1372
 3986TIP3   OH233448   3.839   6.752   2.162  0.2036 -0.1983  0.0026
 3986TIP3    H133449   3.790   6.707   2.230 -1.6874  0.5954 -0.7656
 3986TIP3    H233450   3.920   6.781   2.205 -0.2903 -0.9664  1.4922
 3987TIP3   OH233451   5.013   3.310  13.770  0.0852 -0.7615 -0.3099
 3987TIP3    H133452   5.046   3.352  13.690  0.1122 -1.9338 -0.9405
 3987TIP3    H233453   4.963   3.234  13.738  0.8255 -1.7509  0.8006
 3988TIP3   OH233454   0.760   2.034  10.437 -0.3583  0.1828 -0.5642
 3988TIP3    H133455   0.666   2.039  10.416 -0.2142  0.4305 -1.1840
 3988TIP3    H233456   0.802   2.082  10.365  0.1577  1.1735  0.3720
 3989TIP3   OH233457   1.017   5.390  11.532  0.1025 -0.3302  0.3987
 3989TIP3    H133458   0.925   5.400  11.506  0.2163 -0.4911 -0.0814
 3989TIP3    H233459   1.066   5.420  11.455  0.4505 -1.3904  0.1957
 3990TIP3   OH233460   6.809   0.474   0.245 -0.2284 -0.4462 -0.2828
 3990TIP3    H133461   6.753   0.548   0.268  1.2667  0.4403  0.6608
 3990TIP3    H233462   6.748   0.401   0.233 -1.9074  1.2393 -2.8600
 3991TIP3   OH233463   0.241   2.078  12.414  0.1836 -0.0743 -0.0675
 3991TIP3    H133464   0.232   2.035  12.329  1.0905  0.0674 -0.2427
 3991TIP3    H233465   0.329   2.113  12.414  1.3890 -2.7266  2.1432
 3992TIP3   OH233466   4.265   6.220   3.448  0.4682 -0.1285  0.3710
 3992TIP3    H133467   4.172   6.207   3.430  0.7196 -1.3516 -0.0855
 3992TIP3    H233468   4.305   6.234   3.363  1.0259 -1.8263  0.3227
 3993TIP3   OH233469   5.190   5.654  14.232  0.2955  0.0420  0.1096
 3993TIP3    H133470   5.279   5.658  14.268  0.4819 -0.7891 -0.2230
 3993TIP3    H233471   5.198   5.597  14.155 -0.7853 -1.2621  0.9047
 3994TIP3   OH233472   3.966   0.336   0.918  0.4361  0.3562  0.2319
 3994TIP3    H133473   3.974   0.252   0.963  2.9533  0.5622  0.3407
 3994TIP3    H233474   4.004   0.321   0.832 -2.5739  0.4657 -1.2060
 3995TIP3   OH233475   1.008   1.654   1.003  0.0778  0.9117  0.3753
 3995TIP3    H133476   0.973   1.588   0.944  1.2255  0.7645 -0.1757
 3995TIP3    H233477   1.077   1.609   1.052  0.8898  1.6866 -0.0190
 3996TIP3   OH233478   6.204   4.850  14.493 -0.3579 -0.3469  0.3300
 3996TIP3    H133479   6.244   4.778  14.443 -1.9452  0.9642 -3.1261
 3996TIP3    H233480   6.113   4.852  14.464 -0.6986  2.2456  1.2989
 3997TIP3   OH233481   6.450   4.652  14.008 -0.1184  0.5099 -0.3091
 3997TIP3    H133482   6.511   4.609  13.949 -1.2031 -0.8937 -0.4783
 3997TIP3    H233483   6.505   4.698  14.071  1.1071 -0.6547 -0.4878
 3998TIP3   OH233484   1.205   2.650  13.100  0.0276 -0.1797  0.1791
 3998TIP3    H133485   1.152   2.684  13.172  0.7355 -0.8699  1.0350
 3998TIP3    H233486   1.164   2.566  13.078  0.9419 -0.8748  1.0671
 3999TIP3   OH233487   4.052   6.076  10.589 -0.1976  0.2736 -0.5052
 3999TIP3    H133488   3.964   6.105  10.611 -0.5761 -1.1527 -0.0597
 3999TIP3    H233489   4.106   6.155  10.598 -1.3584  1.0888 -0.4606
 4000TIP3   OH233490   3.014   4.003  10.938  0.3570 -0.0064  0.1098
 4000TIP3    H133491   2.927   4.033  10.964  0.5255 -0.5839  1.4248
 4000TIP3    H233492   2.997   3.938  10.870 -0.1612  0.7060 -0.4671
 4001TIP3   OH233493   4.471   5.710   1.280  0.6242  0.7924  0.1621
 4001TIP3    H133494   4.491   5.741   1.369  2.2229  0.2679  0.0309
 4001TIP3    H233495   4.529   5.761   1.224 -0.7178  1.4609 -0.6589
 4002TIP3   OH233496   5.460   1.561  12.218 -0.3632 -1.0083  0.3773
 4002TIP3    H133497   5.462   1.588  12.126 -3.5655  2.0168  0.9622
 4002TIP3    H233498   5.512   1.481  12.221 -0.0898 -1.2401 -4.0236
 4003TIP3   OH233499   5.656   1.580   4.162  0.2197  0.1084  0.1910
 4003TIP3    H133500   5.691   1.500   4.123  0.7524 -0.2394  1.3225
 4003TIP3    H233501   5.570   1.554   4.195  0.5896 -0.1436  0.9821
 4004TIP3   OH233502   0.929   3.375  14.899 -0.1936 -0.1514 -0.4136
 4004TIP3    H133503   1.024   3.383  14.906 -0.1037 -1.1783 -0.3093
 4004TIP3    H233504   0.897   3.465  14.909  0.6502 -0.0178  1.6031
 4005TIP3   OH233505   1.736   0.093   2.068 -0.0613 -0.3430  0.4932
 4005TIP3    H133506   1.715   0.004   2.039  1.5392 -0.7501  0.5263
 4005TIP3    H233507   1.816   0.083   2.119  0.3437  1.1789  0.1844
 4006TIP3   OH233508   6.742   1.938  13.828  0.8964 -0.6606  0.1623
 4006TIP3    H133509   6.784   2.024  13.838  1.4661 -0.8187 -0.7811
 4006TIP3    H233510   6.683   1.932  13.903  1.0297  0.4512  0.3796
 4007TIP3   OH233511   5.259   4.880  13.323  0.0273  0.0283  0.2826
 4007TIP3    H133512   5.170   4.866  13.290  0.3304 -0.9943 -0.1330
 4007TIP3    H233513   5.248   4.940  13.397 -0.8468  1.0804 -0.6586
 4008TIP3   OH233514   0.533   6.140   1.386 -0.4439 -0.0223  0.5566
 4008TIP3    H133515   0.456   6.110   1.337 -0.9391 -1.0475  1.9201
 4008TIP3    H233516   0.584   6.060   1.402  1.2449  0.6993 -0.8082
 4009TIP3   OH233517   5.475   2.714   1.477  0.2194  0.3444  0.2066
 4009TIP3    H133518   5.436   2.799   1.497  0.3862  0.9373 -1.7848
 4009TIP3    H233519   5.552   2.709   1.532 -0.4310  0.9533  1.1984
 4010TIP3   OH233520   1.635   4.789  16.590  0.6023  0.3351 -0.0854
 4010TIP3    H133521   1.708   4.835  16.632  0.6999 -0.3730  0.5415
 4010TIP3    H233522   1.585   4.857  16.546  1.0150  0.9763  0.4313
 4011TIP3   OH233523   2.550   4.365  11.531 -0.1569 -0.3686  0.0365
 4011TIP3    H133524   2.531   4.358  11.624  1.5775 -1.3282  0.3569
 4011TIP3    H233525   2.584   4.279  11.507 -0.7137 -0.1838 -1.5252
 4012TIP3   OH233526   3.160   5.610   4.106  0.2691 -0.4154 -0.1456
 4012TIP3    H133527   3.150   5.695   4.149  1.2289 -0.4501  0.1574
 4012TIP3    H233528   3.131   5.546   4.170  0.2151 -0.3626 -0.1176
 4013TIP3   OH233529   1.488   0.321  16.754 -0.3486 -0.5393  0.0756
 4013TIP3    H133530   1.557   0.268  16.794  0.5063  0.1227 -0.4633
 4013TIP3    H233531   1.535   0.378  16.693 -1.3778 -0.0258 -0.2566
 4014TIP3   OH233532   6.072   4.165  14.713 -0.4986  0.6785 -0.3728
 4014TIP3    H133533   5.977   4.162  14.726 -0.3948 -0.7885  0.3085
 4014TIP3    H233534   6.107   4.125  14.793  0.6415  0.1757 -1.1103
 4015TIP3   OH233535   2.549   4.977   1.465  0.3824 -0.1598  0.6075
 4015TIP3    H133536   2.510   4.950   1.548  0.8538 -2.6491  0.0859
 4015TIP3    H233537   2.638   4.942   1.468  1.3562  2.1073  0.1641
 4016TIP3   OH233538   2.638   4.739  11.908  0.2184  0.1736 -0.0131
 4016TIP3    H133539   2.547   4.751  11.883 -0.1029 -0.7095  0.6930
 4016TIP3    H233540   2.638   4.741  12.004  1.1284  1.4307 -0.0067
 4017TIP3   OH233541   6.119   6.198   1.042 -0.1360 -0.4700 -1.2498
 4017TIP3    H133542   6.164   6.218   0.960 -2.1382  2.4491 -1.7829
 4017TIP3    H233543   6.133   6.275   1.096 -0.8612 -1.3534  0.2556
 4018TIP3   OH233544   4.173   4.077   4.030 -0.0097 -0.6462 -0.4576
 4018TIP3    H133545   4.256   4.114   3.999  0.0522 -0.5530 -0.1779
 4018TIP3    H233546   4.110   4.103   3.963  0.1985 -0.7752 -0.7065
 4019TIP3   OH233547   4.888   1.214  15.422  0.2049 -0.3865  0.2561
 4019TIP3    H133548   4.812   1.256  15.464  0.3435  0.0705  0.0617
 4019TIP3    H233549   4.942   1.288  15.393  0.3752 -0.7069 -0.2406
 4020TIP3   OH233550   6.152   5.138  13.355 -0.3334 -0.2586  0.3455
 4020TIP3    H133551   6.080   5.119  13.295  0.3281  0.6176 -0.7670
 4020TIP3    H233552   6.147   5.233  13.368 -1.0502 -0.5453  2.4723
 4021TIP3   OH233553   3.277   2.398   4.688 -0.0300  0.0878  0.0074
 4021TIP3    H133554   3.255   2.347   4.610 -1.3968 -2.1717  1.7636
 4021TIP3    H233555   3.339   2.343   4.736 -1.9924 -0.3204  2.2505
 4022TIP3   OH233556   0.571   4.418   6.627 -0.4248  0.6151 -0.2615
 4022TIP3    H133557   0.504   4.486   6.634 -1.0612  0.2361 -2.1181
 4022TIP3    H233558   0.524   4.341   6.594  0.3543 -0.6454  1.4037
 4023TIP3   OH233559   1.941   0.065   2.735  0.0508 -0.5451 -0.6122
 4023TIP3    H133560   2.037   0.062   2.731  0.1451 -0.2604  0.9051
 4023TIP3    H233561   1.921   0.139   2.792 -1.1654  0.9079 -2.7689
 4024TIP3   OH233562   6.278   5.826  15.926  0.5498 -0.2615 -0.0270
 4024TIP3    H133563   6.188   5.841  15.900  0.6843 -0.4503 -0.6227
 4024TIP3    H233564   6.273   5.800  16.018  0.1185  1.0218  0.3364
 4025TIP3   OH233565   5.643   1.673   3.317 -0.0223  0.0662 -0.1204
 4025TIP3    H133566   5.564   1.664   3.370 -0.7924 -0.3003 -1.3064
 4025TIP3    H233567   5.712   1.634   3.371 -1.1548 -2.2059 -0.2303
 4026TIP3   OH233568   2.735   1.511  11.469  0.1186 -0.2916 -0.0011
 4026TIP3    H133569   2.661   1.453  11.451  0.7633 -0.6064 -1.7857
 4026TIP3    H233570   2.701   1.574  11.533 -1.3333 -1.1168  0.0864
 4027TIP3   OH233571   0.730   0.352  14.631  0.0574  0.1645 -0.4402
 4027TIP3    H133572   0.655   0.315  14.584  1.3129  0.3883 -2.8044
 4027TIP3    H233573   0.696   0.431  14.673 -1.6728 -1.3111  1.0877
 4028TIP3   OH233574   4.442   5.606   4.703  0.0544 -0.7736  0.8026
 4028TIP3    H133575   4.399   5.521   4.689  0.9051 -1.1869  0.5858
 4028TIP3    H233576   4.462   5.608   4.796 -1.6714  0.0422  1.1855
 4029TIP3   OH233577   0.329   2.254  16.653 -0.5559  0.2556 -0.1537
 4029TIP3    H133578   0.250   2.259  16.706 -1.7326 -2.9524 -1.3423
 4029TIP3    H233579   0.367   2.168  16.675  0.9404  0.4364 -1.7736
 4030TIP3   OH233580   3.819   6.145   4.258 -0.3640  0.3227  0.2869
 4030TIP3    H133581   3.767   6.111   4.331  1.4119  1.6641  2.2978
 4030TIP3    H233582   3.755   6.181   4.197 -1.9168 -0.9075  1.1390
 4031TIP3   OH233583   4.687   1.021   3.578 -0.3615 -0.0149  0.2637
 4031TIP3    H133584   4.653   0.977   3.655 -0.0030  1.1551  1.1221
 4031TIP3    H233585   4.780   1.037   3.598  0.2036 -1.2527 -1.1523
 4032TIP3   OH233586   3.646   5.626  16.904  0.3210  0.1103 -0.1911
 4032TIP3    H133587   3.561   5.670  16.908  0.6745  0.9277 -1.2056
 4032TIP3    H233588   3.675   5.623  16.995 -1.2503 -1.1569  0.3297
 4033TIP3   OH233589   2.117   3.512   4.591  0.0102 -0.2729  0.0731
 4033TIP3    H133590   2.072   3.442   4.638 -0.8616  0.0306 -0.2855
 4033TIP3    H233591   2.061   3.589   4.604  1.1227  0.4447  0.7331
 4034TIP3   OH233592   3.733   0.688   1.155 -0.5835 -0.2300  0.2691
 4034TIP3    H133593   3.792   0.658   1.086 -0.4798  0.6174 -0.0211
 4034TIP3    H233594   3.787   0.687   1.234 -0.9938 -2.2243  0.5709
 4035TIP3   OH233595   6.021   5.112  17.283 -0.0921 -0.6639  0.2519
 4035TIP3    H133596   5.981   5.062  17.354  0.6696 -0.3107  0.9446
 4035TIP3    H233597   6.030   5.200  17.317 -0.0798 -0.3917 -0.4305
 4036TIP3   OH233598   2.675   4.521   3.286  0.4998  0.2008  0.1730
 4036TIP3    H133599   2.643   4.492   3.372 -0.7499  0.3403 -0.2281
 4036TIP3    H233600   2.622   4.472   3.223  1.7386 -0.2633 -0.5446
 4037TIP3   OH233601   3.661   2.580  12.162 -0.3262 -0.3333 -0.0108
 4037TIP3    H133602   3.585   2.524  12.147 -1.0490  0.4961  0.4804
 4037TIP3    H233603   3.680   2.618  12.075  0.3986 -1.5969 -0.4223
 4038TIP3   OH233604   4.277   6.717   5.915  0.2436  0.3040 -0.4532
 4038TIP3    H133605   4.299   6.801   5.954  1.7131 -0.3977  0.3050
 4038TIP3    H233606   4.337   6.709   5.841  2.0676 -1.2175  1.0755
 4039TIP3   OH233607   3.894   0.141  15.984  0.3409 -0.7004  0.1944
 4039TIP3    H133608   3.947   0.199  15.930  0.8536 -0.8001  0.5785
 4039TIP3    H233609   3.951   0.117  16.057  0.0768 -1.5379  0.1410
 4040TIP3   OH233610   2.387   1.733  15.859  0.2808 -0.1905 -0.1501
 4040TIP3    H133611   2.434   1.741  15.943 -1.4154  0.2482  0.7959
 4040TIP3    H233612   2.300   1.701  15.883 -0.0216 -0.7280 -1.8351
 4041TIP3   OH233613   0.136   4.652   1.282 -0.4769 -0.0899 -0.1995
 4041TIP3    H133614   0.165   4.642   1.192 -2.0095  0.7938 -0.8296
 4041TIP3    H233615   0.156   4.743   1.304 -0.6887 -0.1189  0.1296
 4042TIP3   OH233616   3.776   2.152   5.923 -0.1561 -0.3949  0.1895
 4042TIP3    H133617   3.729   2.070   5.906 -2.6596  1.0011 -0.2105
 4042TIP3    H233618   3.742   2.182   6.008  1.4467 -0.2126  0.7928
 4043TIP3   OH233619   4.482   4.504  15.165  0.5754 -0.2364  0.5194
 4043TIP3    H133620   4.535   4.427  15.144  1.4113  0.1176  1.2506
 4043TIP3    H233621   4.544   4.577  15.161  0.0372  0.2516  0.9267
 4044TIP3   OH233622   3.853   5.247  16.234 -0.8924 -0.1431 -0.5967
 4044TIP3    H133623   3.889   5.242  16.323  0.6852 -0.3207 -1.2187
 4044TIP3    H233624   3.775   5.191  16.237 -1.3338  0.4985  0.8679
 4045TIP3   OH233625   2.011   5.995   6.058 -0.0102 -0.2012  0.0889
 4045TIP3    H133626   2.000   6.040   6.143 -3.0570  1.1172 -0.8759
 4045TIP3    H233627   1.978   5.907   6.073 -0.1692 -0.0936  0.3894
 4046TIP3   OH233628   5.349   4.093  15.692  0.1795  0.3424  0.4241
 4046TIP3    H133629   5.330   4.040  15.770 -2.0955  0.6011  0.1169
 4046TIP3    H233630   5.309   4.178  15.711  0.8366  0.8634 -0.4668
 4047TIP3   OH233631   4.176   2.342  16.065  0.4330  0.1491 -0.4973
 4047TIP3    H133632   4.251   2.400  16.050  1.2011 -1.0905 -1.6644
 4047TIP3    H233633   4.113   2.365  15.996  0.2142  0.4120 -0.2135
 4048TIP3   OH233634   2.563   0.393   1.912  0.4238  0.0201 -0.2868
 4048TIP3    H133635   2.626   0.322   1.926 -1.1865 -1.5093 -0.4047
 4048TIP3    H233636   2.486   0.349   1.875 -0.6446  1.8506 -0.3374
 4049TIP3   OH233637   1.658   1.398   3.276 -0.1214 -0.3133 -0.3388
 4049TIP3    H133638   1.747   1.397   3.240 -1.0535 -0.8124 -2.8405
 4049TIP3    H233639   1.624   1.310   3.257 -2.0776  0.7332 -2.1286
 4050TIP3   OH233640   6.563   5.902  16.385 -0.8023  0.2678  0.5520
 4050TIP3    H133641   6.596   5.820  16.348  1.4545  1.7698 -1.0815
 4050TIP3    H233642   6.606   5.909  16.470  0.0516  0.3553  0.1233
 4051TIP3   OH233643   4.355   4.046   6.389  0.1746 -0.4698 -0.4562
 4051TIP3    H133644   4.277   4.009   6.430  1.5679 -0.6296  2.3347
 4051TIP3    H233645   4.377   3.983   6.320  0.0069 -2.6076  1.3120
 4052TIP3   OH233646   3.508   5.047  11.860 -0.1129 -0.5037 -0.3988
 4052TIP3    H133647   3.497   5.140  11.881  0.7303 -0.4808 -0.0057
 4052TIP3    H233648   3.524   5.005  11.944  0.4731 -0.8516 -0.6724
 4053TIP3   OH233649   1.441   4.205   5.336  0.5681  0.3459 -0.9039
 4053TIP3    H133650   1.477   4.126   5.378 -2.4912 -0.6460  0.1056
 4053TIP3    H233651   1.437   4.270   5.406  1.1897  0.7545 -1.2378
 4054TIP3   OH233652   2.297   6.322   4.211 -0.3220  0.2774 -0.3840
 4054TIP3    H133653   2.211   6.322   4.170 -0.9693 -2.1278  0.7573
 4054TIP3    H233654   2.349   6.262   4.158  0.6369  1.5684 -0.9546
 4055TIP3   OH233655   4.209   3.694  12.960 -0.0989  0.3058 -0.5547
 4055TIP3    H133656   4.257   3.617  12.928  0.2248  0.2048  0.1655
 4055TIP3    H233657   4.148   3.715  12.889 -1.7390 -1.9402  0.0470
 4056TIP3   OH233658   3.330   4.385   1.440 -0.4085 -0.5580  0.2776
 4056TIP3    H133659   3.377   4.461   1.474 -0.8603 -0.8720  1.6868
 4056TIP3    H233660   3.381   4.310   1.472 -0.8745 -0.8720  0.2926
 4057TIP3   OH233661   3.851   2.617   5.988  0.1570  0.0248 -0.6560
 4057TIP3    H133662   3.797   2.538   5.981 -0.3475  0.3660 -0.6858
 4057TIP3    H233663   3.818   2.661   6.066  0.9572 -0.1782 -0.1965
 4058TIP3   OH233664   2.352   4.717   5.808 -0.8632  0.7195  0.0129
 4058TIP3    H133665   2.411   4.758   5.744 -0.3462  0.0536  0.0527
 4058TIP3    H233666   2.326   4.635   5.767 -1.8319  1.0357 -0.0338
 4059TIP3   OH233667   1.578   0.924   5.773 -0.5204  0.4272  0.0307
 4059TIP3    H133668   1.650   0.862   5.763 -0.7204  0.1046  0.5546
 4059TIP3    H233669   1.547   0.940   5.684 -1.0112 -0.8684 -0.0397
 4060TIP3   OH233670   5.854   2.202   0.914 -0.2480  0.3000 -0.0047
 4060TIP3    H133671   5.827   2.261   0.844  0.0124  1.1753  0.6185
 4060TIP3    H233672   5.944   2.176   0.891  0.8753  2.6991  1.3097
 4061TIP3   OH233673   6.086   0.699  13.887  0.4254  0.5873 -0.2263
 4061TIP3    H133674   6.115   0.610  13.868 -1.1121  0.5145 -2.7456
 4061TIP3    H233675   6.064   0.698  13.980 -1.3411 -2.2554 -0.5531
 4062TIP3   OH233676   0.455   3.280   2.549 -0.3647 -0.5509  0.2025
 4062TIP3    H133677   0.395   3.355   2.547 -0.5689 -0.7162  0.0404
 4062TIP3    H233678   0.420   3.224   2.619  0.1464 -0.2024  0.7425
 4063TIP3   OH233679   4.280   0.273  13.751 -0.3168  0.0554 -0.0559
 4063TIP3    H133680   4.306   0.184  13.728 -1.1693 -0.0600 -0.6160
 4063TIP3    H233681   4.328   0.328  13.689 -0.9161 -0.1191 -0.6921
 4064TIP3   OH233682   4.940   3.713   5.104 -0.2174  0.1390  0.2749
 4064TIP3    H133683   4.854   3.679   5.081 -0.5430  2.3587 -2.2082
 4064TIP3    H233684   4.931   3.744   5.194 -2.2334  0.9176 -0.1606
 4065TIP3   OH233685   0.218   6.145  12.222  0.0386  0.1005 -0.2019
 4065TIP3    H133686   0.136   6.123  12.268 -0.5308  0.0319 -1.2285
 4065TIP3    H233687   0.240   6.066  12.173  1.4942 -0.3674  1.1423
 4066TIP3   OH233688   0.663   3.958   1.467  0.4075 -0.6905 -0.6877
 4066TIP3    H133689   0.658   3.867   1.497  0.4024 -0.3661  0.3168
 4066TIP3    H233690   0.753   3.985   1.487 -0.2971  0.2960  1.3235
 4067TIP3   OH233691   5.115   1.345  15.239  0.2558  0.8390  0.0711
 4067TIP3    H133692   5.109   1.342  15.334  2.8973  0.6813  0.3030
 4067TIP3    H233693   5.107   1.253  15.211 -0.2436  0.8546  0.1648
 4068TIP3   OH233694   5.403   1.863  13.019 -0.4387 -0.1424  0.2755
 4068TIP3    H133695   5.484   1.855  13.070 -2.0240 -1.6983  2.8293
 4068TIP3    H233696   5.399   1.783  12.968  0.8927  1.1853 -2.0683
 4069TIP3   OH233697   3.085   2.001   0.983  0.1459  0.3783 -0.2166
 4069TIP3    H133698   3.019   1.961   1.040  0.5933  0.9081  0.7067
 4069TIP3    H233699   3.086   2.093   1.009  0.0754  0.7161 -1.3757
 4070TIP3   OH233700   6.464   5.325   0.638  0.0285  0.4417 -0.0165
 4070TIP3    H133701   6.458   5.419   0.654  2.4644  0.8404 -0.9223
 4070TIP3    H233702   6.400   5.307   0.570 -1.6691  1.0723  1.3571
 4071TIP3   OH233703   3.844   5.480   5.418 -0.3875  0.2506 -0.6686
 4071TIP3    H133704   3.794   5.460   5.339  0.1032  1.0341 -1.1791
 4071TIP3    H233705   3.785   5.533   5.471 -0.4736  0.2886 -0.8030
 4072TIP3   OH233706   2.270   4.156  10.903 -0.1145 -0.4753  0.3045
 4072TIP3    H133707   2.232   4.117  10.825 -0.4607 -0.7470  0.6058
 4072TIP3    H233708   2.211   4.228  10.926  0.6850  0.4488 -0.4247
 4073TIP3   OH233709   2.509   0.966  14.012 -0.2569 -0.9164 -0.1204
 4073TIP3    H133710   2.430   0.928  13.974  0.1540 -1.7590 -0.1549
 4073TIP3    H233711   2.479   1.047  14.054 -1.0005 -0.8356 -0.7884
 4074TIP3   OH233712   0.634   2.744  10.454  0.7128 -0.2770  0.5690
 4074TIP3    H133713   0.567   2.688  10.493 -0.3859  0.6249  0.0203
 4074TIP3    H233714   0.633   2.824  10.507  1.0354 -0.0738  0.2729
 4075TIP3   OH233715   2.556   5.329  13.232 -0.2623  0.3037 -0.1602
 4075TIP3    H133716   2.490   5.380  13.279  0.7232  1.9560 -0.4908
 4075TIP3    H233717   2.576   5.256  13.290 -1.8779  0.1293  0.2268
 4076TIP3   OH233718   6.392   5.660   3.914 -0.1370  0.1628  0.7260
 4076TIP3    H133719   6.333   5.655   3.839 -0.2793 -1.7879  0.9182
 4076TIP3    H233720   6.335   5.678   3.989 -0.5430 -1.6698  0.9048
 4077TIP3   OH233721   2.348   3.557   2.285  0.1668 -0.0965  0.4325
 4077TIP3    H133722   2.316   3.594   2.203 -1.6317 -1.5990  0.4012
 4077TIP3    H233723   2.409   3.488   2.258 -0.3184 -0.4964  0.3309
 4078TIP3   OH233724   5.930   6.527   2.871  0.2315 -0.6835  0.0362
 4078TIP3    H133725   5.997   6.577   2.824 -0.5303 -0.0600 -0.4148
 4078TIP3    H233726   5.950   6.542   2.964  1.3016 -1.3198 -0.0792
 4079TIP3   OH233727   3.416   1.629  12.083 -0.0688 -0.3040 -0.2369
 4079TIP3    H133728   3.340   1.631  12.024 -0.0726 -0.9731 -0.2640
 4079TIP3    H233729   3.453   1.542  12.071  1.1877  0.2845 -0.8190
 4080TIP3   OH233730   2.993   5.679   2.943 -0.3482 -0.6362  0.2450
 4080TIP3    H133731   3.010   5.655   3.034 -1.2742  0.4035  0.7196
 4080TIP3    H233732   2.996   5.775   2.943 -3.4652 -0.4213 -0.1112
 4081TIP3   OH233733   6.714   3.752  15.686  0.2806  0.2243  0.2714
 4081TIP3    H133734   6.727   3.687  15.617  2.0125  0.9337 -0.1205
 4081TIP3    H233735   6.629   3.791  15.665 -0.3103 -1.1756 -0.0813
 4082TIP3   OH233736   1.502   5.864   3.066  0.0518  0.6879  0.2432
 4082TIP3    H133737   1.546   5.916   3.134  0.1997  2.8760 -1.4305
 4082TIP3    H233738   1.409   5.878   3.081  0.0010 -0.3808  1.0932
 4083TIP3   OH233739   6.041   3.886   5.653  0.4795  0.0211  0.4201
 4083TIP3    H133740   6.055   3.979   5.635  1.4338 -0.4190 -1.3805
 4083TIP3    H233741   5.969   3.884   5.716 -1.2741  1.9101 -1.3705
 4084TIP3   OH233742   3.710   2.729   2.460 -0.4622 -0.4218  0.7772
 4084TIP3    H133743   3.641   2.790   2.432 -0.5143 -0.3668  1.0222
 4084TIP3    H233744   3.721   2.747   2.554 -0.1487 -0.4657  0.7484
 4085TIP3   OH233745   0.539   5.179  14.800  0.4387  0.4379  0.5834
 4085TIP3    H133746   0.502   5.106  14.751 -1.1122 -0.8877  3.4799
 4085TIP3    H233747   0.625   5.193  14.760 -1.2379  0.6464 -3.4854
 4086TIP3   OH233748   6.006   6.585  14.628 -0.1491  0.7491  0.6551
 4086TIP3    H133749   6.031   6.497  14.600 -1.2068  0.3475  0.9006
 4086TIP3    H233750   6.082   6.619  14.674  0.7007  0.4295 -0.4873
 4087TIP3   OH233751   5.262   1.562  15.534 -0.5448 -0.0140  0.3940
 4087TIP3    H133752   5.196   1.499  15.565  1.7140 -1.9736  1.5816
 4087TIP3    H233753   5.278   1.537  15.443  0.5265 -1.4294  0.9340
 4088TIP3   OH233754   5.070   2.342   3.343 -0.5161 -0.2439 -0.3365
 4088TIP3    H133755   5.067   2.414   3.281 -0.3469  1.3080  1.3855
 4088TIP3    H233756   5.154   2.300   3.327  0.6011  1.6268  0.4251
 4089TIP3   OH233757   1.984   2.708   3.663 -0.2056  0.4146 -0.0405
 4089TIP3    H133758   1.967   2.712   3.757  1.2377 -0.3783  0.2854
 4089TIP3    H233759   1.947   2.789   3.628  0.4960  1.4138  1.4371
 4090TIP3   OH233760   3.348   5.836   3.879 -0.8110 -0.7758 -0.3010
 4090TIP3    H133761   3.415   5.892   3.918 -1.0614  0.0055 -0.9770
 4090TIP3    H233762   3.321   5.882   3.800 -1.0250 -1.8495 -0.8676
 4091TIP3   OH233763   0.965   2.379  16.206  0.0082  0.1576 -0.6866
 4091TIP3    H133764   0.996   2.339  16.124  2.2151  0.4522 -0.0358
 4091TIP3    H233765   0.888   2.430  16.179  1.0984  0.8438 -2.7146
 4092TIP3   OH233766   0.597   3.900   5.859 -0.1232  0.1438  0.0545
 4092TIP3    H133767   0.578   3.935   5.946  1.6291 -0.0473  0.5569
 4092TIP3    H233768   0.643   3.971   5.814 -0.7828  0.1467 -0.6339
 4093TIP3   OH233769   1.250   3.037  16.868 -0.0328 -0.1633 -0.5521
 4093TIP3    H133770   1.288   3.125  16.859 -1.5176  0.5208 -0.4640
 4093TIP3    H233771   1.326   2.979  16.874  1.0067  1.2326  0.6672
 4094TIP3   OH233772   6.202   0.347   3.754  0.1511  0.2077  0.4040
 4094TIP3    H133773   6.226   0.421   3.808 -2.0862  1.0877  0.2777
 4094TIP3    H233774   6.122   0.374   3.709 -0.5389 -2.1365  0.0715
 4095TIP3   OH233775   0.299   4.417   5.309 -0.1451 -0.1182 -0.7146
 4095TIP3    H133776   0.350   4.337   5.328  1.1216  0.7298 -0.3773
 4095TIP3    H233777   0.208   4.390   5.318  0.2726 -1.3716  0.0765
 4096TIP3   OH233778   3.077   6.050   4.768 -0.7303  0.2574 -0.2002
 4096TIP3    H133779   3.066   6.120   4.833  0.4302  0.3507 -0.0730
 4096TIP3    H233780   3.019   5.980   4.798 -0.7402  0.5729  0.5511
 4097TIP3   OH233781   1.388   0.871   3.127 -0.2438 -0.1396  0.1858
 4097TIP3    H133782   1.310   0.835   3.085  0.3419 -1.3689  0.1100
 4097TIP3    H233783   1.398   0.819   3.206  0.7782 -0.3406 -0.0644
 4098TIP3   OH233784   4.007   6.310   4.393 -0.4693  0.0649 -0.1061
 4098TIP3    H133785   3.961   6.390   4.418  2.8746  1.6984  1.5261
 4098TIP3    H233786   3.987   6.248   4.464 -2.2378 -0.2502 -0.8385
 4099TIP3   OH233787   4.381   1.183  12.545 -0.0837  0.0144  0.0267
 4099TIP3    H133788   4.324   1.235  12.489 -0.5883 -0.0197  0.5040
 4099TIP3    H233789   4.372   1.222  12.632  0.6770  0.0556  0.0968
 4100TIP3   OH233790   6.170   1.054   2.410  0.3123 -0.1134 -0.6363
 4100TIP3    H133791   6.132   1.090   2.490  1.4828  2.3513 -1.0760
 4100TIP3    H233792   6.264   1.048   2.429  0.3605 -1.2780 -1.2043
 4101TIP3   OH233793   0.447   4.081   5.533  0.2231  0.2156 -0.5114
 4101TIP3    H133794   0.506   4.063   5.606 -0.4191 -0.4342 -0.1467
 4101TIP3    H233795   0.436   3.997   5.489 -0.1695  0.3976 -0.7692
 4102TIP3   OH233796   4.652   1.270  12.325 -0.2199 -0.2527 -0.1765
 4102TIP3    H133797   4.651   1.337  12.393  3.3522 -0.0074 -0.2055
 4102TIP3    H233798   4.683   1.191  12.370 -0.1080 -0.7041 -1.0251
 4103TIP3   OH233799   5.411   0.730   4.433 -0.1385 -0.3695 -0.2574
 4103TIP3    H133800   5.326   0.750   4.395 -0.5959  1.3833  1.5177
 4103TIP3    H233801   5.409   0.636   4.450 -0.7001 -0.8294 -2.4899
 4104TIP3   OH233802   6.120   3.618  15.189  0.0443 -0.3334 -0.6827
 4104TIP3    H133803   6.138   3.543  15.132 -0.7377 -0.6225 -0.5718
 4104TIP3    H233804   6.190   3.617  15.254  0.7574 -0.1996 -1.4331
 4105TIP3   OH233805   1.402   6.608  11.526 -0.1037 -0.1733  0.5622
 4105TIP3    H133806   1.363   6.573  11.446 -0.2277  3.5401 -1.2362
 4105TIP3    H233807   1.350   6.571  11.597 -1.1497 -2.2057 -1.1645
 4106TIP3   OH233808   5.918   2.563   3.437 -0.1835 -0.0761 -0.0900
 4106TIP3    H133809   5.916   2.641   3.381  0.4104 -0.2406 -0.3397
 4106TIP3    H233810   5.846   2.509   3.405 -1.4525  0.9318  0.9159
 4107TIP3   OH233811   3.428   0.653   1.362  0.5012 -0.5145  0.0521
 4107TIP3    H133812   3.391   0.722   1.306 -0.9195 -1.5853 -0.4041
 4107TIP3    H233813   3.474   0.595   1.301  0.3231 -0.8211  0.2058
 4108TIP3   OH233814   3.703   3.607  16.238  0.0235 -0.0987 -0.8171
 4108TIP3    H133815   3.609   3.621  16.250 -0.1709  0.4891 -2.6756
 4108TIP3    H233816   3.712   3.512  16.231 -0.4235 -0.1607 -0.6087
 4109TIP3   OH233817   2.104   0.964  15.625 -0.1160  0.3791  0.9533
 4109TIP3    H133818   2.083   0.887  15.572  1.6300  0.2179  0.4548
 4109TIP3    H233819   2.112   1.036  15.562  0.9978  0.3828  1.0751
 4110TIP3   OH233820   3.236   0.931  14.830 -0.0578  0.3970  0.4095
 4110TIP3    H133821   3.304   0.968  14.774  0.2007 -0.0622  0.4087
 4110TIP3    H233822   3.157   0.979  14.807  0.2588  0.9164  0.3844
 4111TIP3   OH233823   4.653   0.800   2.787  0.0394 -0.2602  0.4356
 4111TIP3    H133824   4.671   0.804   2.881  0.2073 -2.5362  0.5599
 4111TIP3    H233825   4.594   0.725   2.777 -0.3230  0.2168 -1.2298
 4112TIP3   OH233826   4.382   0.964   3.886 -0.8691  0.2825 -0.5473
 4112TIP3    H133827   4.474   0.983   3.866 -0.3119 -0.7168  0.8978
 4112TIP3    H233828   4.358   1.029   3.952 -0.0773 -1.5150  1.6635
 4113TIP3   OH233829   0.407   2.844   5.973  0.3245 -0.2335 -0.3456
 4113TIP3    H133830   0.353   2.923   5.967 -0.9783 -1.0936 -0.4670
 4113TIP3    H233831   0.463   2.858   6.049 -0.6806  0.3476  0.3070
 4114TIP3   OH233832   2.882   3.492   4.081 -0.0840  0.2525  0.1297
 4114TIP3    H133833   2.830   3.442   4.143  1.0181 -1.7612 -0.4907
 4114TIP3    H233834   2.932   3.427   4.032  1.2976  1.9469 -0.8689
 4115TIP3   OH233835   1.715   3.645  12.890 -0.1965 -0.2048 -0.2757
 4115TIP3    H133836   1.622   3.666  12.884 -0.7502 -2.5851 -1.8727
 4115TIP3    H233837   1.718   3.566  12.944  0.8482 -0.3039 -0.4551
 4116TIP3   OH233838   6.686   0.619   2.427 -0.0622  0.0146 -0.1044
 4116TIP3    H133839   6.695   0.713   2.414  1.2463  0.0328  0.7624
 4116TIP3    H233840   6.677   0.583   2.339 -0.4226  0.9312 -0.4497
 4117TIP3   OH233841   6.438   2.655  16.622  0.4588  0.0130 -0.0450
 4117TIP3    H133842   6.423   2.560  16.617  0.6821 -0.1367  1.5223
 4117TIP3    H233843   6.529   2.663  16.649  1.4675  0.7907 -3.2513
 4118TIP3   OH233844   6.423   2.874   3.780  0.2101  0.0935 -0.0846
 4118TIP3    H133845   6.466   2.841   3.701 -0.8226 -1.0624 -0.1906
 4118TIP3    H233846   6.342   2.824   3.786  0.3719 -0.0194  1.8452
 4119TIP3   OH233847   4.812   5.609   2.224  0.4287  0.0920  0.4363
 4119TIP3    H133848   4.771   5.688   2.189  0.2402  0.6427  1.8176
 4119TIP3    H233849   4.894   5.601   2.175 -0.3474  0.1394 -0.9262
 4120TIP3   OH233850   3.592   4.179   4.762 -0.5003 -0.1366  0.6644
 4120TIP3    H133851   3.602   4.116   4.833 -2.5934 -0.0048  1.1431
 4120TIP3    H233852   3.650   4.251   4.786  1.9256 -1.8088  0.1080
 4121TIP3   OH233853   5.229   0.693   0.931  0.1343 -0.0255 -0.3754
 4121TIP3    H133854   5.187   0.761   0.983  0.7224  0.2015 -0.1903
 4121TIP3    H233855   5.156   0.642   0.895 -0.3482  1.1579 -1.1516
 4122TIP3   OH233856   5.199   3.073  11.477  0.0126 -0.0690  0.2352
 4122TIP3    H133857   5.186   3.065  11.572 -1.9846  1.8144  0.1882
 4122TIP3    H233858   5.244   2.992  11.453  0.5029 -0.6506  2.7610
 4123TIP3   OH233859   2.814   5.307   0.671  0.0472 -0.0521  0.5395
 4123TIP3    H133860   2.766   5.379   0.631  0.1982 -0.6677 -0.7817
 4123TIP3    H233861   2.836   5.339   0.759 -0.5393  1.2117  0.2456
 4124TIP3   OH233862   3.232   6.235  12.543  0.0879 -0.4816  0.2026
 4124TIP3    H133863   3.279   6.300  12.595 -0.5358  0.4938 -0.4118
 4124TIP3    H233864   3.166   6.200  12.602 -0.0517 -0.0184  0.3254
 4125TIP3   OH233865   1.467   0.174   4.307 -0.5686 -0.0352 -0.6446
 4125TIP3    H133866   1.505   0.097   4.349 -2.2096 -0.5057  0.0510
 4125TIP3    H233867   1.452   0.236   4.378  0.0743  0.6618 -1.0986
 4126TIP3   OH233868   0.794   0.876  15.421 -0.1057 -0.2145 -0.4315
 4126TIP3    H133869   0.879   0.832  15.431  0.7472  1.4690  0.2403
 4126TIP3    H233870   0.769   0.900  15.511  0.3339  2.1013 -0.8525
 4127TIP3   OH233871   1.300   5.266  12.252 -0.0067 -0.4259 -0.1700
 4127TIP3    H133872   1.241   5.236  12.182 -1.4416 -0.6601  1.0892
 4127TIP3    H233873   1.335   5.186  12.290  1.3120 -0.2855 -1.0137
 4128TIP3   OH233874   3.927   0.758  13.569 -0.3696 -0.0550 -0.3600
 4128TIP3    H133875   3.963   0.762  13.658 -1.9678 -1.2837  0.3916
 4128TIP3    H233876   3.856   0.822  13.569 -0.7369 -0.4611 -0.5837
 4129TIP3   OH233877   4.080   4.812   2.988  0.1085 -0.6265 -0.2347
 4129TIP3    H133878   4.047   4.830   2.900 -2.2043  1.0332  0.8326
 4129TIP3    H233879   4.038   4.730   3.013 -1.4160  0.2380  0.2109
 4130TIP3   OH233880   4.421   6.475   5.512 -0.0092 -0.6885 -0.3089
 4130TIP3    H133881   4.468   6.509   5.435 -1.1316  1.1474 -0.2229
 4130TIP3    H233882   4.483   6.484   5.584  0.4367 -0.8158 -0.6707
 4131TIP3   OH233883   1.789   0.735   5.760  0.5276 -0.0191 -0.1072
 4131TIP3    H133884   1.735   0.657   5.771  0.6484  0.1153  1.6379
 4131TIP3    H233885   1.855   0.730   5.829 -0.3132  2.3169  0.9701
 4132TIP3   OH233886   0.015   3.725  12.028  0.4913  0.1642 -0.2425
 4132TIP3    H133887   0.020   3.817  12.051  1.5044  0.3995 -1.2907
 4132TIP3    H233888  -0.050   3.688  12.087  1.0636  1.2592  1.1156
 4133TIP3   OH233889   1.980   2.499   2.777 -0.5310  0.4467  0.2194
 4133TIP3    H133890   1.897   2.472   2.737 -1.1206  2.3716  0.0397
 4133TIP3    H233891   2.004   2.579   2.729  1.5423 -0.1805  0.1466
 4134TIP3   OH233892   4.778   6.540  17.004  0.1436  0.6285  0.6500
 4134TIP3    H133893   4.698   6.570  17.047  0.3606  0.8045  0.9350
 4134TIP3    H233894   4.799   6.457  17.048  0.4613  0.8941  1.0086
 4135TIP3   OH233895   1.733   4.431   5.060 -0.5390  0.2974  0.6879
 4135TIP3    H133896   1.700   4.520   5.069 -1.6023 -0.1069  1.0052
 4135TIP3    H233897   1.798   4.421   5.129  0.0967  1.0367  0.2087
 4136TIP3   OH233898   0.102   5.539   5.832 -0.4204  0.3040  0.3150
 4136TIP3    H133899   0.187   5.512   5.867  0.9135 -0.1965 -2.9627
 4136TIP3    H233900   0.115   5.630   5.805 -1.3796  0.6562  0.9787
 4137TIP3   OH233901   3.293   0.278   2.514  0.0130  0.3321  0.4867
 4137TIP3    H133902   3.216   0.234   2.479  0.6748 -0.6213  0.1720
 4137TIP3    H233903   3.365   0.217   2.496  1.1645  2.0740 -1.0484
 4138TIP3   OH233904   2.562   4.470   6.055  0.4848 -0.7265  0.0456
 4138TIP3    H133905   2.607   4.435   6.132 -0.4145  1.5061  1.6794
 4138TIP3    H233906   2.631   4.478   5.988  1.5186 -1.6360  0.9648
 4139TIP3   OH233907   5.631   6.451   3.679  0.1249 -0.7932  0.5874
 4139TIP3    H133908   5.659   6.450   3.588  0.4622 -0.9421  0.6929
 4139TIP3    H233909   5.545   6.494   3.677  1.1260  1.3052  0.4823
 4140TIP3   OH233910   4.492   3.291   0.169 -0.1051  0.0277 -0.5922
 4140TIP3    H133911   4.418   3.247   0.126 -0.7902  2.4345 -2.1153
 4140TIP3    H233912   4.459   3.379   0.189  2.3971  1.3460 -1.6989
 4141TIP3   OH233913   0.528   1.869   6.654 -0.5333 -0.7081  0.0826
 4141TIP3    H133914   0.566   1.786   6.627  1.0345  0.0416 -0.1241
 4141TIP3    H233915   0.472   1.895   6.580  2.9960  0.8697 -2.3165
 4142TIP3   OH233916   6.713   0.522   4.300 -0.9273 -0.5975  0.1214
 4142TIP3    H133917   6.788   0.465   4.313 -2.6334 -2.9634  0.2347
 4142TIP3    H233918   6.661   0.479   4.232 -1.7808  1.3916 -0.5539
 4143TIP3   OH233919   4.814   4.350   4.886  0.1055 -0.4731  0.3360
 4143TIP3    H133920   4.795   4.299   4.807  1.5460  0.4124 -0.6318
 4143TIP3    H233921   4.793   4.440   4.862 -1.4248 -0.4254  1.6838
 4144TIP3   OH233922   1.985   2.134   3.293  0.0949 -0.9697 -0.1541
 4144TIP3    H133923   1.908   2.081   3.273 -0.7982  0.1045  0.3390
 4144TIP3    H233924   1.958   2.224   3.275  0.9401 -0.4854  0.8651
 4145TIP3   OH233925   2.368   1.948  11.136  0.2099  0.1486 -0.3268
 4145TIP3    H133926   2.355   1.991  11.051  1.6304  2.5003  0.5580
 4145TIP3    H233927   2.445   1.892  11.122  0.6168  0.7465 -0.5465
 4146TIP3   OH233928   4.923   2.420   5.955 -0.1176 -0.1770 -0.4103
 4146TIP3    H133929   4.969   2.474   5.890 -2.5055 -0.6501 -2.6352
 4146TIP3    H233930   4.897   2.483   6.023  2.6653  0.2793  0.3930
 4147TIP3   OH233931   2.062   2.719  16.518 -0.0045  0.5388  0.6694
 4147TIP3    H133932   2.007   2.767  16.579  0.7806  1.5150  0.6404
 4147TIP3    H233933   2.048   2.627  16.540 -0.4221  0.8395  1.7179
 4148TIP3   OH233934   4.857   2.262   5.085  0.6002  0.3662  0.3862
 4148TIP3    H133935   4.880   2.331   5.023  3.4419 -1.2229 -0.5150
 4148TIP3    H233936   4.761   2.265   5.090  0.5201  3.0640 -1.0494
 4149TIP3   OH233937   0.108   4.651  12.594 -0.1220 -0.3931 -0.1122
 4149TIP3    H133938   0.019   4.620  12.610  0.2001 -0.7243  1.1277
 4149TIP3    H233939   0.123   4.634  12.501 -0.9757 -1.2988 -0.0941
 4150TIP3   OH233940   4.873   1.370  17.099  0.0802 -0.4258 -0.0023
 4150TIP3    H133941   4.830   1.434  17.156 -0.8526 -1.6069  0.6608
 4150TIP3    H233942   4.918   1.311  17.159  0.7635 -0.5180 -0.5978
 4151TIP3   OH233943   6.703   5.838  11.225  0.3250 -0.1072 -0.3800
 4151TIP3    H133944   6.733   5.747  11.228 -0.1973 -0.2690  1.8646
 4151TIP3    H233945   6.607   5.831  11.224  0.2050  0.3372  1.8016
 4152TIP3   OH233946   3.819   3.798  15.032  0.3556 -0.0431  0.7330
 4152TIP3    H133947   3.733   3.757  15.031  0.6807 -0.8101 -2.0519
 4152TIP3    H233948   3.801   3.892  15.027 -0.3395 -0.2232 -0.3710
 4153TIP3   OH233949   5.180   6.500  11.850 -0.3308 -0.6971  0.2082
 4153TIP3    H133950   5.163   6.576  11.906 -1.1940  0.0309 -0.9910
 4153TIP3    H233951   5.151   6.528  11.763  0.5980 -1.9388 -0.5271
 4154TIP3   OH233952   2.581   2.308  15.603  0.1988 -0.4579 -0.6883
 4154TIP3    H133953   2.599   2.401  15.616  3.4146 -1.0354 -0.1331
 4154TIP3    H233954   2.513   2.288  15.668 -0.5865  1.4719 -0.8449
 4155TIP3   OH233955   4.742   4.662  11.220  0.2049  0.0112 -0.3528
 4155TIP3    H133956   4.708   4.626  11.301  0.6436  0.1921 -0.0885
 4155TIP3    H233957   4.824   4.704  11.244  0.4872 -0.1911 -0.9436
 4156TIP3   OH233958   5.610   3.887   4.284 -0.3348  0.2228  0.2865
 4156TIP3    H133959   5.541   3.822   4.268  0.3812 -0.6762  0.7393
 4156TIP3    H233960   5.648   3.860   4.368 -0.2978  1.4845  0.6818
 4157TIP3   OH233961   3.583   0.885   4.468 -1.1780  0.2321 -0.4776
 4157TIP3    H133962   3.676   0.864   4.473 -1.2619 -0.0157  0.2825
 4157TIP3    H233963   3.540   0.816   4.520 -1.8404  0.0118 -1.2885
 4158TIP3   OH233964   5.369   4.166   5.771 -0.1960 -0.5603  0.3933
 4158TIP3    H133965   5.423   4.115   5.710 -0.4914 -1.5600  0.9425
 4158TIP3    H233966   5.428   4.232   5.807  1.0494 -2.4232  1.9296
 4159TIP3   OH233967   1.746   2.423  17.219 -0.4254  0.5086  0.3981
 4159TIP3    H133968   1.664   2.466  17.193 -0.5583 -0.9213 -1.8017
 4159TIP3    H233969   1.739   2.334  17.184  1.6296  0.0021  1.1175
 4160TIP3   OH233970   3.656   0.997  16.930  0.4322  0.2385 -0.1500
 4160TIP3    H133971   3.562   1.016  16.930  0.3590 -0.1071  0.0291
 4160TIP3    H233972   3.683   1.007  17.021  0.2836 -0.9804  0.0447
 4161TIP3   OH233973   3.197   6.362   5.053 -0.1141  0.0689  0.3153
 4161TIP3    H133974   3.109   6.333   5.030  0.5415 -2.1332  0.2926
 4161TIP3    H233975   3.192   6.388   5.145 -0.8886  0.5012  0.1565
 4162TIP3   OH233976   6.650   5.851  15.575 -0.6289  0.0419 -0.1388
 4162TIP3    H133977   6.640   5.889  15.488  1.7164  1.8020  0.2703
 4162TIP3    H233978   6.575   5.883  15.625 -0.4676  1.4049 -0.7531
 4163TIP3   OH233979   4.209   0.901   4.668 -0.0209 -0.1834 -0.0769
 4163TIP3    H133980   4.203   0.902   4.763 -0.5553 -1.3567 -0.0743
 4163TIP3    H233981   4.122   0.927   4.638 -0.3197 -1.2905 -0.2130
 4164TIP3   OH233982   1.397   0.676   2.243 -0.0653 -0.2584 -0.2457
 4164TIP3    H133983   1.350   0.631   2.173  1.0338 -0.7044 -0.7280
 4164TIP3    H233984   1.479   0.627   2.252 -0.1049 -0.1126  1.2506
 4165TIP3   OH233985   5.622   5.678   0.627  0.1660 -0.4695  0.0180
 4165TIP3    H133986   5.552   5.709   0.685  0.3368 -0.2010  0.0854
 4165TIP3    H233987   5.690   5.746   0.634 -0.3645  0.2678 -1.5486
 4166TIP3   OH233988   3.251   2.484   3.465 -0.0752 -0.0018 -0.1531
 4166TIP3    H133989   3.213   2.406   3.426  0.2852 -0.2478 -0.0199
 4166TIP3    H233990   3.208   2.557   3.421  2.0175 -0.2176 -2.7484
 4167TIP3   OH233991   3.376   0.896  15.989 -0.5408 -0.2522  0.5122
 4167TIP3    H133992   3.368   0.809  15.950 -3.7195  0.0434  0.3002
 4167TIP3    H233993   3.366   0.881  16.083 -0.9559 -0.1163  0.4889
 4168TIP3   OH233994   3.202   3.653   2.593 -0.2123 -0.2409 -0.2852
 4168TIP3    H133995   3.119   3.610   2.615 -0.6346  0.4133 -0.5398
 4168TIP3    H233996   3.192   3.742   2.626  0.4078 -0.1610 -0.2981
 4169TIP3   OH233997   1.898   2.672   3.234  0.4496  0.5883 -0.3342
 4169TIP3    H133998   1.969   2.647   3.176  1.8396 -0.1234  1.5709
 4169TIP3    H233999   1.826   2.696   3.175  2.3786  1.7787 -2.3263
 4170TIP3   OH234000   2.970   6.537  16.821  0.1160 -0.3143  0.1784
 4170TIP3    H134001   3.045   6.532  16.760  0.5131  0.0526  0.6301
 4170TIP3    H234002   2.911   6.601  16.781 -0.0933 -0.8148 -0.3222
 4171TIP3   OH234003   0.026   2.425   3.060  0.1058 -0.3509  0.5838
 4171TIP3    H134004  -0.051   2.405   3.113 -0.7471  0.9087 -0.1384
 4171TIP3    H234005   0.004   2.394   2.972 -0.4795  1.8830 -0.1116
 4172TIP3   OH234006   1.025   4.033   0.223 -0.1684 -0.2166  0.2136
 4172TIP3    H134007   1.071   4.001   0.301 -1.5747  0.2435  1.2693
 4172TIP3    H234008   1.063   4.120   0.208 -1.3652  0.6166  1.7246
 4173TIP3   OH234009   6.231   5.659  11.971 -0.9746  0.3066  0.6978
 4173TIP3    H134010   6.189   5.623  11.893 -1.8297  0.0334  1.2574
 4173TIP3    H234011   6.301   5.598  11.992 -0.6903  0.4269  0.0983
 4174TIP3   OH234012   6.814   1.012   1.952  0.1956 -0.2237  0.7104
 4174TIP3    H134013   6.880   0.945   1.969  1.7132  1.1481  0.3849
 4174TIP3    H234014   6.863   1.088   1.923 -1.5119  0.9640  0.7856
 4175TIP3   OH234015   5.132   5.021  17.105 -0.3002  0.3595  0.0449
 4175TIP3    H134016   5.204   5.025  17.167 -0.9762 -1.6430  1.0608
 4175TIP3    H234017   5.149   4.942  17.053 -2.3117 -0.9491  1.1859
 4176TIP3   OH234018   1.645   2.375   3.244  0.4615  0.1619  0.5589
 4176TIP3    H134019   1.726   2.356   3.196  0.2576  1.6887 -0.4626
 4176TIP3    H234020   1.592   2.425   3.182 -0.1641  1.4909  2.0917
 4177TIP3   OH234021   5.307   6.635   6.171  0.2374 -0.4970  0.1001
 4177TIP3    H134022   5.285   6.728   6.173  2.0728 -0.0026 -0.2389
 4177TIP3    H234023   5.381   6.627   6.232  0.1518 -1.7189  0.0620
 4178TIP3   OH234024   4.640   4.974   6.380  0.0521 -0.1638 -0.2571
 4178TIP3    H134025   4.648   5.003   6.471 -0.5929 -1.0971  0.1105
 4178TIP3    H234026   4.569   5.028   6.344 -1.2563 -1.3523  0.4683
 4179TIP3   OH234027   5.283   6.068  14.034 -0.5002 -0.2092  0.3945
 4179TIP3    H134028   5.285   6.163  14.028  0.5699 -0.0605  2.3629
 4179TIP3    H234029   5.231   6.049  14.112 -1.0732 -1.2806 -0.2122
 4180TIP3   OH234030   6.222   0.328   4.608  0.0365  0.7214 -0.1599
 4180TIP3    H134031   6.232   0.263   4.677 -0.4583  0.1644 -0.6035
 4180TIP3    H234032   6.291   0.308   4.545 -0.9369 -0.2639 -0.9722
 4181TIP3   OH234033   1.332   3.544  11.096  0.0048 -0.7111  0.1309
 4181TIP3    H134034   1.274   3.594  11.153 -2.1092 -0.1401 -2.3312
 4181TIP3    H234035   1.370   3.477  11.153  0.5126  1.7097  2.8322
 4182TIP3   OH234036   6.518   1.192  13.953  0.1040 -0.1175 -0.2905
 4182TIP3    H134037   6.481   1.166  14.038 -1.2998 -0.7415 -1.0428
 4182TIP3    H234038   6.578   1.121  13.930 -2.4851 -2.0782 -1.5740
 4183TIP3   OH234039   0.703   3.106   3.761  0.2667  0.0335 -0.0816
 4183TIP3    H134040   0.627   3.128   3.707 -0.9330 -3.3037  0.0619
 4183TIP3    H234041   0.777   3.115   3.701 -0.7030 -0.5819 -1.4481
 4184TIP3   OH234042   0.983   5.779   1.222  0.0419 -0.0039 -0.9365
 4184TIP3    H134043   0.897   5.816   1.201  0.8724  1.3186 -2.2013
 4184TIP3    H234044   0.967   5.684   1.225 -1.5780  0.2445 -0.5095
 4185TIP3   OH234045   1.802   1.105   4.954  0.4733 -0.0403  0.5676
 4185TIP3    H134046   1.729   1.056   4.916  1.0567 -0.8837  0.5058
 4185TIP3    H234047   1.842   1.044   5.016  0.9311  0.5231  0.8349
 4186TIP3   OH234048   4.431   4.708   3.487  0.1470  0.2615  0.1455
 4186TIP3    H134049   4.462   4.723   3.577  1.8825  0.1217 -0.3864
 4186TIP3    H234050   4.486   4.764   3.433  0.4655 -1.0810 -0.9940
 4187TIP3   OH234051   4.942   1.358  11.992  0.7711 -0.2178  0.4636
 4187TIP3    H134052   4.989   1.427  12.040  0.5398 -0.1057  0.5335
 4187TIP3    H234053   4.869   1.404  11.951  0.0841 -0.5749  1.2578
 4188TIP3   OH234054   5.566   2.844  14.937 -0.9666 -0.0670  0.2367
 4188TIP3    H134055   5.655   2.814  14.955 -1.4203 -1.3219  0.4525
 4188TIP3    H234056   5.538   2.885  15.018 -0.7256 -0.0103  0.2922
 4189TIP3   OH234057   6.576   6.035   4.248  0.4170 -0.2428  0.6752
 4189TIP3    H134058   6.566   6.119   4.202 -0.1309 -0.2142  0.8367
 4189TIP3    H234059   6.648   6.049   4.309 -0.0926  0.3216  1.1616
 4190TIP3   OH234060   2.412   0.187  15.991 -0.1075  0.2360  0.5658
 4190TIP3    H134061   2.433   0.280  15.984 -0.5524  0.2743 -0.6128
 4190TIP3    H234062   2.387   0.162  15.902 -1.9763 -0.5189  1.2386
 4191TIP3   OH234063   2.122   5.097  14.846 -0.1497  0.3555 -0.4057
 4191TIP3    H134064   2.084   5.158  14.909  1.2123 -0.5252  1.3611
 4191TIP3    H234065   2.181   5.042  14.898 -0.5692 -1.8291 -2.0875
 4192TIP3   OH234066   6.172   0.872  16.039  0.0701 -0.6194  0.1731
 4192TIP3    H134067   6.181   0.952  15.987  0.3711 -1.7100 -1.5219
 4192TIP3    H234068   6.077   0.854  16.040 -0.0051 -0.2205  0.6153
 4193TIP3   OH234069   2.210   6.338  15.963 -0.1540  0.3703  0.0339
 4193TIP3    H134070   2.285   6.280  15.976 -0.5988 -0.0371  0.8343
 4193TIP3    H234071   2.140   6.298  16.014 -1.2141  0.1953 -1.4905
 4194TIP3   OH234072   3.834   3.165  15.787  0.3876  0.4579  0.1049
 4194TIP3    H134073   3.742   3.141  15.783  0.5135  0.0340 -0.3946
 4194TIP3    H234074   3.859   3.153  15.879  0.5487 -1.7696 -0.1812
 4195TIP3   OH234075   5.550   0.178   6.439  0.5275  0.0820  0.4972
 4195TIP3    H134076   5.486   0.249   6.436  0.3731 -0.0431  0.7637
 4195TIP3    H234077   5.558   0.157   6.532  0.3485 -0.4490  0.3966
 4196TIP3   OH234078   2.557   2.340  11.590 -0.4225  0.4752 -0.1311
 4196TIP3    H134079   2.470   2.340  11.549  0.2253  1.4945 -1.5701
 4196TIP3    H234080   2.543   2.295  11.674 -2.3120  0.5258 -0.3636
 4197TIP3   OH234081   1.557   6.393  12.604 -0.5598  0.0054 -0.7095
 4197TIP3    H134082   1.638   6.435  12.575 -0.4482  0.8604  0.7313
 4197TIP3    H234083   1.518   6.359  12.524  0.2018  1.3964 -1.7203
 4198TIP3   OH234084   4.848   6.132   4.869 -0.1646 -0.2132  0.2635
 4198TIP3    H134085   4.910   6.174   4.809 -0.2687 -0.7145 -0.2085
 4198TIP3    H234086   4.882   6.042   4.877 -1.6498 -0.9549 -1.1952
 4199TIP3   OH234087   0.904   1.066  11.564 -0.0197  0.3127 -0.5073
 4199TIP3    H134088   0.844   1.026  11.502  0.6818 -1.7682  0.0912
 4199TIP3    H234089   0.847   1.106  11.630 -0.8335 -2.0118  0.2973
 4200TIP3   OH234090   3.449   1.984   1.823 -0.0329  0.2983 -0.4680
 4200TIP3    H134091   3.434   1.966   1.916 -0.4904  0.6063 -0.4827
 4200TIP3    H234092   3.532   1.939   1.804  0.7368  1.2917  0.3969
 4201TIP3   OH234093   2.061   3.942   2.174 -0.2640  0.3819 -0.6503
 4201TIP3    H134094   2.070   3.893   2.092  1.0297 -1.5321  0.5617
 4201TIP3    H234095   2.144   3.990   2.182 -0.4378  0.6614 -0.5101
 4202TIP3   OH234096   2.399   3.168   0.749  0.2197 -0.2975  0.3565
 4202TIP3    H134097   2.402   3.114   0.670  0.1198 -1.0270  0.8420
 4202TIP3    H234098   2.380   3.106   0.820  0.6350  0.2947  0.9980
 4203TIP3   OH234099   0.059   6.653  16.073  0.1149  0.8697 -0.2199
 4203TIP3    H134100   0.054   6.658  15.978  1.4166 -0.6551 -0.4089
 4203TIP3    H234101  -0.019   6.603  16.098  0.1014  0.7302 -0.5390
 4204TIP3   OH234102   6.171   4.375   0.289 -0.8869  0.0846  0.0580
 4204TIP3    H134103   6.191   4.405   0.200 -1.5178 -1.5730 -0.6758
 4204TIP3    H234104   6.157   4.456   0.339 -0.3661  1.0481 -1.3024
 4205TIP3   OH234105   3.602   0.953   2.106  0.2701  0.2585 -0.1037
 4205TIP3    H134106   3.507   0.960   2.097 -0.0780  3.8154  3.6125
 4205TIP3    H234107   3.615   0.907   2.189  1.8741 -0.2495 -0.5966
 4206TIP3   OH234108   4.566   2.643  16.451  0.1453  0.3334 -0.3211
 4206TIP3    H134109   4.660   2.630  16.458  0.2645  0.4899 -1.5176
 4206TIP3    H234110   4.549   2.722  16.502  0.1275 -1.4721  2.7592
 4207TIP3   OH234111   0.502   3.379   5.117  0.0944 -0.2047 -0.4193
 4207TIP3    H134112   0.495   3.308   5.182  0.4357 -0.6594 -0.8750
 4207TIP3    H234113   0.519   3.334   5.034 -0.3247  0.3780 -0.8247
 4208TIP3   OH234114   5.149   1.010   1.536 -0.4862  0.2912  0.3053
 4208TIP3    H134115   5.070   1.036   1.583 -0.8974 -1.9268  0.9403
 4208TIP3    H234116   5.173   0.926   1.573  1.0419 -0.0294 -1.2584
 4209TIP3   OH234117   6.076   5.256  12.107  0.2843 -0.0567  0.0076
 4209TIP3    H134118   6.022   5.332  12.125 -0.0003 -0.0859 -0.6951
 4209TIP3    H234119   6.163   5.291  12.090  0.4692  0.0011  0.9858
 4210TIP3   OH234120   4.592   2.028   4.043  0.1332  0.3569 -0.3346
 4210TIP3    H134121   4.552   2.115   4.036 -0.4703  0.0925 -0.2098
 4210TIP3    H234122   4.686   2.046   4.054 -0.0159  1.0018 -0.0647
 4211TIP3   OH234123   4.384   0.032   2.830  0.3897 -0.1611  0.4039
 4211TIP3    H134124   4.369  -0.061   2.812 -0.4204  0.4508 -2.5501
 4211TIP3    H234125   4.416   0.068   2.748 -1.1586  2.5566  0.8618
 4212TIP3   OH234126   0.817   0.588  13.335  0.6564 -0.2450 -0.3341
 4212TIP3    H134127   0.892   0.648  13.334  0.1137  0.4454 -0.4452
 4212TIP3    H234128   0.776   0.600  13.250  1.5244 -2.0741 -1.0540
 4213TIP3   OH234129   3.043   6.272   5.635 -0.5001 -0.0678 -0.1970
 4213TIP3    H134130   3.135   6.298   5.631 -0.5428  0.1080 -0.0620
 4213TIP3    H234131   3.045   6.177   5.632 -0.2530 -0.1144  0.7849
 4214TIP3   OH234132   4.034   1.316  11.842 -0.1467  0.4150  0.9411
 4214TIP3    H134133   3.948   1.302  11.801 -0.4497 -0.4872  1.8411
 4214TIP3    H234134   4.055   1.407  11.824 -0.5051  0.1973 -0.7667
 4215TIP3   OH234135   1.750   1.736   5.922  0.8669  0.1186 -0.0580
 4215TIP3    H134136   1.780   1.692   6.002  0.0382 -0.0420  0.1779
 4215TIP3    H234137   1.801   1.696   5.852 -0.6222 -2.0460  0.0018
 4216TIP3   OH234138   5.782   6.154  11.047 -0.1538  0.1071 -0.1029
 4216TIP3    H134139   5.712   6.116  10.994 -0.0469 -0.4048  0.1231
 4216TIP3    H234140   5.748   6.240  11.073 -1.4081 -0.7873  1.3962
 4217TIP3   OH234141   5.149   1.206  16.042  0.2288  0.1375  0.6841
 4217TIP3    H134142   5.212   1.136  16.025 -1.4961 -1.3981  0.3723
 4217TIP3    H234143   5.149   1.216  16.138  1.1954  0.4366  0.6658
 4218TIP3   OH234144   2.262   3.849   1.213 -0.7826 -0.9671 -0.1793
 4218TIP3    H134145   2.196   3.810   1.270 -1.7929 -0.7377 -1.1625
 4218TIP3    H234146   2.217   3.864   1.130 -0.8179  3.3576  0.4149
 4219TIP3   OH234147   0.264   4.812   2.030 -0.0752 -0.1767 -0.1482
 4219TIP3    H134148   0.172   4.801   2.052  0.1963 -1.3277  0.4700
 4219TIP3    H234149   0.290   4.729   1.991  0.7270  0.0940 -0.2100
 4220TIP3   OH234150   6.505   5.011   2.122  0.0633  0.0387 -0.0836
 4220TIP3    H134151   6.436   5.039   2.182 -0.3483  1.3203 -1.1145
 4220TIP3    H234152   6.545   5.092   2.092  1.8228 -0.6655  0.2265
 4221TIP3   OH234153   3.152   4.907   2.960  0.0446  0.4208  0.2314
 4221TIP3    H134154   3.089   4.922   3.031  1.1273  1.9781  0.9126
 4221TIP3    H234155   3.099   4.909   2.881 -0.9196  0.6648  0.8603
 4222TIP3   OH234156   3.041   3.107   0.957 -0.7178  0.6821 -0.0728
 4222TIP3    H134157   3.035   3.169   0.884 -0.5812  1.4892  0.5824
 4222TIP3    H234158   3.015   3.158   1.034 -2.2651 -0.5269  0.2722
 4223TIP3   OH234159   0.081   6.126   1.744  0.3523 -0.2207 -0.0919
 4223TIP3    H134160   0.128   6.048   1.718  0.1393 -0.2692 -0.3332
 4223TIP3    H234161  -0.004   6.119   1.700 -0.1299 -0.4539  0.8525
 4224TIP3   OH234162   3.064   1.948  16.706  0.5488  0.0089 -0.1731
 4224TIP3    H134163   3.002   1.988  16.767 -0.7846 -1.0692 -0.7618
 4224TIP3    H234164   3.078   1.860  16.741  2.0551  0.3358  0.1346
 4225TIP3   OH234165   0.979   1.334   3.105  0.0695  0.4357  0.7261
 4225TIP3    H134166   0.970   1.373   3.192  3.0230  2.8857  0.1231
 4225TIP3    H234167   1.044   1.265   3.116 -0.2451  0.1160  0.6087
 4226TIP3   OH234168   5.243   1.954   5.374  0.2606 -0.5475  0.2461
 4226TIP3    H134169   5.186   1.941   5.449  1.3887  1.5165  1.5705
 4226TIP3    H234170   5.227   2.045   5.346  3.1851  0.3486  1.0718
 4227TIP3   OH234171   3.939   3.603  16.768  0.1072  0.1551  0.4465
 4227TIP3    H134172   3.860   3.585  16.718  0.0322  1.2775  0.1313
 4227TIP3    H234173   4.001   3.536  16.740  0.3038  1.1731 -1.7123
 4228TIP3   OH234174   2.878   4.613   0.131 -0.3373  0.8130  0.1913
 4228TIP3    H134175   2.876   4.697   0.177 -0.8825  0.7412  0.3119
 4228TIP3    H234176   2.794   4.610   0.085  0.8586  1.6659 -2.2249
 4229TIP3   OH234177   1.796   4.845   3.159 -0.0126 -0.2927 -0.2642
 4229TIP3    H134178   1.784   4.923   3.104 -0.2257 -0.9158 -1.1320
 4229TIP3    H234179   1.781   4.876   3.248  1.5044  1.0080 -0.4086
 4230TIP3   OH234180   5.804   4.362  15.544 -0.6055 -0.0772  0.4762
 4230TIP3    H134181   5.756   4.434  15.584  0.5081  0.5861  0.6597
 4230TIP3    H234182   5.807   4.295  15.613 -2.1717 -0.5631  0.0952
 4231TIP3   OH234183   5.681   5.470   3.959  0.0846 -0.4024  0.1465
 4231TIP3    H134184   5.655   5.449   3.870  1.3287 -0.2439 -0.2804
 4231TIP3    H234185   5.777   5.478   3.955  0.2395 -1.0731  1.6316
 4232TIP3   OH234186   1.088   4.817  13.465 -0.4696  0.7093  0.4459
 4232TIP3    H134187   1.127   4.753  13.406 -0.5819  1.3899 -0.3825
 4232TIP3    H234188   1.083   4.898  13.414 -1.1844  1.1425  1.1666
 4233TIP3   OH234189   2.063   0.967   1.284 -0.0239  0.7509  0.3079
 4233TIP3    H134190   2.079   1.040   1.224 -0.0266 -0.0688 -0.7290
 4233TIP3    H234191   2.149   0.948   1.322  0.6000 -0.5379 -1.6121
 4234TIP3   OH234192   0.877   3.689   2.179  0.0587  0.3895 -0.3515
 4234TIP3    H134193   0.898   3.740   2.257 -1.1179 -0.8156  0.8266
 4234TIP3    H234194   0.859   3.601   2.213 -1.8067  0.1453 -1.7897
 4235TIP3   OH234195   5.894   6.173   0.413  0.2514 -0.8459  0.7649
 4235TIP3    H134196   5.989   6.160   0.409  0.1220 -1.9054  0.7119
 4235TIP3    H234197   5.869   6.135   0.497 -0.1361 -0.5922  0.7652
 4236TIP3   OH234198   3.514   2.249  12.516  0.8681  0.0661 -0.0726
 4236TIP3    H134199   3.427   2.220  12.545 -0.3678  0.1820 -3.2283
 4236TIP3    H234200   3.557   2.280  12.596 -1.8832 -0.2229  1.6601
 4237TIP3   OH234201   3.705   2.372  13.198 -0.1948  0.0504  0.4423
 4237TIP3    H134202   3.686   2.285  13.163  1.0605 -0.1181  0.1235
 4237TIP3    H234203   3.712   2.428  13.121  0.4095  0.1378  0.5603
 4238TIP3   OH234204   1.062   1.832  11.907 -0.0556  0.4237 -0.7945
 4238TIP3    H134205   1.055   1.757  11.848  0.2101  0.6386 -1.1006
 4238TIP3    H234206   1.112   1.897  11.858 -1.2454  1.2433 -0.9735
 4239TIP3   OH234207   4.978   2.413   5.296 -0.4811 -0.2724  0.0786
 4239TIP3    H134208   4.892   2.453   5.287  0.1036  1.1325  0.4455
 4239TIP3    H234209   5.036   2.469   5.243  0.2978 -0.8690  0.2858
 4240TIP3   OH234210   4.393   3.338  14.848  0.0919 -0.0629 -0.0620
 4240TIP3    H134211   4.396   3.271  14.916  0.2123 -0.2004 -0.2033
 4240TIP3    H234212   4.484   3.348  14.821  0.0021 -0.2540 -0.4441
 4241TIP3   OH234213   0.970   0.623  14.024  0.0926  0.0459 -0.0892
 4241TIP3    H134214   0.965   0.536  14.062 -0.0673  0.6697  1.3803
 4241TIP3    H234215   0.886   0.663  14.045  0.9746  1.3024  1.1825
 4242TIP3   OH234216   5.896   5.110  15.592 -0.1408 -0.6304 -0.1390
 4242TIP3    H134217   5.916   5.045  15.660  0.0249 -1.2533 -0.7760
 4242TIP3    H234218   5.975   5.115  15.539 -0.4959 -0.6504 -0.6877
 4243TIP3   OH234219   5.469   5.575   4.987 -0.1679  0.1749 -0.6405
 4243TIP3    H134220   5.439   5.658   4.950  0.8728  1.0083  0.2966
 4243TIP3    H234221   5.561   5.591   5.009 -0.5636 -0.4445  1.7263
 4244TIP3   OH234222   5.676   5.993   0.222 -0.7689  0.0484 -0.0989
 4244TIP3    H134223   5.606   6.049   0.188 -1.2521 -0.9146 -0.7546
 4244TIP3    H234224   5.748   6.004   0.160 -1.8105 -2.0636 -1.8404
 4245TIP3   OH234225   1.149   5.388   4.695 -0.3206  0.3841 -0.0823
 4245TIP3    H134226   1.129   5.457   4.632 -0.7674  0.5555  0.2433
 4245TIP3    H234227   1.210   5.331   4.649 -1.3130  0.0267 -0.9820
 4246TIP3   OH234228   5.965   6.347  12.586 -0.0254 -0.5762  0.3912
 4246TIP3    H134229   5.967   6.257  12.619 -0.7718 -0.5331  0.5627
 4246TIP3    H234230   6.057   6.374  12.588  0.3589 -1.6764 -0.6487
 4247TIP3   OH234231   4.209   1.089   3.315 -0.3720  0.3524  0.2892
 4247TIP3    H134232   4.240   1.046   3.394 -1.3721  0.3713  0.6919
 4247TIP3    H234233   4.186   1.018   3.256 -0.3138  0.3402  0.2809
 4248TIP3   OH234234   6.179   2.908   0.577  0.3037 -0.0310  0.2973
 4248TIP3    H134235   6.246   2.840   0.590  0.4226 -0.3555 -1.6171
 4248TIP3    H234236   6.097   2.865   0.600  0.5361 -0.3192  0.6065
 4249TIP3   OH234237   4.087   1.852   1.157 -0.2573  0.7655  0.2996
 4249TIP3    H134238   4.127   1.813   1.080 -0.7164  1.0710 -0.0962
 4249TIP3    H234239   4.004   1.888   1.126  0.1899  2.1336  0.6328
 4250TIP3   OH234240   1.087   5.329  15.074 -0.5454 -0.3071 -0.2773
 4250TIP3    H134241   1.123   5.408  15.034 -0.4462  0.3066  0.9673
 4250TIP3    H234242   1.119   5.331  15.165 -0.8035 -1.6130 -0.1331
 4251TIP3   OH234243   6.010   5.506  14.276 -0.2822  0.0587  0.1027
 4251TIP3    H134244   6.076   5.440  14.254  0.8780  0.5940  1.7397
 4251TIP3    H234245   6.003   5.501  14.372 -0.2802  2.1628  0.2528
 4252TIP3   OH234246   1.459   2.771   5.894 -0.2819 -0.4785 -0.0889
 4252TIP3    H134247   1.490   2.862   5.897  1.4045 -1.0250  1.8864
 4252TIP3    H234248   1.399   2.769   5.820  1.3748  1.7076 -1.6449
 4253TIP3   OH234249   6.039   5.630  11.186  1.1246 -0.2658  0.0598
 4253TIP3    H134250   5.995   5.632  11.101  2.6957  4.0268 -0.9042
 4253TIP3    H234251   6.131   5.648  11.166  2.1528 -2.0318  2.5491
 4254TIP3   OH234252   2.894   1.505  16.409 -0.8067  0.0416 -0.3353
 4254TIP3    H134253   2.816   1.520  16.355 -0.8885 -0.0330 -0.2385
 4254TIP3    H234254   2.897   1.580  16.468 -2.0769 -1.0377  1.1786
 4255TIP3   OH234255   4.320   4.637   6.066 -0.6615  0.1378 -0.1160
 4255TIP3    H134256   4.266   4.686   6.128  1.0028  0.8321  0.8234
 4255TIP3    H234257   4.404   4.683   6.066 -0.0252 -0.9808 -1.4699
 4256TIP3   OH234258   4.541   2.221  12.905 -0.5013  0.3103  0.2918
 4256TIP3    H134259   4.530   2.315  12.918  1.1228  0.8230 -1.4579
 4256TIP3    H234260   4.478   2.198  12.837  0.6108  0.6634 -0.9083
 4257TIP3   OH234261   4.986   2.338  13.269 -0.0869 -0.3144 -0.2242
 4257TIP3    H134262   4.974   2.319  13.176  0.1588 -0.2501 -0.2705
 4257TIP3    H234263   4.948   2.426  13.281 -0.7960 -0.6262 -0.1066
 4258TIP3   OH234264   4.544   0.638   0.543 -0.3980 -0.6371  0.1376
 4258TIP3    H134265   4.486   0.713   0.556  0.7742  0.3186 -0.0632
 4258TIP3    H234266   4.508   0.593   0.466 -1.5736 -0.7601  0.7366
 4259TIP3   OH234267   6.813   4.616  14.971  0.2711  0.3576  0.1405
 4259TIP3    H134268   6.826   4.710  14.982 -1.1693  0.4563  1.2519
 4259TIP3    H234269   6.888   4.576  15.015  0.9296  0.9687 -0.4002
 4260TIP3   OH234270   6.395   5.828  13.896  0.1110  0.1226  0.0031
 4260TIP3    H134271   6.382   5.769  13.822  1.1364  0.0785 -0.1600
 4260TIP3    H234272   6.312   5.826  13.943 -0.3419 -0.3502 -0.7816
 4261TIP3   OH234273   6.357   3.175   4.474 -0.1353 -0.8732  0.1875
 4261TIP3    H134274   6.442   3.177   4.430 -0.2896  0.2414 -0.1010
 4261TIP3    H234275   6.366   3.106   4.540  2.1420  1.2044  2.3116
 4262TIP3   OH234276   0.056   1.837  15.725 -0.0751 -0.4032  0.0108
 4262TIP3    H134277   0.112   1.812  15.651 -0.9769  0.1435 -0.8942
 4262TIP3    H234278   0.004   1.910  15.692 -0.4367 -0.0834  1.2312
 4263TIP3   OH234279   4.473   3.554   3.808 -0.0880  0.3271  0.2196
 4263TIP3    H134280   4.493   3.491   3.877  0.9779 -0.0661 -0.4269
 4263TIP3    H234281   4.378   3.565   3.813 -0.2152 -0.8641  0.7338
 4264TIP3   OH234282   5.212   4.759  15.757 -0.5540  0.1403 -0.2231
 4264TIP3    H134283   5.264   4.839  15.770  0.1919 -0.5629  1.3864
 4264TIP3    H234284   5.278   4.690  15.747 -1.2012 -0.3935 -0.9301
 4265TIP3   OH234285   0.301   3.311   4.009 -0.0553  0.1000 -0.1953
 4265TIP3    H134286   0.391   3.308   3.977  0.5813 -2.5242  1.5076
 4265TIP3    H234287   0.248   3.280   3.936  0.9707 -2.4763  0.0508
 4266TIP3   OH234288   0.755   5.559   0.445  0.0619  0.5307 -0.3071
 4266TIP3    H134289   0.730   5.467   0.436 -0.1967  0.6027 -0.3372
 4266TIP3    H234290   0.673   5.604   0.466  0.3833  0.5733  0.9797
 4267TIP3   OH234291   5.649   2.915   2.458 -0.1982  0.2742  0.1207
 4267TIP3    H134292   5.657   3.010   2.467 -0.4171  0.6766 -3.0364
 4267TIP3    H234293   5.739   2.883   2.462 -0.2384  0.2567  3.3920
 4268TIP3   OH234294   0.673   4.255   3.552  0.7241  0.1054 -0.9049
 4268TIP3    H134295   0.614   4.328   3.531  1.1149  1.0371  0.9751
 4268TIP3    H234296   0.683   4.207   3.470  0.3631  2.1108 -2.1918
 4269TIP3   OH234297   1.030   2.635  12.090 -0.2703  0.3465  0.2373
 4269TIP3    H134298   0.967   2.703  12.114  0.5120  0.8799  0.8440
 4269TIP3    H234299   1.055   2.594  12.173  0.7567  0.6768  0.1069
 4270TIP3   OH234300   0.369   4.605  15.709 -0.4880  0.5368 -0.0891
 4270TIP3    H134301   0.459   4.611  15.740  0.5442 -2.4638 -2.0582
 4270TIP3    H234302   0.329   4.539  15.766 -0.8668  0.4645 -0.4369
 4271TIP3   OH234303   1.753   1.812   6.485 -0.2619  0.4773 -0.5716
 4271TIP3    H134304   1.832   1.804   6.431 -0.0671 -1.3984 -0.0690
 4271TIP3    H234305   1.738   1.906   6.491  0.8835  0.8114 -2.1937
 4272TIP3   OH234306   1.830   4.794   2.248  0.0030  0.1092 -0.0438
 4272TIP3    H134307   1.754   4.843   2.279 -0.6044 -0.5665 -0.4232
 4272TIP3    H234308   1.902   4.823   2.304 -0.7653 -0.0423  1.0527
 4273TIP3   OH234309   5.681   6.004   3.291 -0.1541 -0.2743 -0.0031
 4273TIP3    H134310   5.603   5.993   3.236 -0.3026  3.0227 -0.6948
 4273TIP3    H234311   5.747   6.040   3.233  0.3370  1.4087  1.4784
 4274TIP3   OH234312   6.335   1.993  11.596 -0.2213  0.1505 -0.3753
 4274TIP3    H134313   6.304   1.939  11.523 -0.3172 -0.2683 -0.0266
 4274TIP3    H234314   6.414   1.949  11.626 -1.7459 -1.3587  1.6734
 4275TIP3   OH234315   3.093   0.369  11.439  0.6592 -0.3456  0.1180
 4275TIP3    H134316   3.142   0.434  11.488  0.4084  1.0675 -1.3929
 4275TIP3    H234317   3.001   0.389  11.459  0.3848  1.8970 -2.6433
 4276TIP3   OH234318   5.891   0.478   2.305  0.1021  0.3915  0.2520
 4276TIP3    H134319   5.902   0.415   2.235  0.0859  1.4682 -0.7550
 4276TIP3    H234320   5.837   0.548   2.267 -0.1920  0.8472  1.4360
 4277TIP3   OH234321   3.037   4.141  15.262  0.1231 -0.8549  0.0841
 4277TIP3    H134322   3.120   4.127  15.216 -0.3792 -0.8122 -0.8635
 4277TIP3    H234323   2.979   4.178  15.196 -1.0773 -2.1688  0.3422
 4278TIP3   OH234324   1.545   4.276  13.280 -0.1944 -0.4173  0.6268
 4278TIP3    H134325   1.628   4.309  13.244  0.0266 -0.5927  0.9765
 4278TIP3    H234326   1.502   4.354  13.315  0.0969 -0.4158  0.9900
 4279TIP3   OH234327   2.471   4.111   4.613  0.2366  0.0814  0.6322
 4279TIP3    H134328   2.485   4.183   4.552  1.2772 -1.5525 -1.1551
 4279TIP3    H234329   2.385   4.076   4.589  0.1264  0.1538  0.9118
 4280TIP3   OH234330   3.187   2.843  15.836  0.5130  0.8938  0.5674
 4280TIP3    H134331   3.148   2.929  15.853  0.3116  0.9668 -0.2472
 4280TIP3    H234332   3.166   2.824  15.745 -0.8570 -0.7416  1.1613
 4281TIP3   OH234333   2.566   1.086  11.309  0.4773  0.1869  0.2893
 4281TIP3    H134334   2.596   1.150  11.245  0.9096  0.2167  0.5160
 4281TIP3    H234335   2.639   1.024  11.317  0.7540  0.6248  1.3214
 4282TIP3   OH234336   0.964   1.115  13.614  0.3548  0.1791 -0.3572
 4282TIP3    H134337   0.923   1.029  13.628  1.2866 -0.0199  1.5792
 4282TIP3    H234338   0.977   1.120  13.520 -1.0776 -1.1525 -0.6829
 4283TIP3   OH234339   6.320   0.032  13.657 -0.1109 -0.0943 -0.2278
 4283TIP3    H134340   6.261  -0.017  13.714 -0.4324 -1.0299 -1.3407
 4283TIP3    H234341   6.292   0.011  13.568 -0.9784  2.9608 -0.7984
 4284TIP3   OH234342   5.282   2.363   5.569 -0.2000  0.1718  0.0762
 4284TIP3    H134343   5.272   2.297   5.638  0.3899  1.8993  1.9042
 4284TIP3    H234344   5.369   2.400   5.583  0.5831 -0.4591 -2.6167
 4285TIP3   OH234345   0.228   4.754  12.934 -0.4446  0.0975  0.2365
 4285TIP3    H134346   0.321   4.768  12.950 -0.0517 -1.1941 -0.7826
 4285TIP3    H234347   0.188   4.840  12.951  0.7327  0.3836  1.8565
 4286TIP3   OH234348   5.490   0.357   0.144  0.6289 -0.0452  0.5264
 4286TIP3    H134349   5.498   0.402   0.228  0.3248 -0.4455  0.7733
 4286TIP3    H234350   5.531   0.272   0.158 -3.3554 -2.0070  1.7147
 4287TIP3   OH234351   0.503   3.252   2.939 -0.4509  0.1863  0.3146
 4287TIP3    H134352   0.411   3.241   2.962  0.0801 -1.6201  1.8328
 4287TIP3    H234353   0.513   3.206   2.856 -0.4021 -2.0996  1.5223
 4288TIP3   OH234354   5.727   0.009   1.616  0.2096  0.2132 -0.5193
 4288TIP3    H134355   5.672  -0.035   1.551 -0.9759  1.0237 -0.0985
 4288TIP3    H234356   5.756  -0.060   1.675 -1.6355 -0.0442  0.1431
 4289TIP3   OH234357   3.956   5.805   2.297 -0.1546 -0.5086  0.5132
 4289TIP3    H134358   3.962   5.866   2.223  0.7246 -1.2601 -0.0569
 4289TIP3    H234359   3.988   5.856   2.371  1.2140 -0.4395 -0.0820
 4290TIP3   OH234360   0.245   2.464   3.831 -0.2141  0.2353 -0.7543
 4290TIP3    H134361   0.252   2.554   3.862 -1.0978 -0.3063  1.1238
 4290TIP3    H234362   0.298   2.462   3.751 -0.6740  2.5583 -1.1821
 4291TIP3   OH234363   5.287   6.370  12.406 -0.4494 -0.4808  0.2078
 4291TIP3    H134364   5.269   6.361  12.312  0.5855 -0.0644 -0.0451
 4291TIP3    H234365   5.290   6.464  12.422  0.9786 -0.5098  0.3029
 4292TIP3   OH234366   2.932   6.564  12.046  0.8829  0.0423  0.3036
 4292TIP3    H134367   2.995   6.570  11.974  1.4498 -1.2961  0.6658
 4292TIP3    H234368   2.854   6.525  12.006  2.1586 -3.4533  0.9132
 4293TIP3   OH234369   5.063   0.830  16.060 -0.1246  0.4737 -0.0640
 4293TIP3    H134370   5.133   0.860  16.118 -0.0944  0.2584  0.0105
 4293TIP3    H234371   5.084   0.739  16.042  0.8419  0.9927 -1.8303
 4294TIP3   OH234372   0.383   2.320  17.208  0.3111  0.2649  0.5120
 4294TIP3    H134373   0.454   2.272  17.165 -1.3425 -1.7094 -0.1490
 4294TIP3    H234374   0.358   2.264  17.282 -1.1420  0.4530  0.1970
 4295TIP3   OH234375   0.862   4.743  13.946  0.3410  0.1993 -0.6564
 4295TIP3    H134376   0.790   4.806  13.949  0.3761  0.2382 -0.6226
 4295TIP3    H234377   0.893   4.745  13.855 -1.7621 -2.1362 -1.5323
 4296TIP3   OH234378   3.173   6.194  11.139  0.1453 -0.8163 -0.2906
 4296TIP3    H134379   3.226   6.216  11.062 -0.7953 -0.5974 -0.8914
 4296TIP3    H234380   3.125   6.115  11.113 -1.1312 -0.0384 -0.4209
 4297TIP3   OH234381   0.479   2.224   2.150  0.3232  0.5964  0.6442
 4297TIP3    H134382   0.443   2.244   2.064  0.1940  0.0235  0.5595
 4297TIP3    H234383   0.459   2.131   2.163 -0.4276  0.8814  1.6512
 4298TIP3   OH234384   2.120   1.449   0.884 -0.1810  0.0217 -0.9250
 4298TIP3    H134385   2.174   1.446   0.963 -0.8822  2.2573 -0.2851
 4298TIP3    H234386   2.180   1.482   0.816  0.5742 -2.4261 -1.5503
 4299TIP3   OH234387   1.325   2.992  13.398 -0.0047 -0.1901 -0.3230
 4299TIP3    H134388   1.326   2.933  13.323 -0.7541 -1.0827  0.3481
 4299TIP3    H234389   1.236   2.986  13.433 -0.7419  2.9252 -1.4261
 4300TIP3   OH234390   3.469   2.993  13.867  0.6052 -0.2628 -0.0031
 4300TIP3    H134391   3.482   3.075  13.915  2.8064 -1.6147  1.9135
 4300TIP3    H234392   3.502   3.011  13.779  2.5713  0.5362  0.8367
 4301TIP3   OH234393   1.678   3.603  17.051  0.3018 -0.0121 -0.0053
 4301TIP3    H134394   1.610   3.646  17.000  0.1704 -1.6943 -1.3189
 4301TIP3    H234395   1.648   3.610  17.142 -1.7677 -0.9055 -0.5661
 4302TIP3   OH234396   3.175   4.953  12.712  0.2891 -0.9476 -0.1927
 4302TIP3    H134397   3.183   4.917  12.624  0.5072  1.0051 -1.0274
 4302TIP3    H234398   3.258   4.999  12.727  0.4738 -1.6919  1.2653
 4303TIP3   OH234399   2.123   6.147   2.927  0.5159 -0.3921  0.7064
 4303TIP3    H134400   2.184   6.074   2.918  0.0751 -0.7320  0.4221
 4303TIP3    H234401   2.053   6.112   2.982 -0.8975 -0.9882 -1.3530
 4304TIP3   OH234402   0.587   3.694  11.636  0.0683  0.6161 -0.2310
 4304TIP3    H134403   0.586   3.788  11.654 -0.1446  0.4390  0.7352
 4304TIP3    H234404   0.640   3.657  11.706  0.9339  0.0998 -1.1213
 4305TIP3   OH234405   3.924   1.625   2.482 -0.2024 -0.0223  0.1241
 4305TIP3    H134406   3.850   1.646   2.538 -0.5063  1.0609 -0.6313
 4305TIP3    H234407   3.885   1.582   2.405  0.0177 -0.0009 -0.0014
 4306TIP3   OH234408   2.542   4.235  13.470  0.2687 -0.3327  0.3860
 4306TIP3    H134409   2.567   4.298  13.537 -1.8811  0.2542  0.7250
 4306TIP3    H234410   2.603   4.163  13.480  1.5303  0.8222  1.3217
 4307TIP3   OH234411   1.842   1.869  11.156 -0.5143 -0.2798  0.1185
 4307TIP3    H134412   1.808   1.793  11.202  1.4785 -0.3722  1.5446
 4307TIP3    H234413   1.795   1.869  11.072 -3.5433 -0.6555  1.6966
 4308TIP3   OH234414   4.388   2.460   5.084  0.1001 -0.0834  0.4573
 4308TIP3    H134415   4.324   2.442   5.015  0.0491  0.4715  0.3532
 4308TIP3    H234416   4.335   2.471   5.163  0.1895 -1.1034  0.6646
 4309TIP3   OH234417   0.665   5.661  15.214  0.3735  0.0384 -0.0448
 4309TIP3    H134418   0.721   5.603  15.163  0.1213  2.0123 -2.7731
 4309TIP3    H234419   0.614   5.602  15.270  2.2203 -2.0895 -0.4664
 4310TIP3   OH234420   4.239   6.294  12.838  0.4732 -0.0567 -0.3363
 4310TIP3    H134421   4.266   6.276  12.929 -1.6376  0.0108  0.3621
 4310TIP3    H234422   4.276   6.380  12.819 -1.1676  1.1138  1.4362
 4311TIP3   OH234423   4.777   2.414  16.316  0.1385 -0.2808  0.0787
 4311TIP3    H134424   4.752   2.371  16.234  0.5251 -0.4234  0.0327
 4311TIP3    H234425   4.712   2.384  16.380 -0.4363  0.1896 -0.2735
 4312TIP3   OH234426   0.468   1.070  16.783 -0.5635 -0.7798  0.1283
 4312TIP3    H134427   0.440   1.152  16.824 -0.0359 -0.5941  0.1204
 4312TIP3    H234428   0.387   1.033  16.747 -0.5471  0.6950 -1.5931
 4313TIP3   OH234429   1.606   4.406  17.156  0.8519 -0.0229 -0.0343
 4313TIP3    H134430   1.644   4.467  17.219  0.6124  0.7800 -0.6482
 4313TIP3    H234431   1.669   4.335  17.150  0.8858 -0.1105  1.0903
 4314TIP3   OH234432   4.084   3.193  14.790 -1.2180 -0.1001  0.4676
 4314TIP3    H134433   4.114   3.128  14.854  0.0406  0.4237  0.4380
 4314TIP3    H234434   3.996   3.217  14.820 -0.8739 -0.2730  1.6724
 4315TIP3   OH234435   0.163   1.198   1.822  0.1388 -0.4316 -0.2950
 4315TIP3    H134436   0.229   1.175   1.757 -0.4944 -0.3582 -0.9830
 4315TIP3    H234437   0.213   1.238   1.894  0.6798  1.8335 -1.8022
 4316TIP3   OH234438   6.801   5.030   0.194  0.2981 -0.0484  0.3101
 4316TIP3    H134439   6.831   5.022   0.284 -1.8203 -0.4509  1.0380
 4316TIP3    H234440   6.805   4.940   0.160 -0.3915 -0.1778  0.5452
 4317TIP3   OH234441   0.102   1.890  14.102 -0.4214  0.9654 -0.2490
 4317TIP3    H134442   0.145   1.889  14.017 -1.0892 -0.6966 -0.6077
 4317TIP3    H234443   0.172   1.912  14.164  0.3897  0.7793 -1.0762
 4318TIP3   OH234444   6.325   1.433   2.607  0.0295 -0.0016  0.1779
 4318TIP3    H134445   6.321   1.338   2.616 -0.2226  0.1198  1.4911
 4318TIP3    H234446   6.236   1.463   2.628 -0.0137  0.5073 -0.6523
 4319TIP3   OH234447   6.427   0.582   5.889 -0.2195 -0.3725 -0.0910
 4319TIP3    H134448   6.492   0.521   5.855 -2.0114 -1.7734 -1.1849
 4319TIP3    H234449   6.406   0.550   5.976 -1.4039 -1.6405 -0.7862
 4320TIP3   OH234450   2.857   3.703   5.150  0.9002  0.5155  0.1894
 4320TIP3    H134451   2.821   3.749   5.226 -1.2512  0.1515 -0.5454
 4320TIP3    H234452   2.915   3.637   5.187 -0.3613  0.1293  1.5687
 4321TIP3   OH234453   1.808   3.939   4.546 -0.5480  0.3383 -0.0477
 4321TIP3    H134454   1.749   3.971   4.614  0.7262  1.4164  0.5856
 4321TIP3    H234455   1.828   4.016   4.494  1.8461  0.4567  0.9364
 4322TIP3   OH234456   3.370   6.448   1.708 -0.1000  0.0393 -0.0294
 4322TIP3    H134457   3.395   6.362   1.675  1.5063 -0.9216  3.2765
 4322TIP3    H234458   3.301   6.431   1.771 -1.7370  1.5792 -1.2863
 4323TIP3   OH234459   0.149   6.450   4.662  0.1774  0.6267  0.3240
 4323TIP3    H134460   0.123   6.409   4.580 -0.6578 -1.0823  1.3888
 4323TIP3    H234461   0.148   6.544   4.644 -1.4889  0.3582 -1.1799
 4324TIP3   OH234462   4.044   5.110   5.378 -0.1337  1.1237 -0.2444
 4324TIP3    H134463   4.050   5.019   5.408  0.0636  0.8328 -1.1275
 4324TIP3    H234464   3.959   5.140   5.410 -0.6209  0.3179 -0.7424
 4325TIP3   OH234465   1.824   5.640   5.194  0.4714 -0.5680 -0.0445
 4325TIP3    H134466   1.810   5.552   5.229 -1.5805 -0.5481 -0.6672
 4325TIP3    H234467   1.743   5.687   5.213  0.6650  0.5145 -1.6525
 4326TIP3   OH234468   6.584   5.987  14.047  0.1809  0.7023  0.1506
 4326TIP3    H134469   6.511   5.932  14.020  0.3072  0.6035  0.0091
 4326TIP3    H234470   6.625   5.940  14.119 -0.9113  1.5589  1.3726
 4327TIP3   OH234471   2.889   6.803   6.101 -0.5205 -0.5149 -0.2531
 4327TIP3    H134472   2.886   6.808   6.006  1.1013  0.1749 -0.2964
 4327TIP3    H234473   2.920   6.889   6.130 -0.6545 -0.8222  0.8763
 4328TIP3   OH234474   5.372   1.365  14.017 -0.5831  0.3363 -0.1973
 4328TIP3    H134475   5.299   1.304  14.006  0.9654 -2.1218  2.0081
 4328TIP3    H234476   5.417   1.363  13.933 -0.4880 -1.7587 -0.1409
 4329TIP3   OH234477   2.288   2.748   3.327  0.0713  0.2006  0.5304
 4329TIP3    H134478   2.216   2.759   3.389  1.7770  2.1726  2.3081
 4329TIP3    H234479   2.309   2.655   3.331 -1.5745 -0.1846  0.8800
 4330TIP3   OH234480   4.620   0.060   1.656 -0.0677  0.6437  0.5629
 4330TIP3    H134481   4.618   0.074   1.561 -0.4234  0.2212  0.5056
 4330TIP3    H234482   4.699   0.009   1.671 -0.8421 -0.6761  0.2924
 4331TIP3   OH234483   4.711   4.571   5.060 -0.0760  0.2534 -0.0891
 4331TIP3    H134484   4.628   4.562   5.012 -0.0281  0.2897 -0.1793
 4331TIP3    H234485   4.771   4.608   4.996  0.4521 -1.2509 -0.4971
 4332TIP3   OH234486   6.510   6.229  12.191 -0.2727  0.0197  0.1729
 4332TIP3    H134487   6.426   6.185  12.206 -0.2193 -0.4306 -0.7496
 4332TIP3    H234488   6.488   6.305  12.137 -0.2307  0.5472  0.8940
 4333TIP3   OH234489   4.262   3.523   3.530 -0.6075  0.4309  0.5397
 4333TIP3    H134490   4.199   3.485   3.591 -0.4961  0.4368  0.6612
 4333TIP3    H234491   4.337   3.463   3.534  0.1965  1.4512  1.8951
 4334TIP3   OH234492   5.019   4.851   6.738  0.1277 -0.0930 -0.1310
 4334TIP3    H134493   5.087   4.862   6.803  1.4255 -1.0169 -1.2577
 4334TIP3    H234494   5.038   4.916   6.671  0.1065 -0.5629 -0.6066
 4335TIP3   OH234495   5.719   2.379   6.098  0.3124  0.2011 -0.5742
 4335TIP3    H134496   5.682   2.407   6.015  0.2385 -0.2388 -0.6925
 4335TIP3    H234497   5.813   2.393   6.089  0.3904 -0.5340 -1.0114
 4336TIP3   OH234498   3.919   1.394   4.167  0.7739  0.0548  0.3791
 4336TIP3    H134499   3.882   1.473   4.205 -0.5659 -1.2851  2.0691
 4336TIP3    H234500   4.005   1.420   4.135 -0.0680  2.4018 -0.1158
 4337TIP3   OH234501   6.216   3.348   3.163  0.7229 -0.3654  0.3432
 4337TIP3    H134502   6.295   3.393   3.134  1.2594  0.1558  2.4587
 4337TIP3    H234503   6.145   3.386   3.110  1.4933  1.2552  0.4255
 4338TIP3   OH234504   2.917   3.261  15.124  0.3448 -0.1501  0.3375
 4338TIP3    H134505   2.904   3.343  15.173  0.0618  0.0556 -0.0774
 4338TIP3    H234506   2.828   3.228  15.110  0.4410 -0.3398  0.1854
 4339TIP3   OH234507   2.087   3.245  14.615  0.5523  0.0972 -0.3170
 4339TIP3    H134508   2.121   3.156  14.628  1.1283  0.4932  1.0717
 4339TIP3    H234509   2.008   3.232  14.562  2.1496 -0.9495 -2.6115
 4340TIP3   OH234510   4.149   3.764   4.888  0.2059 -0.6405 -0.2375
 4340TIP3    H134511   4.150   3.669   4.903 -1.0359 -0.5373  0.6984
 4340TIP3    H234512   4.181   3.774   4.799  0.0377 -1.9716 -0.4752
 4341TIP3   OH234513   1.942   6.645  12.173 -0.2866  0.9438  0.3032
 4341TIP3    H134514   2.025   6.596  12.171 -0.8184 -0.0101  0.6998
 4341TIP3    H234515   1.932   6.678  12.084  1.4492  2.7088  0.6863
 4342TIP3   OH234516   1.824   4.880   6.529 -0.2012 -0.4911 -0.4635
 4342TIP3    H134517   1.760   4.946   6.555  0.7609 -0.7295  2.9505
 4342TIP3    H234518   1.895   4.929   6.489  0.3957  0.6295  1.8137
 4343TIP3   OH234519   5.979   0.999   4.281 -0.4467  0.1400 -0.7454
 4343TIP3    H134520   6.001   1.083   4.320  0.2798 -1.1261  1.7656
 4343TIP3    H234521   5.912   1.020   4.216 -1.2316  2.5042  0.6983
 4344TIP3   OH234522   2.564   4.038  16.895 -0.8477 -0.0583 -0.2870
 4344TIP3    H134523   2.589   4.067  16.982 -0.5711 -0.3249 -0.2784
 4344TIP3    H234524   2.568   4.118  16.841 -1.2398  0.1496 -0.0104
 4345TIP3   OH234525   1.045   3.716  16.020 -0.0643  0.5798  0.0787
 4345TIP3    H134526   1.100   3.782  16.062  1.1393  0.4714 -1.2504
 4345TIP3    H234527   1.105   3.643  16.002 -1.1243 -0.4220  0.5196
 4346TIP3   OH234528   4.900   4.729  12.135  0.0965  0.4296 -0.0396
 4346TIP3    H134529   4.938   4.649  12.169 -1.9090 -0.9470 -0.8764
 4346TIP3    H234530   4.893   4.714  12.040 -0.2628  1.6059 -0.2176
 4347TIP3   OH234531   5.513   2.071   3.625  0.6954  0.4123  0.2169
 4347TIP3    H134532   5.596   2.024   3.624  1.0137  0.9024  1.3975
 4347TIP3    H234533   5.527   2.146   3.566  0.8286  0.0928 -0.1633
 4348TIP3   OH234534   1.637   2.718  15.528 -0.0627  0.3356  0.2158
 4348TIP3    H134535   1.681   2.781  15.585 -3.0360  2.4764  0.3838
 4348TIP3    H234536   1.621   2.642  15.583  0.9963  0.5857  0.9004
 4349TIP3   OH234537   0.482   0.478  16.638 -0.4924 -0.1958  0.2746
 4349TIP3    H134538   0.452   0.557  16.594  0.1017 -0.7072 -1.0999
 4349TIP3    H234539   0.551   0.508  16.697 -0.9551  0.4405  0.4915
 4350TIP3   OH234540   4.856   2.185  11.398 -0.1205 -0.1321  0.5822
 4350TIP3    H134541   4.784   2.160  11.341 -0.3832  1.3647  0.2138
 4350TIP3    H234542   4.839   2.139  11.480 -1.3707 -0.0138  0.4111
 4351TIP3   OH234543   0.717   3.776   3.669 -0.0863 -0.1317  0.2324
 4351TIP3    H134544   0.749   3.705   3.725  1.3278  0.1570 -0.1555
 4351TIP3    H234545   0.631   3.798   3.704 -0.2602 -1.5934  0.7594
 4352TIP3   OH234546   3.605   6.455  11.977 -0.0034 -0.6683 -0.2610
 4352TIP3    H134547   3.669   6.448  11.906  1.5280  1.4912  0.7668
 4352TIP3    H234548   3.644   6.405  12.049  0.3770  0.2821  0.2216
 4353TIP3   OH234549   0.020   1.263   0.038 -0.2185  0.0571 -0.5024
 4353TIP3    H134550  -0.057   1.276  -0.017  0.1049 -0.0382 -0.9761
 4353TIP3    H234551   0.083   1.218  -0.017 -0.4479 -1.4584  0.4067
 4354TIP3   OH234552   0.952   2.088  10.614 -0.1759  0.4673 -0.1770
 4354TIP3    H134553   0.941   2.171  10.660  0.6015  1.9791 -2.5401
 4354TIP3    H234554   0.871   2.079  10.563 -0.1458 -0.0963 -0.1280
 4355TIP3   OH234555   2.552   2.296   4.118 -0.4933 -0.2752  0.4962
 4355TIP3    H134556   2.465   2.311   4.079 -0.4607 -2.4642 -0.5776
 4355TIP3    H234557   2.591   2.227   4.064  0.4108 -2.0193  3.1568
 4356TIP3   OH234558   2.462   5.936  12.879  0.2632 -0.3716  0.2172
 4356TIP3    H134559   2.544   5.983  12.866  0.1828 -0.7973 -2.1736
 4356TIP3    H234560   2.489   5.854  12.922  1.3999 -1.2595 -1.9942
 4357TIP3   OH234561   2.062   1.898   5.175 -0.1903 -0.2829 -0.5658
 4357TIP3    H134562   2.127   1.959   5.210 -0.3086 -0.2950 -0.3198
 4357TIP3    H234563   2.003   1.883   5.249 -2.0957  1.8692 -1.5239
 4358TIP3   OH234564   2.976   6.013   5.687 -0.1212 -0.4494  0.5244
 4358TIP3    H134565   2.908   6.006   5.620  1.0918  0.2251 -0.8495
 4358TIP3    H234566   2.930   6.002   5.770 -1.7862 -0.6492 -0.3872
 4359TIP3   OH234567   6.756   6.371  17.077 -0.4140 -0.5436 -0.1706
 4359TIP3    H134568   6.722   6.370  16.987 -3.5677 -0.8876  0.8911
 4359TIP3    H234569   6.747   6.462  17.104  0.0931 -0.5299 -0.0496
 4360TIP3   OH234570   1.988   6.631   2.353  0.3794 -0.1475 -0.2536
 4360TIP3    H134571   1.974   6.725   2.337 -0.2112  0.2859  2.4494
 4360TIP3    H234572   1.914   6.589   2.310  0.4227  0.6422 -1.1460
 4361TIP3   OH234573   0.209   1.320   5.507 -0.6790 -0.1280 -0.3390
 4361TIP3    H134574   0.233   1.334   5.598 -0.7673  1.7818 -0.5541
 4361TIP3    H234575   0.129   1.372   5.495 -2.2569 -2.4997 -0.8618
 4362TIP3   OH234576   4.626   1.703   0.186 -0.3996  0.2755 -0.6728
 4362TIP3    H134577   4.712   1.746   0.182  0.3966 -0.9887  1.2951
 4362TIP3    H234578   4.567   1.762   0.138  0.9305  2.7509  0.5572
 4363TIP3   OH234579   6.189   1.133   3.519  0.7124 -0.5233 -0.1440
 4363TIP3    H134580   6.109   1.084   3.499 -0.5919  0.6086  1.9468
 4363TIP3    H234581   6.250   1.107   3.450 -1.2054 -1.9665 -1.4312
 4364TIP3   OH234582   5.263   0.049   6.358  0.0842 -0.1391  0.6021
 4364TIP3    H134583   5.249   0.035   6.451 -0.2247  2.0307  0.9514
 4364TIP3    H234584   5.197   0.115   6.334  2.0043  1.4909 -0.4621
 4365TIP3   OH234585   4.431   2.358  14.939  0.1501 -0.4276  0.2780
 4365TIP3    H134586   4.460   2.269  14.961 -1.5616 -0.4803  2.8103
 4365TIP3    H234587   4.488   2.415  14.991  2.9390  0.2695 -3.2196
 4366TIP3   OH234588   0.008   6.427   4.156 -0.0718  0.2146  0.2131
 4366TIP3    H134589  -0.012   6.516   4.127 -1.0426 -0.3652 -0.9724
 4366TIP3    H234590   0.001   6.373   4.077 -0.5944 -1.0888  1.1103
 4367TIP3   OH234591   6.247   0.331  12.352 -0.4611  0.0246 -0.1033
 4367TIP3    H134592   6.290   0.262  12.301  0.0352  0.0838  0.2296
 4367TIP3    H234593   6.228   0.399  12.288 -1.1465 -0.5015 -0.4786
 4368TIP3   OH234594   2.248   0.829   5.399  0.3802 -0.2865 -0.3787
 4368TIP3    H134595   2.222   0.789   5.481  0.4956 -0.2497 -0.3242
 4368TIP3    H234596   2.344   0.832   5.402  0.3408  1.1678  0.1837
 4369TIP3   OH234597   0.877   0.080  11.938 -0.2457 -0.0857 -0.7129
 4369TIP3    H134598   0.846   0.055  11.851 -2.6154 -1.2594  0.3902
 4369TIP3    H234599   0.840   0.168  11.951 -1.2380 -0.5453 -0.3140
 4370TIP3   OH234600   3.973   3.540  14.901 -0.9965 -0.0571 -0.4363
 4370TIP3    H134601   3.946   3.492  14.822  0.3277 -1.1853 -0.2435
 4370TIP3    H234602   3.944   3.484  14.973 -1.1652  0.4043 -0.1408
 4371TIP3   OH234603   4.163   4.049  13.667  0.0626  0.0815 -0.3233
 4371TIP3    H134604   4.199   4.130  13.701  0.4848  0.3020 -1.2654
 4371TIP3    H234605   4.202   3.980  13.721  0.7946  0.4150 -0.4252
 4372TIP3   OH234606   5.216   4.739   5.407  0.0690 -0.0276  0.2787
 4372TIP3    H134607   5.177   4.720   5.492  1.9762  1.9646  1.7330
 4372TIP3    H234608   5.154   4.798   5.364 -0.5483 -0.4208  0.6281
 4373TIP3   OH234609   0.804   2.461  14.250 -0.4365 -0.3764 -0.2800
 4373TIP3    H134610   0.803   2.370  14.281  0.4394 -1.0045 -1.9249
 4373TIP3    H234611   0.768   2.455  14.161  0.6228  0.7157 -0.8022
 4374TIP3   OH234612   3.875   0.444  11.662  0.0067 -0.2329  0.6781
 4374TIP3    H134613   3.933   0.440  11.586  2.7053 -0.8616  2.6350
 4374TIP3    H234614   3.818   0.367  11.652  0.5930 -0.5505 -0.4579
 4375TIP3   OH234615   5.820   1.975   0.263  0.0864 -0.2474  0.3606
 4375TIP3    H134616   5.778   1.947   0.181 -0.7990 -1.2804  1.1284
 4375TIP3    H234617   5.769   2.050   0.292  0.6327  0.3537 -0.2118
 4376TIP3   OH234618   2.851   6.065   0.805  0.5410  0.0916 -0.6252
 4376TIP3    H134619   2.813   6.149   0.830  1.1236  0.6485 -1.5347
 4376TIP3    H234620   2.777   6.005   0.801 -0.0215  0.7866 -0.8666
 4377TIP3   OH234621   1.125   0.129   2.176 -0.3001 -0.3158 -0.8289
 4377TIP3    H134622   1.211   0.138   2.217 -0.6773  0.4763 -0.1953
 4377TIP3    H234623   1.063   0.146   2.246 -0.9983  3.5577 -2.1797
 4378TIP3   OH234624   0.190   3.193  15.581  0.3388 -0.2637  0.0058
 4378TIP3    H134625   0.114   3.233  15.539  0.2036  1.0577  1.4120
 4378TIP3    H234626   0.265   3.226  15.532  0.1762  1.1361  0.6605
 4379TIP3   OH234627   0.038   0.090  16.228  0.4061 -0.1706 -0.0453
 4379TIP3    H134628  -0.014   0.015  16.201  0.6603 -0.4820  0.3226
 4379TIP3    H234629   0.126   0.055  16.242 -0.2683 -0.7177  4.0334
 4380TIP3   OH234630   0.041   4.691   3.623 -0.1293 -0.2509  0.0302
 4380TIP3    H134631  -0.037   4.649   3.586 -1.3182  0.4346  1.6186
 4380TIP3    H234632   0.023   4.697   3.717  0.4096  2.8013  0.0439
 4381TIP3   OH234633   6.422   4.591   1.284  0.0929 -0.2987 -0.0870
 4381TIP3    H134634   6.405   4.526   1.216  0.7591  0.0399 -0.5803
 4381TIP3    H234635   6.404   4.545   1.366  0.6591 -1.1343 -0.4243
 4382TIP3   OH234636   2.438   0.932   5.727  0.7528  0.1303 -0.2690
 4382TIP3    H134637   2.467   0.841   5.722  0.4509 -0.0150  0.4983
 4382TIP3    H234638   2.416   0.945   5.820 -0.3499  0.6245 -0.5852
 4383TIP3   OH234639   3.200   1.248   1.123  0.3993 -0.7772 -0.0166
 4383TIP3    H134640   3.287   1.224   1.093  0.4202  0.1214 -0.7001
 4383TIP3    H234641   3.145   1.242   1.044 -0.1169 -1.1255  0.3606
 4384TIP3   OH234642   0.666   6.407  11.891  0.2547 -0.2924 -0.4803
 4384TIP3    H134643   0.610   6.331  11.908 -0.5826  0.4085 -0.0422
 4384TIP3    H234644   0.703   6.429  11.976  1.0420 -0.6119 -0.7281
 4385TIP3   OH234645   0.248   4.819  15.941 -0.3240 -0.4447 -0.1947
 4385TIP3    H134646   0.326   4.811  15.886  0.4603  1.2481  0.5893
 4385TIP3    H234647   0.244   4.737  15.989 -0.1257 -1.3128 -1.6047
 4386TIP3   OH234648   3.724   5.978  17.095  0.3015 -0.5562 -0.2269
 4386TIP3    H134649   3.794   6.043  17.104 -0.6759  0.3949  0.7658
 4386TIP3    H234650   3.656   6.007  17.155 -0.6780 -1.8422 -0.6664
 4387TIP3   OH234651   6.510   5.011   5.501 -0.8559  0.3678 -0.1502
 4387TIP3    H134652   6.456   4.934   5.483  1.0060 -0.6748 -1.5195
 4387TIP3    H234653   6.546   4.994   5.588 -0.9977  0.0203 -0.1549
 4388TIP3   OH234654   1.817   3.734   2.702  0.2600  0.3848  0.4416
 4388TIP3    H134655   1.883   3.683   2.655 -0.6803  0.1668 -0.6959
 4388TIP3    H234656   1.794   3.804   2.641 -1.1074  0.0071  0.4979
 4389TIP3   OH234657   1.384   4.416  11.845 -0.1479 -0.0303  0.3823
 4389TIP3    H134658   1.347   4.466  11.773  0.9320 -0.4602 -0.5023
 4389TIP3    H234659   1.445   4.477  11.888  1.0379 -0.4860 -0.5900
 4390TIP3   OH234660   2.043   3.975   2.594 -0.7544  0.5045 -0.1885
 4390TIP3    H134661   2.056   3.899   2.651  0.9407  0.7796 -0.1459
 4390TIP3    H234662   2.048   3.941   2.505 -1.1512  0.4028 -0.1727
 4391TIP3   OH234663   0.950   1.893   1.821 -0.0114 -0.0551 -0.1437
 4391TIP3    H134664   0.862   1.930   1.817  0.1280  0.1560 -1.7772
 4391TIP3    H234665   0.961   1.849   1.737  1.0401 -1.0296  0.4844
 4392TIP3   OH234666   2.544   5.846  11.439  0.3659 -0.0320  0.8510
 4392TIP3    H134667   2.629   5.824  11.477  0.8518 -0.0482 -0.2213
 4392TIP3    H234668   2.554   5.828  11.346 -0.0597  2.1877  0.3220
 4393TIP3   OH234669   0.746   1.654  13.319 -0.3808 -0.1031 -0.0153
 4393TIP3    H134670   0.707   1.698  13.395 -0.1647 -0.1821  0.1424
 4393TIP3    H234671   0.811   1.595  13.356  0.2824  0.4338 -0.3107
 4394TIP3   OH234672   5.381   6.262  14.362  0.0664 -0.2350 -0.7400
 4394TIP3    H134673   5.380   6.294  14.272 -0.0891  1.2295 -0.2354
 4394TIP3    H234674   5.427   6.330  14.411 -0.3604 -0.7411  0.3844
 4395TIP3   OH234675   6.517   3.853  17.296  0.1524 -0.2937  0.4775
 4395TIP3    H134676   6.425   3.835  17.313  1.0936 -3.1827  3.5613
 4395TIP3    H234677   6.540   3.793  17.224 -0.3736  0.6875 -0.5438
 4396TIP3   OH234678   3.939   3.790  14.001 -0.0792  0.2055 -0.1051
 4396TIP3    H134679   3.884   3.721  13.962  0.4147 -0.7572  0.8417
 4396TIP3    H234680   3.990   3.744  14.068 -0.8131  1.7646  1.5877
 4397TIP3   OH234681   5.954   6.025  11.225 -0.3247  0.1700 -0.2121
 4397TIP3    H134682   5.953   6.086  11.299  0.6206 -1.3307  1.1142
 4397TIP3    H234683   5.875   6.045  11.176 -1.3017  0.8382  1.5531
 4398TIP3   OH234684   1.514   4.286   4.600  0.8512 -0.5716 -0.1993
 4398TIP3    H134685   1.498   4.229   4.525  2.7881 -0.2902 -0.8567
 4398TIP3    H234686   1.538   4.370   4.563 -0.2930  0.2280  0.7759
 4399TIP3   OH234687   0.160   2.276   2.671  0.0917 -0.1460  0.1514
 4399TIP3    H134688   0.086   2.276   2.732 -0.3522 -1.0457 -0.3668
 4399TIP3    H234689   0.168   2.185   2.643  1.4995 -0.0913  0.3053
 4400TIP3   OH234690   0.887   5.909   1.927 -0.1628  0.7780 -0.3546
 4400TIP3    H134691   0.932   5.942   2.004  1.9466  0.6656 -1.4777
 4400TIP3    H234692   0.857   5.987   1.881 -0.9574  0.8580  0.2645
 4401TIP3   OH234693   3.798   3.855   0.082 -0.0799  0.3312  0.3640
 4401TIP3    H134694   3.804   3.859  -0.013 -2.1215  1.7636  0.2266
 4401TIP3    H234695   3.776   3.764   0.102  1.5728 -0.2765 -0.3887
 4402TIP3   OH234696   3.346   0.746  12.568  0.0667  0.0093  0.1315
 4402TIP3    H134697   3.377   0.679  12.507  0.3168 -0.0397  0.3086
 4402TIP3    H234698   3.275   0.790  12.522  2.7722  2.6796 -1.8910
 4403TIP3   OH234699   3.702   5.901   1.616  0.0553 -0.4949  0.2131
 4403TIP3    H134700   3.739   5.942   1.537 -1.6524  1.5695  0.3707
 4403TIP3    H234701   3.684   5.811   1.590  0.7478 -0.2284 -1.3353
 4404TIP3   OH234702   4.460   3.812  12.730  0.4923 -0.5856 -0.2304
 4404TIP3    H134703   4.509   3.858  12.661 -1.8395  0.1742 -1.5048
 4404TIP3    H234704   4.456   3.875  12.802 -0.9495  0.5102 -1.2032
 4405TIP3   OH234705   0.038   4.307   3.238  0.5277  0.1521 -0.1070
 4405TIP3    H134706  -0.047   4.324   3.278  1.1914  3.7657  0.1302
 4405TIP3    H234707   0.021   4.309   3.144  0.2955  0.5653 -0.0590
 4406TIP3   OH234708   6.229   4.586   3.858  0.0006  1.0790  0.1968
 4406TIP3    H134709   6.322   4.592   3.880  0.5275 -0.2740 -1.3926
 4406TIP3    H234710   6.222   4.505   3.808 -2.1957  0.7509  0.9350
 4407TIP3   OH234711   5.451   2.884   5.678  0.3400  0.3377 -0.6080
 4407TIP3    H134712   5.456   2.973   5.713 -0.1932  0.1947 -0.1592
 4407TIP3    H234713   5.444   2.828   5.755 -1.5500  0.0684 -0.9229
 4408TIP3   OH234714   1.448   3.548   3.385  0.0477 -0.2229  0.0703
 4408TIP3    H134715   1.408   3.633   3.404 -2.0291 -1.1036 -0.0427
 4408TIP3    H234716   1.377   3.497   3.347  1.3348 -1.9270 -0.1465
 4409TIP3   OH234717   1.173   2.018   5.661  0.1234  1.0123 -0.1368
 4409TIP3    H134718   1.186   2.000   5.755 -0.8327 -0.1674 -0.2023
 4409TIP3    H234719   1.258   1.998   5.621 -0.2568 -1.5374  0.1038
 4410TIP3   OH234720   5.969   3.490   5.679 -0.2708  0.6889  0.6888
 4410TIP3    H134721   5.916   3.552   5.728 -1.5739  1.1420 -1.1731
 4410TIP3    H234722   6.050   3.538   5.661 -0.0660  0.7665  1.7485
 4411TIP3   OH234723   3.483   2.053   2.116 -0.1868 -0.1524  0.3328
 4411TIP3    H134724   3.520   2.117   2.055  0.1181 -1.6147 -1.1087
 4411TIP3    H234725   3.427   2.104   2.174 -0.0777  1.3859 -0.8520
 4412TIP3   OH234726   4.609   2.006  13.073 -0.4797 -0.1839 -0.1747
 4412TIP3    H134727   4.530   1.963  13.105 -1.4554 -0.3763 -2.6186
 4412TIP3    H234728   4.579   2.058  12.998  1.2105  2.2098  0.6895
 4413TIP3   OH234729   0.181   4.779   5.788  0.0398 -0.3677 -0.3443
 4413TIP3    H134730   0.122   4.732   5.728  0.1582 -2.1461  0.8383
 4413TIP3    H234731   0.124   4.809   5.859  0.1735  0.1332 -0.4499
 4414TIP3   OH234732   5.241   3.086   3.778  0.2690 -0.1976  0.3419
 4414TIP3    H134733   5.286   3.155   3.827  0.7312 -0.8744  0.8979
 4414TIP3    H234734   5.148   3.107   3.788  0.3945  0.2121  0.7051
 4415TIP3   OH234735   3.648   5.875   4.667 -0.1028  0.0936  0.3482
 4415TIP3    H134736   3.562   5.917   4.663  0.2208  0.9923  1.8334
 4415TIP3    H234737   3.710   5.945   4.647  0.3892  0.1537  1.8806
 4416TIP3   OH234738   4.107   2.063  14.461  0.0723  0.6738  0.0346
 4416TIP3    H134739   4.052   2.141  14.450  0.6538  1.1843  0.5962
 4416TIP3    H234740   4.134   2.039  14.373  0.4483  1.5356 -0.0975
 4417TIP3   OH234741   0.994   5.721   4.858 -0.3761 -0.0629 -0.6919
 4417TIP3    H134742   0.948   5.753   4.936  0.7584 -2.2634  0.9769
 4417TIP3    H234743   1.074   5.774   4.854 -1.5108  1.6776 -1.8322
 4418TIP3   OH234744   0.811   3.562  16.639  0.2676  0.1090 -0.0839
 4418TIP3    H134745   0.856   3.638  16.602  0.0867 -0.0917 -0.7382
 4418TIP3    H234746   0.810   3.578  16.733  3.4398 -0.8069  0.1971
 4419TIP3   OH234747   3.516   2.305  16.158  0.0265 -0.4273  0.1356
 4419TIP3    H134748   3.469   2.299  16.075  2.2372 -2.5146 -1.0754
 4419TIP3    H234749   3.496   2.223  16.203  0.0846  0.0060  0.9735
 4420TIP3   OH234750   1.545   2.568  10.617 -0.4078 -0.3528 -0.1614
 4420TIP3    H134751   1.571   2.482  10.585  0.2282 -0.2235 -0.0091
 4420TIP3    H234752   1.593   2.580  10.698 -0.8898 -0.0643  0.0896
 4421TIP3   OH234753   6.172   0.668   3.641 -0.0859 -0.1052  0.5523
 4421TIP3    H134754   6.256   0.681   3.597 -0.4710  1.1697  0.1386
 4421TIP3    H234755   6.192   0.679   3.734  0.0195  1.5700  0.3730
 4422TIP3   OH234756   1.798   6.231  13.854 -0.8390  0.7736  0.0967
 4422TIP3    H134757   1.883   6.208  13.891 -1.1387  1.3460  1.1788
 4422TIP3    H234758   1.735   6.211  13.923 -1.3186  2.7529  0.3152
 4423TIP3   OH234759   5.270   4.924  10.598 -0.8693  0.7262 -0.6540
 4423TIP3    H134760   5.298   4.865  10.529 -0.7363  0.7623 -0.6305
 4423TIP3    H234761   5.203   4.979  10.557 -1.7175 -0.0949 -0.4076
 4424TIP3   OH234762   1.137   3.309  16.329  0.7839 -0.2373  0.0034
 4424TIP3    H134763   1.131   3.271  16.241  3.2037  1.6935 -1.1094
 4424TIP3    H234764   1.049   3.342  16.347  0.5408  0.5422 -2.3092
 4425TIP3   OH234765   3.817   6.037  15.050  0.1838  0.2620  0.4080
 4425TIP3    H134766   3.845   6.086  15.128  0.1269  2.1347 -0.6958
 4425TIP3    H234767   3.844   6.091  14.976 -1.2444 -0.6437 -0.8502
 4426TIP3   OH234768   5.255   4.678  11.738 -0.9975 -0.5188  0.2178
 4426TIP3    H134769   5.256   4.592  11.782 -0.2595 -1.6704 -1.9093
 4426TIP3    H234770   5.344   4.710  11.746 -0.5864 -1.2064 -1.1976
 4427TIP3   OH234771   1.432   2.212  11.014 -0.0689  0.3923 -0.3324
 4427TIP3    H134772   1.488   2.136  11.001 -1.5475 -0.5325 -1.6214
 4427TIP3    H234773   1.477   2.284  10.968  1.1545  0.2531  0.5890
 4428TIP3   OH234774   6.478   3.787  12.751 -0.2833 -0.6024  0.3811
 4428TIP3    H134775   6.473   3.692  12.751  1.1845 -0.7318  2.7707
 4428TIP3    H234776   6.484   3.812  12.843  3.7328  1.5033 -0.2224
 4429TIP3   OH234777   6.330   2.045  14.917 -0.4462  0.4190 -0.3475
 4429TIP3    H134778   6.296   2.080  14.999  1.1056  0.0683  0.4819
 4429TIP3    H234779   6.311   1.951  14.920  2.1735 -0.1718  1.0512
 4430TIP3   OH234780   4.391   3.956   0.669  0.1654 -0.4169 -0.5097
 4430TIP3    H134781   4.431   4.027   0.619 -1.2976 -0.7482 -2.2494
 4430TIP3    H234782   4.338   3.909   0.605 -0.5579 -1.8230  1.0587
 4431TIP3   OH234783   2.862   1.975   0.583 -0.2104  0.3804 -0.4717
 4431TIP3    H134784   2.819   2.014   0.659 -0.2311 -0.3091 -0.1291
 4431TIP3    H234785   2.804   1.905   0.555  0.8016 -0.7515  0.1721
 4432TIP3   OH234786   0.961   4.447  15.674  0.0977  0.2567 -0.0317
 4432TIP3    H134787   0.958   4.506  15.599  1.2148  0.6284  0.1978
 4432TIP3    H234788   1.004   4.498  15.743 -0.3853 -0.2740  0.6787
 4433TIP3   OH234789   3.777   0.351   5.549 -0.1475  0.3191  0.4236
 4433TIP3    H134790   3.843   0.285   5.528 -0.4203  0.8815 -2.6155
 4433TIP3    H234791   3.826   0.434   5.549 -0.4333  0.4942  0.7657
 4434TIP3   OH234792   6.181   0.774   1.824 -0.4972  0.2252 -0.3070
 4434TIP3    H134793   6.191   0.812   1.912  0.7898 -1.6569  0.4187
 4434TIP3    H234794   6.121   0.700   1.837  2.8756 -2.7061 -0.0397
 4435TIP3   OH234795   1.965   4.091   3.173  0.4276 -0.2641  0.3076
 4435TIP3    H134796   2.049   4.098   3.128  0.8024  1.6458  1.1953
 4435TIP3    H234797   1.968   4.006   3.217  2.0322 -0.1184  0.5399
 4436TIP3   OH234798   4.921   3.768   0.421  0.3930  0.0506 -0.6635
 4436TIP3    H134799   4.833   3.792   0.450  0.0679  0.6069 -2.0631
 4436TIP3    H234800   4.917   3.673   0.409 -0.2578  0.1830 -1.5187
 4437TIP3   OH234801   5.365   5.817  10.948  0.5374 -0.4730 -0.0834
 4437TIP3    H134802   5.320   5.805  10.865 -0.3668 -0.8585  0.4417
 4437TIP3    H234803   5.362   5.911  10.965 -2.6187 -0.6895  1.2625
 4438TIP3   OH234804   5.899   5.411  16.850  0.3048  0.0413  0.1294
 4438TIP3    H134805   5.986   5.395  16.813  0.3473  2.2280 -0.8935
 4438TIP3    H234806   5.915   5.467  16.925 -0.2105  0.3281  0.0268
 4439TIP3   OH234807   4.984   3.598  12.533  0.1353 -0.1315 -0.1097
 4439TIP3    H134808   4.972   3.655  12.609  0.0996 -0.4750  0.1400
 4439TIP3    H234809   4.908   3.541  12.534 -0.2214  0.3148 -0.8009
 4440TIP3   OH234810   4.391   5.257   0.582  0.6855  0.3954  0.1692
 4440TIP3    H134811   4.343   5.229   0.504 -0.2175  0.3508  0.7331
 4440TIP3    H234812   4.357   5.203   0.653  2.4863 -0.5427  0.3816
 4441TIP3   OH234813   4.280   2.987   3.741 -0.5202  0.2825 -0.2438
 4441TIP3    H134814   4.244   2.989   3.829  1.7224  0.5531  0.7358
 4441TIP3    H234815   4.340   2.913   3.741 -2.1427 -1.1454 -2.3082
 4442TIP3   OH234816   3.534   5.489  13.355 -0.0851 -0.3818  0.8143
 4442TIP3    H134817   3.622   5.490  13.317  0.5163 -2.2876  2.0160
 4442TIP3    H234818   3.527   5.572  13.401 -0.1419  1.1675 -1.8090
 4443TIP3   OH234819   0.138   6.109  12.735 -0.2966  0.2183  0.4246
 4443TIP3    H134820   0.098   6.148  12.658  0.8680 -2.6873 -1.8375
 4443TIP3    H234821   0.064   6.075  12.786 -1.0043  0.2449 -0.5638
 4444TIP3   OH234822   1.251   2.030  14.312 -0.5485 -0.1836 -0.1446
 4444TIP3    H134823   1.177   2.002  14.257 -1.7343  0.3562  1.1086
 4444TIP3    H234824   1.230   2.121  14.334 -0.0837 -0.3764  1.1554
 4445TIP3   OH234825   5.475   1.930  14.997 -0.2370 -0.0410 -0.3278
 4445TIP3    H134826   5.477   1.994  14.926 -1.3553  0.3282 -0.0390
 4445TIP3    H234827   5.562   1.937  15.038 -0.3576  1.3152 -0.2781
 4446TIP3   OH234828   1.604   3.614   2.471  0.8794 -0.0426 -0.2387
 4446TIP3    H134829   1.699   3.598   2.468  1.0818  1.1068 -0.2937
 4446TIP3    H234830   1.588   3.677   2.401 -0.0114 -0.5869 -0.5381
 4447TIP3   OH234831   1.619   6.173  15.111 -0.1323 -0.3265 -0.3634
 4447TIP3    H134832   1.674   6.247  15.086 -0.4299 -0.7354 -2.3704
 4447TIP3    H234833   1.582   6.198  15.196  1.2844  0.9620 -0.0897
 4448TIP3   OH234834   0.407   0.526   3.015  0.2486  0.0102  0.4057
 4448TIP3    H134835   0.485   0.512   3.068  0.0202 -2.5637  0.1891
 4448TIP3    H234836   0.398   0.446   2.963 -2.7027  0.0355  0.6802
 4449TIP3   OH234837   6.578   4.274  11.377  0.1357  0.2842 -0.0239
 4449TIP3    H134838   6.589   4.234  11.291  0.2256 -0.9101  0.5262
 4449TIP3    H234839   6.571   4.368  11.359  0.1968  0.0561 -1.3218
 4450TIP3   OH234840   6.021   5.154  14.643 -0.4808  0.3406  0.4232
 4450TIP3    H134841   6.026   5.128  14.551 -1.3285  2.3737 -0.2393
 4450TIP3    H234842   5.958   5.092  14.681  0.0013 -0.6264 -0.2991
 4451TIP3   OH234843   5.283   6.248   5.655  0.1923 -0.3002  0.0870
 4451TIP3    H134844   5.347   6.281   5.719 -0.4558 -1.8531  1.6316
 4451TIP3    H234845   5.334   6.192   5.597  0.6540  0.5115 -0.3136
 4452TIP3   OH234846   6.076   4.071   3.458 -0.8594  0.0892 -0.1304
 4452TIP3    H134847   5.993   4.026   3.475 -0.8017  0.0665  0.0978
 4452TIP3    H234848   6.142   4.002   3.464 -0.8584  0.0334 -0.6939
 4453TIP3   OH234849   4.264   4.252  15.662 -0.0444  0.5807  0.8248
 4453TIP3    H134850   4.318   4.316  15.617 -0.0995  1.0909  1.4644
 4453TIP3    H234851   4.293   4.256  15.753  0.4088 -0.7844  0.7690
 4454TIP3   OH234852   1.737   3.599  15.427 -0.0047  0.1960 -1.3876
 4454TIP3    H134853   1.685   3.679  15.436  1.1103  0.7849  0.3161
 4454TIP3    H234854   1.824   3.623  15.461  0.2656 -1.8270 -0.5015
 4455TIP3   OH234855   0.005   0.655   4.815 -0.0002  0.0669 -0.0242
 4455TIP3    H134856   0.081   0.641   4.873 -1.3808 -0.6105  1.7053
 4455TIP3    H234857  -0.014   0.568   4.780 -0.5199  0.0716  0.2504
 4456TIP3   OH234858   2.489   4.437  15.687 -0.6403  0.2823 -0.3638
 4456TIP3    H134859   2.542   4.471  15.760  0.4372 -1.2334 -0.3910
 4456TIP3    H234860   2.402   4.425  15.724 -0.3353  0.4158  0.4121
 4457TIP3   OH234861   3.655   5.444   2.228 -0.2233 -0.1959 -0.2892
 4457TIP3    H134862   3.696   5.493   2.300  0.3312  2.5760 -2.2855
 4457TIP3    H234863   3.707   5.468   2.151 -1.8718 -1.5656 -1.9248
 4458TIP3   OH234864   6.172   0.802  13.288  0.2008  0.0924 -0.3107
 4458TIP3    H134865   6.157   0.825  13.380 -0.9186  0.8040 -0.6494
 4458TIP3    H234866   6.144   0.711  13.281 -0.8166  0.3806 -0.1813
 4459TIP3   OH234867   0.796   3.303  11.625 -0.3018  0.3447  0.0852
 4459TIP3    H134868   0.794   3.368  11.554 -1.2684  1.3122  0.9473
 4459TIP3    H234869   0.875   3.253  11.609  0.1531  1.3381 -0.9836
 4460TIP3   OH234870   4.417   6.151  16.385  0.1898  0.6724 -0.4268
 4460TIP3    H134871   4.407   6.082  16.450  0.9736  1.6365  0.7491
 4460TIP3    H234872   4.329   6.164  16.350  0.2880 -2.1663 -2.0406
 4461TIP3   OH234873   1.519   6.126   5.480 -0.2747  0.0110 -0.0534
 4461TIP3    H134874   1.470   6.072   5.418  0.9362  0.2438 -1.2587
 4461TIP3    H234875   1.558   6.195   5.426  0.8830  0.1701  0.9507
 4462TIP3   OH234876   4.760   2.597  13.601 -0.0267 -0.0929 -0.6712
 4462TIP3    H134877   4.714   2.515  13.618 -0.0491 -0.2897 -1.6156
 4462TIP3    H234878   4.709   2.663  13.647  0.5979 -0.7319  1.0104
 4463TIP3   OH234879   0.026   3.601   0.869  0.2529 -0.6595 -0.0076
 4463TIP3    H134880  -0.034   3.667   0.836  1.0978  0.0222 -0.2110
 4463TIP3    H234881  -0.010   3.518   0.837 -1.0102 -0.3534  0.5492
 4464TIP3   OH234882   5.245   4.888   6.873 -0.2767 -0.2611 -0.4367
 4464TIP3    H134883   5.318   4.917   6.927  0.5309 -1.2513 -0.9677
 4464TIP3    H234884   5.283   4.875   6.786 -1.4266  0.7549 -1.1319
 4465TIP3   OH234885   3.136   6.507  16.616  0.6551 -0.0571 -0.0915
 4465TIP3    H134886   3.108   6.576  16.556 -1.8009 -0.5724  0.3771
 4465TIP3    H234887   3.158   6.433  16.558  1.3146  0.4287 -0.4782
 4466TIP3   OH234888   2.942   4.270   0.882  0.3887 -0.2428 -0.1687
 4466TIP3    H134889   2.850   4.285   0.861  0.2528 -3.3251 -2.3442
 4466TIP3    H234890   2.941   4.244   0.974 -0.6351  1.4227  0.3351
 4467TIP3   OH234891   2.363   1.651  12.705 -0.2291  0.3696  0.5464
 4467TIP3    H134892   2.420   1.575  12.718 -0.6350 -0.2190 -0.8638
 4467TIP3    H234893   2.406   1.721  12.753  3.2556  0.6879 -2.5595
 4468TIP3   OH234894   4.321   1.840  12.746 -0.3487  0.3752  0.0294
 4468TIP3    H134895   4.348   1.750  12.762  0.7176  0.5061 -0.9518
 4468TIP3    H234896   4.239   1.832  12.697  0.4751 -0.1161 -1.3428
 4469TIP3   OH234897   3.016   0.775   0.747  0.2246  0.0760  0.0387
 4469TIP3    H134898   3.064   0.853   0.774 -1.3671  1.6524 -1.4331
 4469TIP3    H234899   3.053   0.704   0.800  1.4571  1.8760  1.7178
 4470TIP3   OH234900   4.195   4.371  11.108  0.0607 -0.0530 -0.1063
 4470TIP3    H134901   4.107   4.346  11.137  0.1273  1.9512  2.1339
 4470TIP3    H234902   4.181   4.433  11.037 -0.3417  0.1996  0.1930
 4471TIP3   OH234903   5.918   2.886   0.633  0.2403 -0.1342  1.2098
 4471TIP3    H134904   5.910   2.956   0.697 -1.6371  0.4923  0.3635
 4471TIP3    H234905   5.828   2.871   0.602  0.9378 -1.1441 -0.4853
 4472TIP3   OH234906   5.018   5.545   3.359  0.5285  0.3699 -0.0576
 4472TIP3    H134907   5.033   5.610   3.291 -0.1603  0.0194 -0.5506
 4472TIP3    H234908   5.104   5.504   3.372  0.8075  0.8947 -0.2320
 4473TIP3   OH234909   4.109   3.751  14.989 -0.6587  0.3984 -0.1769
 4473TIP3    H134910   4.051   3.675  14.974 -0.7920  0.4588  0.0347
 4473TIP3    H234911   4.052   3.827  14.975 -0.4553  0.4662 -0.6806
 4474TIP3   OH234912   0.088   5.247   1.857 -0.3441 -0.5071  0.1181
 4474TIP3    H134913   0.164   5.282   1.810  0.9396 -0.2071  2.2847
 4474TIP3    H234914   0.066   5.314   1.921 -0.6241 -1.7802  1.4155
 4475TIP3   OH234915   0.384   5.516   2.740  0.0706  0.1408  0.8079
 4475TIP3    H134916   0.304   5.470   2.714 -0.9155  0.5776  2.8616
 4475TIP3    H234917   0.454   5.466   2.698 -1.2627 -0.0436 -1.3389
 4476TIP3   OH234918   3.592   5.252   5.588  0.2505  0.2230 -0.4665
 4476TIP3    H134919   3.557   5.334   5.623 -1.6777  0.1742 -2.1299
 4476TIP3    H234920   3.573   5.187   5.655  0.0543  0.7925  0.0348
 4477TIP3   OH234921   0.491   6.484   3.244  0.0907 -0.4227 -0.1684
 4477TIP3    H134922   0.449   6.504   3.160  1.4068 -2.4741 -1.4180
 4477TIP3    H234923   0.540   6.563   3.266 -0.2896  0.1606 -1.3298
 4478TIP3   OH234924   6.570   0.700  12.455  0.1879  0.8429  0.1867
 4478TIP3    H134925   6.480   0.684  12.426  0.8315 -0.2389 -1.3951
 4478TIP3    H234926   6.597   0.777  12.406  0.2742  0.8826  0.2978
 4479TIP3   OH234927   6.447   0.971  16.895 -0.5934 -0.1846  0.1907
 4479TIP3    H134928   6.419   1.035  16.960  0.3709  0.2672  0.1758
 4479TIP3    H234929   6.462   1.022  16.816 -0.6396 -0.5605 -0.0627
 4480TIP3   OH234930   1.156   1.490   4.709  0.1181 -0.8090  0.6809
 4480TIP3    H134931   1.148   1.415   4.649  0.1553 -0.5143  0.3032
 4480TIP3    H234932   1.159   1.566   4.651  0.8876 -0.5724  1.0185
 4481TIP3   OH234933   0.302   2.342  15.889 -0.1870  0.8688  0.2224
 4481TIP3    H134934   0.212   2.314  15.905 -0.8122  2.5574 -0.2090
 4481TIP3    H234935   0.340   2.351  15.976  0.0344 -1.1553  0.3955
 4482TIP3   OH234936   3.889   4.133  13.731  0.0767  0.1650  0.2177
 4482TIP3    H134937   3.982   4.111  13.727  0.0205 -0.1238  0.5020
 4482TIP3    H234938   3.868   4.138  13.824 -0.0021  1.0585  0.1594
 4483TIP3   OH234939   4.581   3.876  12.139  0.6409 -0.4093 -0.1923
 4483TIP3    H134940   4.664   3.903  12.179  0.2003 -0.3892  0.7347
 4483TIP3    H234941   4.607   3.824  12.063  1.5252 -1.4873  0.8046
 4484TIP3   OH234942   0.225   1.320  15.309 -0.2745 -0.2493 -0.2152
 4484TIP3    H134943   0.145   1.367  15.285 -0.1841 -0.9301 -2.0620
 4484TIP3    H234944   0.242   1.262  15.234  2.6807  0.8327 -0.5124
 4485TIP3   OH234945   2.596   3.201   4.852 -0.3773 -0.7034  0.0909
 4485TIP3    H134946   2.599   3.107   4.868 -3.6623 -1.4659 -2.6210
 4485TIP3    H234947   2.647   3.214   4.772  0.1333 -0.1696  0.4986
 4486TIP3   OH234948   1.768   1.212  12.741  0.2884  0.5317 -0.1767
 4486TIP3    H134949   1.690   1.162  12.716  1.6021 -1.5458 -0.3277
 4486TIP3    H234950   1.755   1.299  12.702 -1.3079 -0.1877 -1.3442
 4487TIP3   OH234951   2.907   0.765  13.305  0.1137  0.9139  1.5057
 4487TIP3    H134952   2.901   0.809  13.390 -2.4348 -2.2176  3.2041
 4487TIP3    H234953   2.815   0.752  13.279  0.7139 -1.6612  0.3136
 4488TIP3   OH234954   5.522   4.650   3.146  0.4487  0.6110 -0.0246
 4488TIP3    H134955   5.577   4.688   3.216  0.5503  1.2471 -0.4399
 4488TIP3    H234956   5.555   4.561   3.136  0.7823  0.6826  0.3799
 4489TIP3   OH234957   2.519   6.689  10.944 -0.1006  0.5412 -0.0053
 4489TIP3    H134958   2.532   6.703  10.850  3.0339 -2.1325 -0.1599
 4489TIP3    H234959   2.608   6.674  10.978 -1.3206 -0.5213  3.0339
 4490TIP3   OH234960   0.483   4.754   4.089  0.3504  0.1947  0.0562
 4490TIP3    H134961   0.405   4.796   4.053 -1.5231 -0.8774  2.5685
 4490TIP3    H234962   0.554   4.813   4.066 -1.3390  1.8409 -1.3241
 4491TIP3   OH234963   4.329   2.295   3.160 -0.3527  0.3055 -0.4642
 4491TIP3    H134964   4.315   2.238   3.235  0.2916  1.9927  1.0081
 4491TIP3    H234965   4.424   2.306   3.155 -0.2818 -0.7548 -2.3279
 4492TIP3   OH234966   0.032   4.024  12.235  0.2407 -0.2070 -0.1012
 4492TIP3    H134967   0.028   4.120  12.242 -1.3237 -0.2344 -0.2053
 4492TIP3    H234968  -0.059   3.996  12.249  0.1026 -1.4570 -2.9463
 4493TIP3   OH234969   3.085   1.228  14.290  0.0510  0.4710  0.0301
 4493TIP3    H134970   3.035   1.243  14.209  1.1663  0.8836 -0.5961
 4493TIP3    H234971   3.118   1.139  14.281  2.5244  1.4434 -1.3175
 4494TIP3   OH234972   4.430   0.855  14.716 -0.4983  0.0363 -0.4863
 4494TIP3    H134973   4.397   0.766  14.708  2.6804 -1.1395 -2.2460
 4494TIP3    H234974   4.373   0.907  14.658 -0.9201 -1.3087 -1.3123
 4495TIP3   OH234975   2.609   3.152  15.085  0.0470 -0.2768  0.8004
 4495TIP3    H134976   2.586   3.098  15.009  2.4531 -0.3489  0.0396
 4495TIP3    H234977   2.544   3.222  15.085 -0.7647 -0.9854 -0.5782
 4496TIP3   OH234978   1.419   4.053   3.433  0.0252  0.2715  0.1326
 4496TIP3    H134979   1.353   4.023   3.370  0.4281  0.7721 -0.5532
 4496TIP3    H234980   1.425   4.147   3.417  0.7593  0.2608  0.3282
 4497TIP3   OH234981   2.125   3.281   0.071  0.4914  0.1713 -0.3575
 4497TIP3    H134982   2.084   3.248   0.151 -0.7590 -0.6256 -1.2847
 4497TIP3    H234983   2.073   3.358   0.047  1.2856  0.8139 -0.0482
 4498TIP3   OH234984   6.077   4.499  15.294 -0.6570  0.5424  0.4928
 4498TIP3    H134985   6.147   4.564  15.303 -0.3518  0.1100  1.3833
 4498TIP3    H234986   6.114   4.419  15.331 -1.2770  0.0432  0.0489
 4499TIP3   OH234987   2.105   6.269  11.777  0.6058  0.6809  0.3635
 4499TIP3    H134988   2.100   6.174  11.776 -0.6486  0.7432 -0.0418
 4499TIP3    H234989   2.193   6.289  11.743 -0.0267 -0.2699 -2.0032
 4500TIP3   OH234990   3.047   1.144  14.881 -0.6976  0.8610 -0.2312
 4500TIP3    H134991   2.993   1.223  14.886 -1.4643  0.3048  0.4152
 4500TIP3    H234992   3.104   1.148  14.958 -0.1691  1.1787 -0.6291
 4501TIP3   OH234993   6.066   4.094  13.846  0.1551  0.0478  0.0156
 4501TIP3    H134994   6.158   4.086  13.871 -0.3617 -0.8702  1.7823
 4501TIP3    H234995   6.065   4.071  13.753  1.6295 -0.5530  0.1130
 4502TIP3   OH234996   1.290   3.889   4.462 -0.3262  0.1938 -0.2417
 4502TIP3    H134997   1.298   3.795   4.450  0.8872  0.0009  1.5560
 4502TIP3    H234998   1.377   3.923   4.440  0.3975  0.3842  2.5474
 4503TIP3   OH234999   3.683   6.088  12.024  0.4217 -0.0810  0.5315
 4503TIP3    H135000   3.640   6.045  12.098  1.8286 -0.5932  1.0925
 4503TIP3    H235001   3.619   6.085  11.954 -0.6380 -0.3457  1.4799
 4504TIP3   OH235002   1.143   3.152   5.991 -0.0338  0.1519  0.0629
 4504TIP3    H135003   1.049   3.167   5.977 -0.0749  0.4416  0.6226
 4504TIP3    H235004   1.149   3.058   6.008 -0.1831  0.0798 -0.2690
 4505TIP3   OH235005   1.642   0.617   2.854  0.2062  0.3013  0.2182
 4505TIP3    H135006   1.684   0.582   2.932 -0.5935  1.7694  1.3653
 4505TIP3    H235007   1.643   0.712   2.867  0.6483  0.6301 -1.8850
 4506TIP3   OH235008   1.740   4.498  11.292 -0.2941  0.4642 -0.9525
 4506TIP3    H135009   1.693   4.491  11.375  0.6689 -1.1522 -0.5010
 4506TIP3    H235010   1.702   4.430  11.237  0.5102  0.1123 -1.0857
 4507TIP3   OH235011   5.580   0.735   2.276 -0.3811 -0.2807  0.3161
 4507TIP3    H135012   5.583   0.828   2.298 -0.3951 -0.6567  2.0535
 4507TIP3    H235013   5.644   0.724   2.206  0.2357  0.8892  0.6788
 4508TIP3   OH235014   3.725   2.498  16.166  0.1240 -0.2392  0.1708
 4508TIP3    H135015   3.648   2.452  16.199  0.4108 -0.3717  0.6727
 4508TIP3    H235016   3.746   2.454  16.084 -1.3902  0.9359 -0.9061
 4509TIP3   OH235017   2.675   0.060  15.876 -0.1624 -0.4742 -0.2188
 4509TIP3    H135018   2.589   0.061  15.917  0.4126  1.1809  1.0342
 4509TIP3    H235019   2.737   0.068  15.948  0.9680  0.6423 -1.2516
 4510TIP3   OH235020   6.072   5.527  13.021 -0.3974  0.5112  0.5904
 4510TIP3    H135021   6.060   5.619  13.044  0.8844  1.1634 -1.1467
 4510TIP3    H235022   5.987   5.498  12.989 -0.5321  1.3993  0.1317
 4511TIP3   OH235023   6.556   0.461   4.079 -0.1668  0.5564  0.5917
 4511TIP3    H135024   6.478   0.516   4.074  0.6558  1.7222  0.3411
 4511TIP3    H235025   6.539   0.390   4.017 -1.3934  0.2934  1.1866
 4512TIP3   OH235026   5.737   5.289  15.025 -0.0447  0.3396  0.2223
 4512TIP3    H135027   5.660   5.321  15.072  0.0801 -1.0651  1.4674
 4512TIP3    H235028   5.806   5.352  15.046 -0.5975  1.0465 -0.0620
 4513TIP3   OH235029   0.119   0.915   3.765  0.4312  0.3664  0.1550
 4513TIP3    H135030   0.077   0.886   3.684  0.1078  1.1839  0.0228
 4513TIP3    H235031   0.190   0.852   3.779 -0.5928 -0.8265  0.1859
 4514TIP3   OH235032   3.847   2.582  13.401  0.6136 -0.6354  0.0711
 4514TIP3    H135033   3.876   2.593  13.491 -0.0216 -1.5984  0.4007
 4514TIP3    H235034   3.774   2.520  13.406  0.7236 -0.8896 -1.1232
 4515TIP3   OH235035   0.555   0.815   4.623 -0.5425  0.3658  0.6707
 4515TIP3    H135036   0.623   0.848   4.681 -0.0624  0.2439  0.1790
 4515TIP3    H235037   0.550   0.721   4.643  0.7692 -0.0145 -0.6091
 4516TIP3   OH235038   4.486   3.348   4.950  0.2927 -0.4144 -0.6560
 4516TIP3    H135039   4.392   3.336   4.969 -0.0154  0.3362 -1.6048
 4516TIP3    H235040   4.507   3.276   4.890  0.4919 -0.9561  0.0518
 4517TIP3   OH235041   2.694   6.293  14.396  0.2145  0.4981 -0.2801
 4517TIP3    H135042   2.706   6.200  14.414  2.3549  0.6503 -0.6825
 4517TIP3    H235043   2.769   6.335  14.439  0.5192  1.7892 -1.9918
 4518TIP3   OH235044   4.284   5.257   4.480  0.1726 -0.6599  0.0791
 4518TIP3    H135045   4.330   5.185   4.522 -0.0292 -0.3966  0.7555
 4518TIP3    H235046   4.293   5.239   4.386 -0.1777 -1.7486  0.2408
 4519TIP3   OH235047   0.467   0.206  14.730 -0.2273 -0.3262 -0.4432
 4519TIP3    H135048   0.497   0.125  14.688 -1.0268 -1.2284  0.6749
 4519TIP3    H235049   0.373   0.196  14.739 -0.4326  1.0025 -0.8133
 4520TIP3   OH235050   1.212   1.129   0.300 -0.3917  0.1688  0.3817
 4520TIP3    H135051   1.167   1.211   0.278  0.8379  1.0132  0.9205
 4520TIP3    H235052   1.259   1.148   0.382  0.7846 -0.7427 -0.0513
 4521TIP3   OH235053   0.110   5.562  12.524 -0.3757  0.6397  0.7202
 4521TIP3    H135054   0.133   5.609  12.604  1.0680 -0.9872  1.3420
 4521TIP3    H235055   0.171   5.596  12.458 -1.6885  2.1133  0.2283
 4522TIP3   OH235056   2.746   3.733  16.658 -0.1238  0.3022 -0.1201
 4522TIP3    H135057   2.703   3.661  16.703 -2.2443  0.0733 -2.3043
 4522TIP3    H235058   2.768   3.698  16.571  1.3264  1.4836 -0.2629
 4523TIP3   OH235059   5.789   6.622   3.947 -0.2973 -0.1375  0.2815
 4523TIP3    H135060   5.796   6.551   4.011 -1.4093 -0.6601 -0.1489
 4523TIP3    H235061   5.730   6.685   3.987  0.5615  0.4823  0.5930
 4524TIP3   OH235062   0.585   5.127   3.009  0.2915  0.0974 -0.4512
 4524TIP3    H135063   0.633   5.087   3.081 -0.0688  0.8971  0.2509
 4524TIP3    H235064   0.548   5.053   2.961  2.5070 -0.5700 -1.2510
 4525TIP3   OH235065   6.373   5.950   4.064  0.3109 -0.3919  0.3826
 4525TIP3    H135066   6.401   6.002   3.989 -0.0809  0.4964  0.8297
 4525TIP3    H235067   6.443   5.962   4.128  0.9539 -1.6646 -0.0569
 4526TIP3   OH235068   1.574   3.108  11.314 -0.4674  0.5004 -0.5790
 4526TIP3    H135069   1.576   3.025  11.362 -0.6751  0.3363 -0.8453
 4526TIP3    H235070   1.488   3.108  11.271 -1.0057  1.4490  0.4462
 4527TIP3   OH235071   0.789   0.032   4.196 -0.5091 -0.1308 -0.3386
 4527TIP3    H135072   0.762  -0.037   4.256  1.4532  1.5133  2.6810
 4527TIP3    H235073   0.720   0.099   4.205 -1.4669 -0.8736 -1.8636
 4528TIP3   OH235074   6.113   6.085   3.861 -0.0574  0.7753  0.2859
 4528TIP3    H135075   6.034   6.088   3.914 -0.4637  1.4538 -0.3308
 4528TIP3    H235076   6.140   5.993   3.862 -0.3617  0.6910  1.2045
 4529TIP3   OH235077   0.978   2.451  10.292 -0.3350  0.2428  0.7625
 4529TIP3    H135078   1.041   2.522  10.305  0.7397 -0.2345 -1.2692
 4529TIP3    H235079   0.892   2.493  10.295  0.2139  1.3660  1.0908
 4530TIP3   OH235080   3.236   1.432   3.570  0.3070 -0.1048  0.4618
 4530TIP3    H135081   3.235   1.491   3.495 -1.4998 -0.4063  0.2111
 4530TIP3    H235082   3.152   1.447   3.614  1.0384 -0.4271  2.0398
 4531TIP3   OH235083   1.105   2.350   1.990  0.0921  0.5043  0.2584
 4531TIP3    H135084   1.180   2.356   2.049  0.2369 -0.9031  0.2536
 4531TIP3    H235085   1.112   2.262   1.951 -1.6436  0.2744  0.3874
 4532TIP3   OH235086   5.640   5.153  15.613  0.3648 -0.2255  0.4010
 4532TIP3    H135087   5.622   5.073  15.663  0.7293 -0.6193 -0.0860
 4532TIP3    H235088   5.735   5.161  15.614  0.3815 -0.2908 -0.3027
 4533TIP3   OH235089   6.071   6.421   5.346  0.2047 -0.2089 -0.3987
 4533TIP3    H135090   6.049   6.380   5.263  2.9579 -2.1787 -0.2651
 4533TIP3    H235091   6.105   6.507   5.321 -0.1844 -0.2681 -1.1814
 4534TIP3   OH235092   0.550   2.539   1.677 -0.4596  0.4787  0.0035
 4534TIP3    H135093   0.603   2.561   1.754 -0.7506 -1.0734  0.6823
 4534TIP3    H235094   0.590   2.460   1.642 -1.9336 -0.3924  0.1882
 4535TIP3   OH235095   1.642   0.349   4.691  0.3276  0.2383 -0.0659
 4535TIP3    H135096   1.656   0.443   4.696 -2.7452  0.8468 -0.9345
 4535TIP3    H235097   1.577   0.331   4.759 -1.4443 -0.6609 -1.9236
 4536TIP3   OH235098   3.441   4.600   3.322 -0.1183  0.2531 -0.4816
 4536TIP3    H135099   3.368   4.619   3.263 -0.3688  1.7349  0.2447
 4536TIP3    H235100   3.490   4.531   3.277 -0.9669  0.4702 -1.8339
 4537TIP3   OH235101   6.036   3.758  11.313 -0.1547  0.2136  0.5209
 4537TIP3    H135102   6.117   3.744  11.362 -1.3888 -1.0144  2.3272
 4537TIP3    H235103   6.046   3.703  11.235  1.0536  0.6966  0.3129
 4538TIP3   OH235104   0.943   1.414   5.470 -0.0402 -0.4382  0.7533
 4538TIP3    H135105   0.984   1.330   5.491 -0.4593 -0.6350  0.7995
 4538TIP3    H235106   0.870   1.421   5.531  0.3982  0.2822  1.2049
 4539TIP3   OH235107   4.894   4.303  15.876  0.2383 -0.5741  0.3296
 4539TIP3    H135108   4.987   4.283  15.867  0.3797 -0.5245  1.5615
 4539TIP3    H235109   4.883   4.387  15.831  0.9101 -0.3007  0.6621
 4540TIP3   OH235110   4.941   5.161  11.375  0.1557  0.1027  0.2880
 4540TIP3    H135111   4.963   5.187  11.464 -0.0353  0.6380  0.1846
 4540TIP3    H235112   4.909   5.071  11.383 -0.2084  0.2745  0.8125
 4541TIP3   OH235113   6.452   4.564   5.527  0.1720  0.0982  0.1094
 4541TIP3    H135114   6.418   4.634   5.471 -0.5200 -0.2349  0.1017
 4541TIP3    H235115   6.376   4.509   5.545  1.0611 -1.8030 -1.5112
 4542TIP3   OH235116   6.476   4.817   1.135  0.6398  0.3756 -0.3071
 4542TIP3    H135117   6.445   4.760   1.206 -1.9911 -0.4265 -1.9538
 4542TIP3    H235118   6.498   4.899   1.179  1.3669 -0.8090  1.7025
 4543TIP3   OH235119   2.065   6.801   3.753 -0.0070  0.0227 -0.3819
 4543TIP3    H135120   2.092   6.799   3.661  0.8710  0.8924 -0.1596
 4543TIP3    H235121   2.147   6.789   3.802 -0.4695 -0.4415  0.2903
 4544TIP3   OH235122   3.903   5.722  15.914 -0.0651 -0.7123  0.1014
 4544TIP3    H135123   3.905   5.794  15.978  0.3451  0.3913 -1.1150
 4544TIP3    H235124   3.906   5.643  15.968  0.0937  0.1807  1.4632
 4545TIP3   OH235125   4.477   4.419  17.296 -0.8471  0.0465  0.4990
 4545TIP3    H135126   4.397   4.408  17.245  0.9913  0.5806 -2.8177
 4545TIP3    H235127   4.482   4.513  17.314 -0.6464  0.1170  0.0874
 4546TIP3   OH235128   6.337   3.484   1.050 -0.6137  0.2607 -0.3516
 4546TIP3    H135129   6.405   3.439   1.101 -3.3469 -1.2919  2.2419
 4546TIP3    H235130   6.315   3.561   1.103 -1.5417  0.1731 -0.5968
 4547TIP3   OH235131   1.038   1.072  15.247 -0.1803  0.3424 -0.2384
 4547TIP3    H135132   1.119   1.122  15.247 -0.4277  0.7499  0.0405
 4547TIP3    H235133   0.983   1.115  15.182  0.1334 -0.4536 -1.0480
 4548TIP3   OH235134   5.426   0.044   1.528  0.0648  0.0676  0.0818
 4548TIP3    H135135   5.480   0.077   1.457  1.8115 -0.3285  1.1736
 4548TIP3    H235136   5.462   0.083   1.607 -0.1129 -1.5495  1.0213
 4549TIP3   OH235137   6.787   6.020   3.532 -0.3426 -0.2691 -0.7000
 4549TIP3    H135138   6.742   5.951   3.483 -1.4057 -0.3468  0.3403
 4549TIP3    H235139   6.841   5.973   3.596  1.5485 -0.1884 -2.1525
 4550TIP3   OH235140   6.113   3.007   3.987 -0.2886  0.1894  0.1356
 4550TIP3    H135141   6.092   3.028   3.896 -2.5921  1.6819  0.9200
 4550TIP3    H235142   6.090   2.915   3.996  0.4996 -0.1236 -0.9284
 4551TIP3   OH235143   0.715   3.148  14.175  0.5792 -0.2494  0.4750
 4551TIP3    H135144   0.648   3.211  14.149  1.1048  0.2642  0.3402
 4551TIP3    H235145   0.795   3.178  14.131  1.1437 -0.2240  1.4989
 4552TIP3   OH235146   4.749   4.761   4.396 -0.2139 -0.3758  0.5531
 4552TIP3    H135147   4.811   4.801   4.335 -0.3546 -1.2765 -0.1969
 4552TIP3    H235148   4.692   4.708   4.341 -1.0743 -0.2945  1.3421
 4553TIP3   OH235149   0.495   4.719  13.284 -0.3925 -0.4186 -0.0223
 4553TIP3    H135150   0.422   4.665  13.315 -0.2813  0.4010  1.8529
 4553TIP3    H235151   0.538   4.748  13.365  1.0703  0.3956 -1.0514
 4554TIP3   OH235152   0.815   4.167  15.704 -0.1203 -0.2466 -0.6615
 4554TIP3    H135153   0.864   4.095  15.743 -1.7181 -0.3452  1.3133
 4554TIP3    H235154   0.882   4.228  15.673  1.3163 -0.0062  2.5962
 4555TIP3   OH235155   2.032   0.228   5.929  0.0487  0.2671 -0.3478
 4555TIP3    H135156   2.068   0.316   5.926  1.4342 -0.2798 -2.2513
 4555TIP3    H235157   2.103   0.175   5.966  0.1593 -0.3917 -1.4614
 4556TIP3   OH235158   1.616   4.912  11.903  0.0250 -0.0849  0.0914
 4556TIP3    H135159   1.662   4.984  11.947  0.3847 -0.7539  0.8515
 4556TIP3    H235160   1.680   4.877  11.841 -0.6382  1.1509 -1.3222
 4557TIP3   OH235161   2.791   2.253   4.259 -0.1924  0.0256  0.5232
 4557TIP3    H135162   2.714   2.251   4.202 -0.3691 -0.7866  0.7788
 4557TIP3    H235163   2.865   2.263   4.199 -0.4339  0.0065  0.2192
 4558TIP3   OH235164   5.327   0.298   1.163 -0.6740  0.1971  0.4489
 4558TIP3    H135165   5.303   0.227   1.222 -1.7425  0.8845  0.8620
 4558TIP3    H235166   5.255   0.360   1.169 -0.7842  0.3156 -1.5383
 4559TIP3   OH235167   3.002   0.225   5.353  0.3992  0.0680  0.5966
 4559TIP3    H135168   3.056   0.304   5.361  0.9621 -0.3151  0.6592
 4559TIP3    H235169   3.011   0.199   5.261  0.8949 -0.3861  0.7632
 4560TIP3   OH235170   4.624   1.266   5.041  0.0176  0.5664  0.4769
 4560TIP3    H135171   4.599   1.357   5.059 -0.8122  0.0462  2.0850
 4560TIP3    H235172   4.541   1.219   5.031  0.3793 -0.3832  1.6716
 4561TIP3   OH235173   3.478   0.114   4.769  0.4632  0.6191 -0.4006
 4561TIP3    H135174   3.471   0.039   4.710 -2.3397  1.2465 -1.0103
 4561TIP3    H235175   3.475   0.075   4.857 -0.2883 -0.0241 -0.7001
 4562TIP3   OH235176   1.463   6.178  11.509  0.5108  0.2594  0.4603
 4562TIP3    H135177   1.525   6.123  11.461  0.8622  0.1040  1.0811
 4562TIP3    H235178   1.518   6.230  11.568  0.0672  0.1889  0.9444
 4563TIP3   OH235179   6.191   2.877  15.540  0.1536 -0.1416  0.0158
 4563TIP3    H135180   6.123   2.910  15.482  1.0138  1.1100 -0.3200
 4563TIP3    H235181   6.203   2.785  15.514  0.4082  0.3531 -1.6968
 4564TIP3   OH235182   0.634   0.249  12.370  0.4707 -0.3842 -0.3566
 4564TIP3    H135183   0.593   0.204  12.295  0.0388  0.5805 -0.7183
 4564TIP3    H235184   0.605   0.340  12.362 -0.2811 -0.4207  1.4750
 4565TIP3   OH235185   5.866   5.518   3.053  0.1907 -0.1799 -0.1747
 4565TIP3    H135186   5.802   5.449   3.068 -1.2732  1.0698 -0.3559
 4565TIP3    H235187   5.863   5.571   3.134  0.6880  0.1325 -0.3524
 4566TIP3   OH235188   6.430   1.102   2.074  0.2836  0.0276 -0.1972
 4566TIP3    H135189   6.489   1.123   2.147 -0.2924 -1.3177  0.7060
 4566TIP3    H235190   6.468   1.023   2.035 -0.2129 -0.0924 -0.4356
 4567TIP3   OH235191   3.339   2.390  12.912 -0.0655 -0.0241  0.0394
 4567TIP3    H135192   3.263   2.424  12.865 -0.0226 -0.0457 -0.0449
 4567TIP3    H235193   3.304   2.361  12.996  0.2036  2.0349  0.9183
 4568TIP3   OH235194   6.592   1.474  15.225 -0.0632 -0.0286  0.4267
 4568TIP3    H135195   6.549   1.404  15.274 -0.4702  0.4282  0.7367
 4568TIP3    H235196   6.636   1.526  15.291 -0.6534  0.6176  0.3249
 4569TIP3   OH235197   5.380   4.698  10.867 -0.0017 -0.3842 -0.0745
 4569TIP3    H135198   5.300   4.744  10.892  0.9301  1.1140  0.2697
 4569TIP3    H235199   5.356   4.650  10.788 -1.3692 -0.3911  0.3131
 4570TIP3   OH235200   2.139   0.575   5.262 -0.2649 -0.2658 -0.2649
 4570TIP3    H135201   2.143   0.623   5.179  0.4376  1.2892  0.6419
 4570TIP3    H235202   2.223   0.591   5.304 -1.1168  0.1403  1.3790
 4571TIP3   OH235203   4.926   6.649   3.656  0.4920 -0.2261  0.2175
 4571TIP3    H135204   4.952   6.731   3.698  0.2788 -0.3633  0.6261
 4571TIP3    H235205   5.009   6.604   3.638  0.5585 -1.2777  2.7582
 4572TIP3   OH235206   5.709   6.270   4.813  0.1371  0.2919 -0.2183
 4572TIP3    H135207   5.772   6.198   4.799 -0.2021 -0.0954  0.2411
 4572TIP3    H235208   5.762   6.349   4.804  0.7789 -0.0360  0.5610
 4573TIP3   OH235209   6.300   1.039   3.765  0.7438  0.3495 -0.8816
 4573TIP3    H135210   6.269   1.046   3.674 -0.6203  0.0622 -0.4609
 4573TIP3    H235211   6.386   1.080   3.764  1.8975 -1.9029 -2.8546
 4574TIP3   OH235212   3.759   2.936   0.912 -0.2919 -0.0250 -0.5408
 4574TIP3    H135213   3.781   2.993   0.838  0.6957  0.3710  0.0292
 4574TIP3    H235214   3.697   2.987   0.964  0.5952  0.5585 -0.0267
 4575TIP3   OH235215   1.454   4.654  15.709 -0.0863  0.1295 -0.0134
 4575TIP3    H135216   1.413   4.733  15.745 -2.0864 -0.2513 -1.2642
 4575TIP3    H235217   1.424   4.583  15.766  0.0020  0.0231 -0.0991
 4576TIP3   OH235218   0.176   1.558  13.135  0.1871 -0.4960 -0.0440
 4576TIP3    H135219   0.237   1.591  13.201  0.2088 -0.9388  0.1650
 4576TIP3    H235220   0.105   1.623  13.133  0.1943 -0.4697  0.4065
 4577TIP3   OH235221   4.042   6.473   2.770 -0.3360  0.6542 -0.3827
 4577TIP3    H135222   4.003   6.511   2.848  1.7622 -0.8341  1.5201
 4577TIP3    H235223   4.060   6.382   2.794 -0.3237 -0.0870 -2.8973
 4578TIP3   OH235224   3.534   3.401   0.064  0.4000 -0.4768 -0.1837
 4578TIP3    H135225   3.450   3.447   0.061  0.1048 -0.8022  1.8128
 4578TIP3    H235226   3.513   3.313   0.033  0.4987  0.0478 -1.8272
 4579TIP3   OH235227   6.532   2.878   6.023  0.3110 -0.0002 -0.2735
 4579TIP3    H135228   6.605   2.827   6.057 -0.2963 -1.3705 -0.9653
 4579TIP3    H235229   6.478   2.815   5.975 -1.3825  0.9485  0.2831
 4580TIP3   OH235230   3.373   2.966  10.946 -0.2506  0.1014 -0.2829
 4580TIP3    H135231   3.288   3.011  10.943 -0.2563  0.0343 -1.5249
 4580TIP3    H235232   3.386   2.933  10.857  0.8087 -0.4075  0.0440
 4581TIP3   OH235233   4.251   5.649   3.990 -0.1461 -0.1390 -0.6910
 4581TIP3    H135234   4.332   5.686   3.956  0.3823  3.1801  3.3106
 4581TIP3    H235235   4.279   5.588   4.058 -0.8407  1.0351  0.7268
 4582TIP3   OH235236   5.452   1.718  11.977  0.3292 -0.6537 -0.4441
 4582TIP3    H135237   5.501   1.761  11.907 -0.6891 -1.3470 -1.6143
 4582TIP3    H235238   5.360   1.726  11.951 -0.3444  1.4500  2.1746
 4583TIP3   OH235239   4.645   4.850   3.855 -0.1645  0.0947 -0.3501
 4583TIP3    H135240   4.615   4.790   3.788  1.9709 -0.8053 -0.5684
 4583TIP3    H235241   4.630   4.937   3.818 -1.2789 -0.3235 -0.9258
 4584TIP3   OH235242   1.741   2.735   0.914 -0.1221  0.4556 -0.3480
 4584TIP3    H135243   1.722   2.650   0.954  0.1178  1.5204  2.2221
 4584TIP3    H235244   1.655   2.772   0.895 -0.2283 -0.3160 -1.4974
 4585TIP3   OH235245   1.977   5.187  12.390 -0.3203  0.2203 -0.2906
 4585TIP3    H135246   2.021   5.212  12.472  1.2701 -0.0291 -1.0323
 4585TIP3    H235247   2.048   5.171  12.328 -1.4933  1.5562 -2.0910
 4586TIP3   OH235248   2.536   0.113  12.325 -0.4458 -0.2257  0.0019
 4586TIP3    H135249   2.520   0.086  12.235  1.3623 -1.1214 -0.0905
 4586TIP3    H235250   2.624   0.083  12.345 -0.4680  0.7004  1.8077
 4587TIP3   OH235251   5.916   0.988   2.179  0.2515 -0.1421  0.1019
 4587TIP3    H135252   5.955   1.074   2.196  0.1193 -0.3377  1.5157
 4587TIP3    H235253   5.974   0.927   2.224 -0.9662 -0.5555  1.1554
 4588TIP3   OH235254   1.629   3.907  14.978  0.6587 -0.5989 -0.3471
 4588TIP3    H135255   1.656   3.986  15.025  0.7108 -0.7714 -0.0860
 4588TIP3    H235256   1.550   3.932  14.930  0.7712 -0.3425 -0.3970
 4589TIP3   OH235257   6.620   4.064   4.468  0.0453  0.2071 -0.0328
 4589TIP3    H135258   6.689   4.130   4.458  1.2635 -1.0184  0.0944
 4589TIP3    H235259   6.660   3.995   4.520 -1.6293 -0.0699  0.9594
 4590TIP3   OH235260   5.834   5.413  15.844 -0.2404  0.2537  0.2298
 4590TIP3    H135261   5.909   5.436  15.789  0.4394 -1.9037  0.1378
 4590TIP3    H235262   5.844   5.467  15.922  0.6067  1.0387 -0.3954
 4591TIP3   OH235263   6.423   5.263   5.433  0.1484 -0.2494  0.1217
 4591TIP3    H135264   6.496   5.297   5.381  0.3506 -3.3443 -1.8502
 4591TIP3    H235265   6.451   5.176   5.460 -3.0106 -1.9045 -1.3731
 4592TIP3   OH235266   6.733   1.399   6.439  0.6993 -0.4613  0.3570
 4592TIP3    H135267   6.820   1.395   6.398  0.9785  1.8002  0.6083
 4592TIP3    H235268   6.737   1.335   6.509  3.1139  1.2826  1.9567
 4593TIP3   OH235269   1.799   0.260   3.136 -0.4812 -0.2376 -0.0186
 4593TIP3    H135270   1.891   0.233   3.134 -0.5567 -0.5083  0.1741
 4593TIP3    H235271   1.750   0.180   3.117 -0.6319  0.1575 -1.3721
 4594TIP3   OH235272   4.864   2.104   4.544 -0.4736  0.3858 -0.3135
 4594TIP3    H135273   4.865   2.195   4.515  1.8546  0.7366  0.6224
 4594TIP3    H235274   4.908   2.106   4.629  0.1728 -1.7004 -0.5593
 4595TIP3   OH235275   3.752   4.259  12.924 -0.4167  0.7833 -0.1839
 4595TIP3    H135276   3.743   4.183  12.981  0.7339 -0.9727 -2.1913
 4595TIP3    H235277   3.666   4.269  12.883 -1.0178  1.5696  1.2010
 4596TIP3   OH235278   6.169   1.099  12.163 -0.1531 -0.3793  0.1670
 4596TIP3    H135279   6.235   1.101  12.094  0.1439  0.3505  0.4591
 4596TIP3    H235280   6.151   1.191  12.181 -3.5531 -0.4204 -2.0794
 4597TIP3   OH235281   6.344   4.300   3.300 -0.4747  0.4186 -0.0405
 4597TIP3    H135282   6.294   4.256   3.232 -1.7589  1.4277  0.2094
 4597TIP3    H235283   6.306   4.388   3.305  0.6446  0.8792  0.8909
 4598TIP3   OH235284   0.411   6.600   4.538  0.5751  0.0178  0.3002
 4598TIP3    H135285   0.341   6.641   4.488  0.4513 -0.3502  0.1672
 4598TIP3    H235286   0.380   6.511   4.554  0.8730 -0.0493  0.5184
 4599TIP3   OH235287   4.470   6.529   3.393  0.2270  0.3454  0.4146
 4599TIP3    H135288   4.533   6.592   3.358  0.9737 -1.4845 -1.7145
 4599TIP3    H235289   4.385   6.571   3.378  0.6981  0.8315 -1.0917
 4600TIP3   OH235290   3.365   5.560   5.493  0.3220  0.1456  1.1436
 4600TIP3    H135291   3.305   5.550   5.568  0.6714 -1.6534  1.2212
 4600TIP3    H235292   3.326   5.507   5.424  0.9395  0.3465  0.6335
 4601TIP3   OH235293   1.772   0.814  13.280  0.1471 -0.1277 -0.0854
 4601TIP3    H135294   1.840   0.880  13.270  1.0896 -0.9846  0.4363
 4601TIP3    H235295   1.749   0.789  13.190  0.6939  0.0053 -0.2645
 4602TIP3   OH235296   2.509   6.500   4.035  0.2783  0.6425 -1.2337
 4602TIP3    H135297   2.533   6.447   4.110 -0.7140  1.2607 -0.4567
 4602TIP3    H235298   2.505   6.590   4.068  1.8112  1.2206 -2.4991
 4603TIP3   OH235299   2.507   5.053  14.470  0.4514 -0.5586  0.0147
 4603TIP3    H135300   2.433   5.046  14.530  0.7931  1.7046  0.8260
 4603TIP3    H235301   2.470   5.032  14.384 -0.6357 -1.4638  0.6764
 4604TIP3   OH235302   3.988   3.325  14.059  0.1610 -0.7421  0.1272
 4604TIP3    H135303   3.909   3.293  14.016 -0.3828  1.7622 -0.9607
 4604TIP3    H235304   3.956   3.372  14.137  0.5294  0.2916 -0.3228
 4605TIP3   OH235305   4.907   2.207  14.398  0.3306 -0.0809  0.1714
 4605TIP3    H135306   4.820   2.170  14.410  0.6717 -0.4247  1.8545
 4605TIP3    H235307   4.962   2.133  14.372  0.2786 -0.0124 -0.1389
 4606TIP3   OH235308   2.603   5.782  13.240 -0.3840 -0.7154 -0.0689
 4606TIP3    H135309   2.518   5.826  13.237  1.1834  2.5576  0.2035
 4606TIP3    H235310   2.662   5.839  13.191  2.0352 -2.0588  1.0899
 4607TIP3   OH235311   1.841   0.763   0.332 -0.5965  0.2411  0.5901
 4607TIP3    H135312   1.783   0.688   0.347  0.9026 -0.8796  0.9546
 4607TIP3    H235313   1.818   0.793   0.244  0.0731 -1.8533 -0.3653
 4608TIP3   OH235314   2.501   2.717   5.307 -0.1184 -0.0707  0.9195
 4608TIP3    H135315   2.432   2.784   5.300  1.5508  2.0669  3.0686
 4608TIP3    H235316   2.542   2.734   5.392  2.7943 -1.5007 -0.0587
 4609TIP3   OH235317   2.181   6.578   2.069 -0.1200  0.1424 -0.1461
 4609TIP3    H135318   2.110   6.514   2.064 -0.1676  0.1166  0.6931
 4609TIP3    H235319   2.256   6.534   2.031 -0.9108  0.7472 -2.6190
 4610TIP3   OH235320   6.303   0.322   4.134 -0.1822 -0.0089 -0.2161
 4610TIP3    H135321   6.246   0.339   4.059 -2.0823 -0.7203  1.0068
 4610TIP3    H235322   6.280   0.389   4.198  1.6896  0.8250 -0.3464
 4611TIP3   OH235323   1.224   0.881   2.306 -0.0515 -0.0104 -0.9183
 4611TIP3    H135324   1.276   0.801   2.299 -1.3389 -0.9485 -0.3150
 4611TIP3    H235325   1.173   0.884   2.225 -2.4711 -1.6827  0.4189
 4612TIP3   OH235326   2.573   0.351  10.675  0.4112  0.0777 -0.0150
 4612TIP3    H135327   2.512   0.310  10.613  1.0222  0.2967 -0.7627
 4612TIP3    H235328   2.570   0.444  10.654  2.1667 -0.0706 -1.1167
 4613TIP3   OH235329   2.589   0.735   3.763 -0.6089  0.0652  0.0646
 4613TIP3    H135330   2.526   0.747   3.834  0.0169  1.4894  0.4128
 4613TIP3    H235331   2.536   0.732   3.684 -1.2333 -0.5188  0.4918
 4614TIP3   OH235332   5.114   1.688   4.859  0.7495  0.2479 -0.2897
 4614TIP3    H135333   5.164   1.643   4.927 -0.2914  0.1265  0.4192
 4614TIP3    H235334   5.060   1.619   4.819 -1.8945  0.9788  1.7274
 4615TIP3   OH235335   0.069   5.603  13.450  0.8117 -0.2654  0.5003
 4615TIP3    H135336   0.022   5.685  13.436 -0.5229 -1.1235 -0.1956
 4615TIP3    H235337   0.117   5.617  13.532 -0.4428  0.7232  1.1027
 4616TIP3   OH235338   1.283   2.260  13.176  0.0952  0.3680 -0.2230
 4616TIP3    H135339   1.333   2.284  13.254 -0.1965 -0.2617  0.1703
 4616TIP3    H235340   1.337   2.194  13.133  0.7101  1.4148 -1.0823
 4617TIP3   OH235341   1.316   4.590   0.204  0.5820 -0.6518 -0.1956
 4617TIP3    H135342   1.241   4.632   0.162 -0.6903 -3.8351 -1.4839
 4617TIP3    H235343   1.304   4.606   0.298 -0.4933  0.7125 -0.5441
 4618TIP3   OH235344   2.292   0.113  10.805 -0.3395  0.3916  0.2762
 4618TIP3    H135345   2.309   0.032  10.757  1.0170  0.5029  0.5182
 4618TIP3    H235346   2.200   0.133  10.787 -0.1255 -0.0431 -1.5738
 4619TIP3   OH235347   2.324   3.974  12.080 -0.3037  0.0952  0.4480
 4619TIP3    H135348   2.357   3.920  12.008 -0.2913 -0.5868  0.9494
 4619TIP3    H235349   2.244   3.928  12.108 -1.1221  1.1549 -0.0772
 4620TIP3   OH235350   0.218   4.371  15.275  0.0856 -0.7750  0.3127
 4620TIP3    H135351   0.206   4.435  15.345  1.5801  0.1208 -0.1943
 4620TIP3    H235352   0.206   4.422  15.194 -2.2574 -1.9226 -0.1327
 4621TIP3   OH235353   0.865   6.188   3.861  0.4530 -0.1928  0.0337
 4621TIP3    H135354   0.812   6.167   3.939  0.6108  0.4188  0.3105
 4621TIP3    H235355   0.895   6.278   3.876 -1.5665  0.8847 -1.8947
 4622TIP3   OH235356   3.052   2.243  13.325 -0.2919  0.2535 -0.3260
 4622TIP3    H135357   3.007   2.188  13.388  1.1444 -0.1478  0.4006
 4622TIP3    H235358   2.989   2.311  13.302 -0.0267  2.1583  3.7172
 4623TIP3   OH235359   0.762   2.587  14.943 -0.1332  0.0169  1.0816
 4623TIP3    H135360   0.852   2.584  14.974  0.2637  0.3171  0.0087
 4623TIP3    H235361   0.746   2.501  14.904  0.1599  0.4113  0.0545
 4624TIP3   OH235362   6.766   4.568   2.588 -0.0776 -0.1450 -0.4264
 4624TIP3    H135363   6.860   4.548   2.589  0.0038  0.1660 -1.0526
 4624TIP3    H235364   6.725   4.489   2.553 -0.1618 -0.6768  0.8387
 4625TIP3   OH235365   5.993   5.769  15.966  0.6888  0.5509  0.0531
 4625TIP3    H135366   5.968   5.833  16.033 -2.6431 -0.3259 -0.1671
 4625TIP3    H235367   5.987   5.684  16.010 -0.6322  0.0352 -1.0450
 4626TIP3   OH235368   0.687   0.026  17.110  0.5313  0.2857 -0.0564
 4626TIP3    H135369   0.768  -0.026  17.112 -0.6595 -1.6694  1.2647
 4626TIP3    H235370   0.715   0.115  17.128  2.6573  0.1409 -2.1168
 4627TIP3   OH235371   3.298   1.280  14.016  0.1435  0.1632  0.0301
 4627TIP3    H135372   3.366   1.246  14.074  0.9781 -0.0033 -1.0247
 4627TIP3    H235373   3.319   1.372  14.004 -0.6227  0.4557  0.7898
 4628TIP3   OH235374   4.852   1.825   6.042 -0.2832 -0.0355 -0.5569
 4628TIP3    H135375   4.945   1.845   6.052 -0.0660  0.0264 -2.3787
 4628TIP3    H235376   4.813   1.853   6.125  0.9620  2.1215 -0.6133
 4629TIP3   OH235377   0.884   0.541  15.852 -0.1931 -0.2143  0.1678
 4629TIP3    H135378   0.966   0.540  15.803 -0.8108  0.0130 -0.9103
 4629TIP3    H235379   0.906   0.582  15.936  1.1898 -1.8462  0.6506
 4630TIP3   OH235380   4.950   3.144   3.154 -0.9398 -0.6574 -0.3095
 4630TIP3    H135381   4.881   3.189   3.203  0.1602  0.5108  0.2101
 4630TIP3    H235382   4.946   3.053   3.185  0.6196  0.2750  3.1088
 4631TIP3   OH235383   5.675   0.340  11.654  0.3668  0.6569 -0.0304
 4631TIP3    H135384   5.589   0.298  11.644 -0.5833  2.4396  0.2340
 4631TIP3    H235385   5.732   0.291  11.595 -1.1476  0.2422 -1.2446
 4632TIP3   OH235386   2.356   4.977   0.207 -0.7349 -0.4025  0.2041
 4632TIP3    H135387   2.376   5.054   0.260 -0.1007 -0.9683  0.7972
 4632TIP3    H235388   2.272   4.998   0.166 -0.9263  0.3047  0.9271
 4633TIP3   OH235389   3.187   3.623   4.659 -0.3715  0.1351 -0.0373
 4633TIP3    H135390   3.150   3.544   4.622  1.1690 -0.0225 -1.3657
 4633TIP3    H235391   3.282   3.609   4.656 -0.0850  0.5373  3.0863
 4634TIP3   OH235392   5.588   0.938  16.352  0.1959  0.4270 -0.2204
 4634TIP3    H135393   5.571   0.854  16.312  0.8753 -0.3586  1.0653
 4634TIP3    H235394   5.650   0.981  16.293 -0.9773  0.5095 -1.4314
 4635TIP3   OH235395   1.894   2.914  17.003  0.1078  0.0876 -0.8282
 4635TIP3    H135396   1.894   3.001  16.963 -0.7322  0.6869  0.4196
 4635TIP3    H235397   1.864   2.929  17.092 -0.9049 -1.6104 -0.8571
 4636TIP3   OH235398   0.778   1.223   2.323  0.1951 -0.2230  0.1265
 4636TIP3    H135399   0.801   1.266   2.240  3.3992  1.4650  1.7149
 4636TIP3    H235400   0.718   1.285   2.366 -2.0955 -1.4488 -1.1179
 4637TIP3   OH235401   0.756   2.505   1.245  0.2399 -0.0805  0.1205
 4637TIP3    H135402   0.739   2.498   1.339 -4.6924 -1.0825 -0.5796
 4637TIP3    H235403   0.774   2.598   1.231  0.0445  0.2720  1.9439
 4638TIP3   OH235404   5.058   0.054  15.383 -0.2834  0.3762 -0.6244
 4638TIP3    H135405   5.015  -0.028  15.407  0.1964  0.2907 -0.0295
 4638TIP3    H235406   5.143   0.028  15.349 -0.0070  0.6333 -0.1524
 4639TIP3   OH235407   6.306   4.342  11.424  0.6696  0.2479 -0.2709
 4639TIP3    H135408   6.397   4.313  11.427  0.8369  0.7736 -0.2784
 4639TIP3    H235409   6.256   4.261  11.414  1.1450 -0.0251 -0.4623
 4640TIP3   OH235410   5.143   1.579   4.523 -0.0262 -0.1384 -0.0501
 4640TIP3    H135411   5.102   1.555   4.606 -0.4211 -1.0111 -0.4854
 4640TIP3    H235412   5.071   1.612   4.469 -0.2103 -1.8122 -0.8711
 4641TIP3   OH235413   4.091   5.871  15.150 -0.0963  0.1553  0.5600
 4641TIP3    H135414   4.055   5.917  15.225 -2.0359  0.2991 -0.3828
 4641TIP3    H235415   4.126   5.940  15.094 -0.3634  0.2346  0.4864
 4642TIP3   OH235416   0.315   6.700   1.353 -0.1370 -0.7359  0.0376
 4642TIP3    H135417   0.360   6.618   1.374  0.0008 -0.3289  1.4591
 4642TIP3    H235418   0.223   6.683   1.372 -0.0378 -0.4205  0.8451
 4643TIP3   OH235419   2.400   3.914  14.875  0.1276 -0.1984 -0.0209
 4643TIP3    H135420   2.408   3.931  14.969 -0.8606 -0.8836  0.1933
 4643TIP3    H235421   2.478   3.955  14.837  0.0738  0.8888  0.9902
 4644TIP3   OH235422   1.097   5.100   1.364 -0.4502 -0.3812  0.1764
 4644TIP3    H135423   1.085   5.184   1.319 -0.5878  0.1463  1.1598
 4644TIP3    H235424   1.153   5.049   1.306  0.3396  0.7109 -0.0427
 4645TIP3   OH235425   3.061   5.324   3.554  0.6436 -0.2390  0.3284
 4645TIP3    H135426   3.094   5.376   3.480 -0.0329 -0.2637 -0.0054
 4645TIP3    H235427   3.057   5.235   3.520 -1.2412 -0.0155 -0.1992
 4646TIP3   OH235428   3.831   1.033  11.235  0.2493  0.2123  0.2207
 4646TIP3    H135429   3.833   1.083  11.154 -0.1088 -0.0527  0.0432
 4646TIP3    H235430   3.917   0.991  11.240 -0.2334 -0.9610 -0.7947
 4647TIP3   OH235431   0.435   3.630  17.114 -0.4488 -0.1526  0.6262
 4647TIP3    H135432   0.433   3.616  17.209 -0.1167 -2.8172  0.3236
 4647TIP3    H235433   0.524   3.606  17.089 -0.7081 -0.0380 -0.4303
 4648TIP3   OH235434   1.670   6.154   4.905  0.1703  0.4258 -0.2359
 4648TIP3    H135435   1.723   6.180   4.829  0.4657  0.4192 -0.0358
 4648TIP3    H235436   1.685   6.223   4.969  0.2414  0.2285 -0.0373
 4649TIP3   OH235437   6.213   6.674  12.238 -0.5090  0.1206  0.5000
 4649TIP3    H135438   6.127   6.634  12.229 -1.3454  2.2463 -2.6229
 4649TIP3    H235439   6.260   6.646  12.159  1.9303 -1.2974  2.2870
 4650TIP3   OH235440   2.958   2.597  11.492 -0.0092  0.0018 -0.9894
 4650TIP3    H135441   2.876   2.578  11.447  0.2891 -3.0757 -0.5091
 4650TIP3    H235442   3.019   2.530  11.460  0.7486 -1.1514  2.4338
 4651TIP3   OH235443   2.623   0.482   3.907 -0.4322  0.1353 -0.2798
 4651TIP3    H135444   2.558   0.503   3.975  0.0542 -0.2974  0.3335
 4651TIP3    H235445   2.614   0.553   3.843 -1.4034  0.1571 -0.1335
 4652TIP3   OH235446   6.511   2.816   1.090 -0.0029 -0.2094  0.2985
 4652TIP3    H135447   6.476   2.737   1.130  0.4650  0.3096  1.7915
 4652TIP3    H235448   6.539   2.789   1.003  1.8405 -2.1496  1.4133
 4653TIP3   OH235449   5.553   2.390   0.599  0.0234 -0.4028  0.3927
 4653TIP3    H135450   5.527   2.364   0.687  0.3839 -0.8700  0.3640
 4653TIP3    H235451   5.631   2.444   0.612  0.4802 -1.0371  0.3189
 4654TIP3   OH235452   5.671   5.259   5.149 -0.1168 -0.0444 -0.2020
 4654TIP3    H135453   5.606   5.269   5.079 -0.9172 -0.8413  0.4015
 4654TIP3    H235454   5.736   5.200   5.113 -0.1378  0.1241 -0.5263
 4655TIP3   OH235455   4.907   5.559   6.028  0.2119 -0.9289 -0.1694
 4655TIP3    H135456   4.883   5.492   5.963  2.0512 -3.5841  1.6920
 4655TIP3    H235457   5.002   5.550   6.037  0.3156  1.0243  1.1768
 4656TIP3   OH235458   1.923   2.522  15.082 -0.2226 -0.0752  0.1667
 4656TIP3    H135459   1.896   2.592  15.141  0.3010  0.8306 -0.6439
 4656TIP3    H235460   2.018   2.516  15.094 -0.4056 -1.5798  1.2041
 4657TIP3   OH235461   1.171   1.139  16.165 -0.0879  0.3984 -0.2975
 4657TIP3    H135462   1.254   1.185  16.147  0.0271  0.0369 -0.6989
 4657TIP3    H235463   1.114   1.207  16.201  0.5689  0.5240  0.5588
 4658TIP3   OH235464   4.769   2.554  16.718  0.5885  0.0651  0.1302
 4658TIP3    H135465   4.846   2.610  16.710  0.1588  0.7339  0.5855
 4658TIP3    H235466   4.702   2.610  16.756 -0.1527 -0.4911 -0.3223
 4659TIP3   OH235467   2.112   1.764  12.836  0.3022 -0.7273 -0.0232
 4659TIP3    H135468   2.178   1.703  12.802 -0.5892 -1.1044 -1.1704
 4659TIP3    H235469   2.073   1.719  12.911 -0.9051 -1.9760 -1.3457
 4660TIP3   OH235470   3.167   1.245  15.840 -0.1266  0.7482  0.3017
 4660TIP3    H135471   3.202   1.276  15.924  1.9119  1.8237 -0.8795
 4660TIP3    H235472   3.133   1.157  15.859 -2.7391  2.1504  2.9497
 4661TIP3   OH235473   2.694   4.614  11.502  0.0340 -0.5649  0.3679
 4661TIP3    H135474   2.744   4.638  11.580 -1.1273 -2.1852  1.6710
 4661TIP3    H235475   2.647   4.535  11.527 -1.1117 -0.5950 -1.6862
 4662TIP3   OH235476   3.825   0.263   3.465  0.0182  0.6247  0.0607
 4662TIP3    H135477   3.907   0.302   3.433  0.6503 -0.3052  0.4807
 4662TIP3    H235478   3.839   0.252   3.559 -0.6914  0.6726  0.1784
 4663TIP3   OH235479   4.341   5.025  16.878 -0.3338 -0.7066 -0.2444
 4663TIP3    H135480   4.293   5.052  16.956  2.3193  0.9421  0.9322
 4663TIP3    H235481   4.309   5.083  16.809  0.5192  0.9831  0.7241
 4664TIP3   OH235482   3.737   5.205   3.688 -0.0493  0.0288  0.1570
 4664TIP3    H135483   3.689   5.249   3.758  1.5616 -1.3905  2.2794
 4664TIP3    H235484   3.672   5.191   3.619 -1.5617  2.0253  1.0769
 4665TIP3   OH235485   2.954   5.012  14.995  0.5128 -0.6823 -0.7419
 4665TIP3    H135486   2.987   4.943  14.937 -0.9677 -1.4072 -0.7652
 4665TIP3    H235487   2.987   4.987  15.082 -1.2612 -2.3380 -0.4743
 4666TIP3   OH235488   1.025   3.211   1.595 -0.2544 -0.5101 -0.3344
 4666TIP3    H135489   1.039   3.217   1.689  0.7362 -0.1794 -0.4872
 4666TIP3    H235490   0.930   3.209   1.584 -0.5884  3.7438  0.4148
 4667TIP3   OH235491   4.036   5.259   6.422  0.4319 -0.0105  0.8080
 4667TIP3    H135492   4.010   5.340   6.378  1.8777  0.5256  0.8841
 4667TIP3    H235493   3.954   5.222   6.454 -0.4372  0.5436 -0.7049
 4668TIP3   OH235494   0.748   1.903   0.767  0.4704 -0.1747 -0.8118
 4668TIP3    H135495   0.661   1.890   0.729 -0.1644 -0.0249  0.5257
 4668TIP3    H235496   0.760   1.998   0.767 -0.3885 -0.0165  1.0956
 4669TIP3   OH235497   0.324   2.721  13.802 -0.1931  0.3072  0.5684
 4669TIP3    H135498   0.295   2.738  13.712 -1.0155  1.1237  0.9805
 4669TIP3    H235499   0.247   2.686  13.846  0.0221  0.5656  1.1455
 4670TIP3   OH235500   1.850   0.032   6.351  0.0633  0.0178  0.3113
 4670TIP3    H135501   1.867   0.074   6.435  0.1870  2.2360 -0.7508
 4670TIP3    H235502   1.827  -0.058   6.373  2.1251 -0.0679  2.5717
 4671TIP3   OH235503   4.137   0.572  16.998 -0.2178 -0.0985 -0.0813
 4671TIP3    H135504   4.203   0.512  17.035  0.1947  0.5043  0.1730
 4671TIP3    H235505   4.186   0.626  16.936 -0.2120  1.1325  0.9584
 4672TIP3   OH235506   2.007   4.780   2.005 -0.6116 -0.0569 -0.8801
 4672TIP3    H135507   2.010   4.723   1.928  0.6268 -0.1030 -0.8161
 4672TIP3    H235508   2.027   4.723   2.079  1.1384  0.4967 -0.8706
 4673TIP3   OH235509   4.606   5.930  14.772  0.2057  0.0649 -0.0774
 4673TIP3    H135510   4.627   5.837  14.777  1.7353  0.1431 -2.7778
 4673TIP3    H235511   4.511   5.933  14.765 -0.0965 -1.0591  2.5587
 4674TIP3   OH235512   3.783   1.417  11.932 -0.3266 -0.5297  1.0904
 4674TIP3    H135513   3.691   1.433  11.951  0.2390  2.1760  2.0329
 4674TIP3    H235514   3.824   1.504  11.938  2.1182 -1.4936 -0.2927
 4675TIP3   OH235515   6.679   2.908  10.560 -0.1453 -0.1786  0.0433
 4675TIP3    H135516   6.691   2.813  10.557 -2.1287 -0.4826 -3.3006
 4675TIP3    H235517   6.759   2.943  10.521  0.0604 -0.5853  0.0918
 4676TIP3   OH235518   6.077   5.240  14.971  0.4210  0.4440 -0.1507
 4676TIP3    H135519   6.100   5.187  14.895 -1.1001  1.0468 -1.0747
 4676TIP3    H235520   6.053   5.325  14.935 -2.0085  0.2317  0.7767
 4677TIP3   OH235521   0.460   3.997  16.863  0.3576 -0.2284  0.4229
 4677TIP3    H135522   0.477   4.090  16.847  1.8635 -0.7012 -1.0565
 4677TIP3    H235523   0.365   3.991  16.873  0.0156  1.2416 -1.3886
 4678TIP3   OH235524   3.080   6.819  12.423 -0.5340 -0.3977 -0.0663
 4678TIP3    H135525   3.097   6.782  12.337  0.3034 -2.1109  0.7938
 4678TIP3    H235526   3.019   6.758  12.465 -1.4249  0.7322  0.3615
 4679TIP3   OH235527   1.748   4.591   0.003  0.0904 -0.0370 -0.6432
 4679TIP3    H135528   1.730   4.682  -0.020 -0.9597  0.1117  0.6787
 4679TIP3    H235529   1.696   4.575   0.082  0.5868 -1.6591 -0.6099
 4680TIP3   OH235530   2.774   3.507  16.351  0.0031 -0.4618  0.2795
 4680TIP3    H135531   2.784   3.602  16.352 -1.4560 -0.2822  1.2561
 4680TIP3    H235532   2.853   3.474  16.392  0.1242  0.3931  0.7546
 4681TIP3   OH235533   0.200   0.157  13.928  0.3216 -0.0172  0.3853
 4681TIP3    H135534   0.148   0.228  13.966  0.4910 -0.2072  0.9747
 4681TIP3    H235535   0.235   0.194  13.847 -0.5883  0.1718  0.0577
 4682TIP3   OH235536   3.561   1.376  16.879  0.0401  0.4072  0.1368
 4682TIP3    H135537   3.472   1.350  16.903 -0.8102  0.5231 -2.5210
 4682TIP3    H235538   3.563   1.471  16.894 -1.1942  0.8504 -2.0582
 4683TIP3   OH235539   2.387   4.596   5.056  0.3280 -0.0181  0.0674
 4683TIP3    H135540   2.474   4.561   5.078  0.2403  0.2021  0.7916
 4683TIP3    H235541   2.351   4.534   4.993  1.3080  0.2792 -0.8127
 4684TIP3   OH235542   3.706   6.683   2.406  0.4247  0.2571 -0.5236
 4684TIP3    H135543   3.656   6.717   2.479 -0.4857 -0.1679 -0.9301
 4684TIP3    H235544   3.752   6.607   2.441 -1.9894 -1.5183 -0.9259
 4685TIP3   OH235545   2.391   3.205   4.442  0.5212 -0.1362 -0.2305
 4685TIP3    H135546   2.359   3.260   4.514  0.9499  1.5454 -1.2783
 4685TIP3    H235547   2.346   3.239   4.365  0.9156 -1.1884 -0.9279
 4686TIP3   OH235548   5.743   0.518  15.490 -0.0049 -0.3338 -0.5194
 4686TIP3    H135549   5.674   0.508  15.556  0.9328 -2.1062  0.2528
 4686TIP3    H235550   5.697   0.546  15.411 -1.4192 -0.1273  0.3440
 4687TIP3   OH235551   2.572   3.369   0.293 -0.0070  0.0413  0.9097
 4687TIP3    H135552   2.523   3.416   0.225 -0.7387 -1.1462  0.5742
 4687TIP3    H235553   2.548   3.277   0.279  1.4060 -0.4331  1.5141
 4688TIP3   OH235554   2.286   0.302   6.119  0.5404 -0.3994 -0.1613
 4688TIP3    H135555   2.280   0.220   6.070 -0.3584  0.1817 -1.0609
 4688TIP3    H235556   2.375   0.302   6.154  1.0722 -1.0605 -1.4337
 4689TIP3   OH235557   5.645   1.298   6.506 -0.5967 -0.0191 -0.5719
 4689TIP3    H135558   5.718   1.258   6.460 -0.3950 -0.3315  0.0057
 4689TIP3    H235559   5.662   1.279   6.599 -0.5668  1.2937 -0.2928
 4690TIP3   OH235560   3.298   1.602  16.224  0.7571  0.5202  0.0570
 4690TIP3    H135561   3.303   1.539  16.152  0.8901  0.4149  0.1560
 4690TIP3    H235562   3.286   1.686  16.181 -1.0251  0.2543 -0.0333
 4691TIP3   OH235563   3.983   3.460  13.498 -0.8876  0.2089  0.4295
 4691TIP3    H135564   3.891   3.471  13.475 -0.9551 -0.5707  0.2769
 4691TIP3    H235565   4.031   3.513  13.435 -1.1716 -0.3904 -0.3116
 4692TIP3   OH235566   1.509   0.302  16.381  0.2982 -0.2273  0.1623
 4692TIP3    H135567   1.540   0.355  16.454  1.3218  0.5598 -0.8230
 4692TIP3    H235568   1.417   0.327  16.371  0.7512  1.3502 -0.2528
 4693TIP3   OH235569   5.037   6.739  16.227  0.3895  0.3636  0.1366
 4693TIP3    H135570   5.041   6.686  16.306  2.1106 -0.0826 -0.2075
 4693TIP3    H235571   4.952   6.719  16.188 -0.3735  0.3995  1.7140
 4694TIP3   OH235572   4.685   1.430  12.589  0.3310  0.0212  0.6742
 4694TIP3    H135573   4.673   1.369  12.662 -0.8721 -0.1570  0.3469
 4694TIP3    H235574   4.606   1.482  12.587  0.6696  0.5383 -0.0405
 4695TIP3   OH235575   0.928   2.302   4.223 -0.2608 -0.1613 -0.4602
 4695TIP3    H135576   0.926   2.261   4.309 -2.1183  0.2748 -0.2545
 4695TIP3    H235577   0.911   2.394   4.240 -2.4659 -0.3365 -1.3810
 4696TIP3   OH235578   3.207   5.890   0.081  0.0022 -0.9430 -0.5700
 4696TIP3    H135579   3.254   5.963   0.042 -0.0861 -0.4723  0.1957
 4696TIP3    H235580   3.169   5.844   0.006 -1.0219  0.5281 -1.0151
 4697TIP3   OH235581   0.390   1.605  13.723 -0.1176  0.8099 -0.3531
 4697TIP3    H135582   0.379   1.515  13.694 -0.9304  0.2114  1.6086
 4697TIP3    H235583   0.308   1.648  13.699 -0.6024  0.4365  0.5634
 4698TIP3   OH235584   1.220   3.591  16.309 -0.0585 -0.3563 -0.4883
 4698TIP3    H135585   1.208   3.498  16.328  0.0447 -0.0969  0.9332
 4698TIP3    H235586   1.131   3.623  16.295 -0.0920 -0.6751 -1.0149
 4699TIP3   OH235587   6.660   6.578  15.840 -0.0659 -0.3517  0.0536
 4699TIP3    H135588   6.741   6.602  15.795  0.0733 -1.0453 -0.0777
 4699TIP3    H235589   6.593   6.633  15.799  0.6892  2.0595  1.8568
 4700TIP3   OH235590   5.016   1.019  15.539 -0.1467 -0.1418 -0.5182
 4700TIP3    H135591   4.950   1.077  15.502  0.1220  1.1029  0.8665
 4700TIP3    H235592   4.966   0.948  15.580 -0.5842  0.2496 -0.3723
 4701TIP3   OH235593   5.221   5.219  11.196 -0.1524 -0.1237  0.0958
 4701TIP3    H135594   5.136   5.186  11.167  0.5336 -0.2476 -1.9191
 4701TIP3    H235595   5.285   5.163  11.152  0.9997  0.4119  1.0253
 4702TIP3   OH235596   2.757   2.085  14.291 -0.0944 -0.2138  0.0102
 4702TIP3    H135597   2.787   2.164  14.336 -0.9536  0.9647 -1.3707
 4702TIP3    H235598   2.664   2.079  14.311 -0.6428  0.6783 -1.9415
 4703TIP3   OH235599   1.397   4.232   0.303  0.2232  0.2261  0.5429
 4703TIP3    H135600   1.357   4.288   0.370 -0.2073 -1.5432  1.8294
 4703TIP3    H235601   1.334   4.232   0.231 -0.3888  0.3688  1.0660
 4704TIP3   OH235602   6.172   0.126  11.961 -0.7105  0.3586 -0.0238
 4704TIP3    H135603   6.118   0.051  11.937 -2.0537  1.7065 -1.5005
 4704TIP3    H235604   6.218   0.150  11.881  1.8657 -0.4720  1.0881
 4705TIP3   OH235605   5.135   6.596   1.356 -0.1571 -0.1674  0.4882
 4705TIP3    H135606   5.167   6.630   1.439 -0.4235  0.6796  0.2460
 4705TIP3    H235607   5.045   6.569   1.373 -0.2346  0.0717  0.4591
 4706TIP3   OH235608   4.165   5.121   2.471 -0.5725  0.8327  0.5004
 4706TIP3    H135609   4.157   5.043   2.416 -3.3382  1.0004  0.5309
 4706TIP3    H235610   4.195   5.190   2.410  1.8081 -0.1208  0.4608
 4707TIP3   OH235611   1.191   0.452   0.214  0.1770 -0.2317 -0.1265
 4707TIP3    H135612   1.181   0.381   0.151 -1.6126 -1.2261  1.1706
 4707TIP3    H235613   1.116   0.510   0.198  1.8568  1.7153 -1.4795
 4708TIP3   OH235614   4.095   2.876  14.093  0.0009 -0.3633  0.0331
 4708TIP3    H135615   4.131   2.795  14.057 -1.4144  0.1163 -2.7394
 4708TIP3    H235616   4.171   2.922  14.128  1.5696 -0.9813 -2.3128
 4709TIP3   OH235617   6.675   3.530   3.021  0.3503  0.8747  0.0350
 4709TIP3    H135618   6.637   3.609   3.060  0.7766  2.6399 -2.8447
 4709TIP3    H235619   6.764   3.556   2.997  0.3360 -0.3081 -1.4274
 4710TIP3   OH235620   3.014   3.633  12.716 -0.4610  0.0342 -0.0060
 4710TIP3    H135621   3.080   3.669  12.656 -0.3023  0.0390  0.1708
 4710TIP3    H235622   3.040   3.541  12.728  0.2070  0.3406  1.0066
 4711TIP3   OH235623   6.741   0.234   0.813 -0.5650 -0.3935 -0.1031
 4711TIP3    H135624   6.672   0.215   0.877  0.0972  0.3975  0.8841
 4711TIP3    H235625   6.724   0.323   0.785  0.4640  0.0815  0.7196
 4712TIP3   OH235626   3.431   4.202  13.408 -0.0681 -0.0300 -0.4468
 4712TIP3    H135627   3.401   4.115  13.434 -0.5732  0.8887  2.4419
 4712TIP3    H235628   3.522   4.206  13.440 -0.6391  1.0767  1.1633
 4713TIP3   OH235629   1.571   3.007   5.896  0.5023  0.5642 -0.2509
 4713TIP3    H135630   1.653   2.963   5.874  0.0366  0.0792 -1.0517
 4713TIP3    H235631   1.563   3.076   5.830  0.6307  1.1039  0.2831
 4714TIP3   OH235632   0.547   3.036  16.417  0.6244  0.2753  0.0339
 4714TIP3    H135633   0.462   3.026  16.462  0.7711  0.1780  0.2962
 4714TIP3    H235634   0.606   2.980  16.468  0.0870 -2.5669 -2.2240
 4715TIP3   OH235635   5.005   2.291  12.994 -0.4640 -0.7223  0.6696
 4715TIP3    H135636   5.032   2.203  12.969 -0.2607 -0.0689 -1.6338
 4715TIP3    H235637   4.952   2.322  12.921  1.3642  1.9027  0.3124
 4716TIP3   OH235638   2.213   2.374  12.239  0.3088 -0.4831 -0.2939
 4716TIP3    H135639   2.172   2.429  12.173  1.0167  0.4196  0.0092
 4716TIP3    H235640   2.156   2.296  12.243 -0.5120  0.0595 -0.9572
 4717TIP3   OH235641   6.438   4.057  16.870 -0.3170  0.4264 -0.1642
 4717TIP3    H135642   6.447   4.050  16.965 -0.3557 -1.4642 -0.2477
 4717TIP3    H235643   6.524   4.029  16.836 -0.9257 -0.9524 -0.6795
 4718TIP3   OH235644   4.575   6.255  14.093  0.4883  0.0897  0.3969
 4718TIP3    H135645   4.532   6.286  14.013 -0.2062 -0.3238  0.6059
 4718TIP3    H235646   4.597   6.164  14.074 -1.0230 -0.4780  1.1932
 4719TIP3   OH235647   2.730   1.135   0.542 -0.1308 -0.0211  0.5146
 4719TIP3    H135648   2.815   1.179   0.539 -0.7374  1.2184  0.7969
 4719TIP3    H235649   2.697   1.141   0.453  0.0028 -0.3684  0.4393
 4720TIP3   OH235650   4.842   6.633  14.680 -0.4834 -0.0340  0.1970
 4720TIP3    H135651   4.844   6.671  14.592 -0.9854 -1.2526 -0.3616
 4720TIP3    H235652   4.933   6.637  14.709  0.5994 -3.3650 -2.0986
 4721TIP3   OH235653   0.298   2.976   0.335 -0.1500  0.1839 -0.3585
 4721TIP3    H135654   0.241   2.900   0.352 -0.4409  0.6961  1.0748
 4721TIP3    H235655   0.276   3.003   0.246 -0.2066 -1.2677 -0.8130
 4722TIP3   OH235656   4.984   3.933  12.251  0.2512  0.8792  1.1282
 4722TIP3    H135657   5.032   3.927  12.168  0.1424  1.0399  1.0544
 4722TIP3    H235658   5.045   3.898  12.316  1.0075  2.3651  1.2608
 4723TIP3   OH235659   3.516   3.059   1.519  0.9259 -0.0095  0.3369
 4723TIP3    H135660   3.567   3.130   1.556  1.0973 -1.5729  3.3880
 4723TIP3    H235661   3.482   3.011   1.595  0.4342 -2.9098 -1.5447
 4724TIP3   OH235662   5.104   2.787   4.038  0.3129 -0.0650  0.1977
 4724TIP3    H135663   5.014   2.820   4.035  0.1202 -0.0800  2.9459
 4724TIP3    H235664   5.158   2.863   4.018 -0.2612 -0.1202 -1.7717
 4725TIP3   OH235665   6.021   3.030   2.304 -0.1001  0.1437 -0.1813
 4725TIP3    H135666   5.966   3.006   2.379 -0.4401 -0.1906 -0.5337
 4725TIP3    H235667   6.017   2.953   2.247  1.4959 -0.2728  0.2251
 4726TIP3   OH235668   2.413   5.076  11.988  0.4230  0.2139 -0.2193
 4726TIP3    H135669   2.495   5.118  12.014  0.6473  0.3260 -1.0866
 4726TIP3    H235670   2.440   4.996  11.943  0.0237 -2.7105  4.0775
 4727TIP3   OH235671   1.314   3.866   1.510 -0.2155  0.1609 -0.1310
 4727TIP3    H135672   1.318   3.854   1.415 -1.2361 -1.4715  0.0067
 4727TIP3    H235673   1.342   3.782   1.547  0.2426  0.7915  1.0366
 4728TIP3   OH235674   2.785   4.483  12.587 -0.2981  0.3216  0.1079
 4728TIP3    H135675   2.809   4.468  12.678 -0.1144 -0.1896 -0.0235
 4728TIP3    H235676   2.776   4.579  12.580  5.0695  1.0658 -0.6195
 4729TIP3   OH235677   1.094   2.256   6.379  0.1715  0.0940 -0.1862
 4729TIP3    H135678   1.096   2.325   6.445 -1.5227  0.5629 -0.5771
 4729TIP3    H235679   1.049   2.183   6.421  0.6622 -0.2528 -0.2538
 4730TIP3   OH235680   2.752   1.713  17.149 -0.2860 -0.7141  0.0938
 4730TIP3    H135681   2.736   1.675  17.063 -2.2433 -0.0339  0.0957
 4730TIP3    H235682   2.670   1.759  17.170  0.8611  0.8382  1.4330
 4731TIP3   OH235683   5.743   4.933  15.234  0.2846 -0.2449 -0.6235
 4731TIP3    H135684   5.657   4.957  15.268  1.1082  1.3199  0.5590
 4731TIP3    H235685   5.783   4.882  15.305  1.3539  1.5083  0.1027
 4732TIP3   OH235686   2.458   3.432   5.174  0.0541 -0.2829  0.3948
 4732TIP3    H135687   2.551   3.409   5.168 -0.6546 -3.2387 -0.6557
 4732TIP3    H235688   2.454   3.493   5.248  2.8672  0.4101  0.1030
 4733TIP3   OH235689   1.399   0.537  15.915  0.3775 -0.5527  0.3304
 4733TIP3    H135690   1.413   0.460  15.970 -0.7867 -1.5249 -0.6816
 4733TIP3    H235691   1.410   0.611  15.975  0.3865 -1.5372  1.5904
 4734TIP3   OH235692   2.216   2.003  13.972  0.6266  0.2426 -0.0518
 4734TIP3    H135693   2.198   2.005  13.878 -1.8798  1.6479  0.3622
 4734TIP3    H235694   2.208   2.095  13.999 -0.8880 -0.3822  1.8463
 4735TIP3   OH235695   2.548   2.459  15.273 -0.1561  0.3155 -0.1969
 4735TIP3    H135696   2.569   2.367  15.263  0.0245  0.5006 -1.7430
 4735TIP3    H235697   2.471   2.460  15.330  0.1388 -0.7474  0.2378
 4736TIP3   OH235698   5.071   4.681  11.044 -0.1649  0.1815  0.3062
 4736TIP3    H135699   5.008   4.631  10.992 -0.2076 -1.3447  1.7510
 4736TIP3    H235700   5.110   4.617  11.103  2.1982  1.2336  0.0033
 4737TIP3   OH235701   2.954   6.549  14.889  0.3541  0.3866 -0.0271
 4737TIP3    H135702   2.972   6.507  14.805  2.0149 -0.1430  0.5605
 4737TIP3    H235703   2.990   6.637  14.879 -0.4232  0.6928 -0.2205
 4738TIP3   OH235704   6.501   5.527   4.766  0.0173  0.3281  0.5201
 4738TIP3    H135705   6.511   5.493   4.677 -0.9118  1.0928  0.1044
 4738TIP3    H235706   6.423   5.484   4.800  0.9408 -0.7597  1.3876
 4739TIP3   OH235707   2.460   3.573   6.442  0.3280  0.1893 -0.7049
 4739TIP3    H135708   2.366   3.579   6.460  0.3724 -1.1326  0.0283
 4739TIP3    H235709   2.470   3.617   6.358 -0.7507  1.4485 -0.2157
 4740TIP3   OH235710   4.911   3.276  11.107 -0.1746  0.4443 -0.7075
 4740TIP3    H135711   4.910   3.248  11.016  1.3898 -1.6287 -0.1555
 4740TIP3    H235712   4.929   3.370  11.103 -0.2065  0.4067 -2.5236
 4741TIP3   OH235713   2.750   3.233   1.596 -0.3504  0.2223 -0.9757
 4741TIP3    H135714   2.670   3.250   1.645  0.5477 -2.6587  1.8070
 4741TIP3    H235715   2.788   3.320   1.583 -2.1512  1.3741  0.8236
 4742TIP3   OH235716   1.326   5.405  13.563  0.6833 -0.2145  0.0750
 4742TIP3    H135717   1.310   5.401  13.469  1.0819  0.8441 -0.0549
 4742TIP3    H235718   1.305   5.318  13.595  2.0252 -1.0730 -1.2292
 4743TIP3   OH235719   2.678   0.065  15.143  0.3957  0.0312 -0.1532
 4743TIP3    H135720   2.723   0.144  15.170  0.1135 -0.1187  0.7796
 4743TIP3    H235721   2.615   0.047  15.213 -1.6833  0.6788 -1.7653
 4744TIP3   OH235722   5.679   2.123  14.175  0.2440  0.0848  0.1804
 4744TIP3    H135723   5.587   2.098  14.169 -0.5868  2.4313  1.7788
 4744TIP3    H235724   5.719   2.053  14.227 -0.6367 -0.8773 -0.3955
 4745TIP3   OH235725   5.802   4.348  16.848 -0.0114 -0.3104 -0.0709
 4745TIP3    H135726   5.746   4.424  16.834 -0.6334 -0.3267  1.9006
 4745TIP3    H235727   5.751   4.293  16.908  1.1735 -1.4207 -0.0494
 4746TIP3   OH235728   4.605   0.188   0.315 -0.1833  0.5038  0.0951
 4746TIP3    H135729   4.600   0.156   0.405  0.4785  0.1038 -0.0040
 4746TIP3    H235730   4.666   0.128   0.271 -0.5201  0.6734 -0.6294
 4747TIP3   OH235731   3.392   3.176   2.862 -0.1439  0.4778  0.7591
 4747TIP3    H135732   3.337   3.244   2.823 -0.2697  0.6789  1.2771
 4747TIP3    H235733   3.334   3.101   2.873  0.0038  0.2654  0.1538
 4748TIP3   OH235734   3.663   6.193   3.305 -0.2923 -0.5191  0.4208
 4748TIP3    H135735   3.639   6.101   3.307 -1.6544 -0.1801  1.5328
 4748TIP3    H235736   3.636   6.223   3.218 -2.1285 -0.6498  0.8995
 4749TIP3   OH235737   0.245   4.028   4.583 -0.3691 -0.1686  0.8709
 4749TIP3    H135738   0.290   3.944   4.587 -0.6248 -0.2566  2.1296
 4749TIP3    H235739   0.301   4.082   4.527  1.6058 -0.1170  2.7809
 4750TIP3   OH235740   2.799   5.239   3.471 -0.3107 -0.0057  0.0789
 4750TIP3    H135741   2.856   5.284   3.409  1.4246 -0.7220  1.0875
 4750TIP3    H235742   2.805   5.291   3.551 -0.0330 -0.7941  0.5801
 4751TIP3   OH235743   0.353   3.911  12.506  0.2356  0.0423 -0.3383
 4751TIP3    H135744   0.386   3.986  12.457  0.5428 -1.6089 -2.9002
 4751TIP3    H235745   0.393   3.835  12.463 -0.3417 -1.6251  1.8812
 4752TIP3   OH235746   1.592   6.823   2.350  0.2482 -0.5227  0.0968
 4752TIP3    H135747   1.501   6.800   2.363  0.9970 -3.1116  1.4143
 4752TIP3    H235748   1.617   6.779   2.268  0.0096  1.3858 -1.0648
 4753TIP3   OH235749   1.021   6.271  17.129 -0.1316 -0.5483 -0.3100
 4753TIP3    H135750   1.074   6.274  17.049  1.4019  2.2843  0.6677
 4753TIP3    H235751   1.086   6.263  17.200 -1.1947  0.4900  0.8147
 4754TIP3   OH235752   4.688   0.200   3.864  0.3096 -0.4998  0.3869
 4754TIP3    H135753   4.614   0.220   3.922 -0.0162 -0.7350  0.0615
 4754TIP3    H235754   4.721   0.285   3.836  0.3233 -0.3883  0.7392
 4755TIP3   OH235755   5.783   4.590  14.448  0.4214  0.3652  0.0254
 4755TIP3    H135756   5.862   4.565  14.496 -0.8162  0.1602  2.0879
 4755TIP3    H235757   5.731   4.638  14.512 -2.3513 -1.8797 -0.3485
 4756TIP3   OH235758   5.060   4.297  17.020  0.2732  0.4764  0.0065
 4756TIP3    H135759   5.094   4.281  17.108  1.2012 -2.3740 -0.7641
 4756TIP3    H235760   5.028   4.212  16.990  0.2640  1.2763 -2.5388
 4757TIP3   OH235761   0.801   3.614  14.928  0.0310 -1.1667 -0.4237
 4757TIP3    H135762   0.753   3.642  15.007  0.5592  1.8837 -1.0607
 4757TIP3    H235763   0.739   3.627  14.856  1.0407  0.7449 -1.0065
 4758TIP3   OH235764   6.082   0.561  14.768  0.1615 -0.1017 -0.8755
 4758TIP3    H135765   6.033   0.625  14.716 -1.4311 -0.0790  0.5653
 4758TIP3    H235766   6.089   0.602  14.855 -0.7715 -1.8026  0.0472
 4759TIP3   OH235767   4.810   5.767  11.338 -0.7170  0.5505  0.0870
 4759TIP3    H135768   4.852   5.733  11.259 -0.2592 -0.6614  0.8319
 4759TIP3    H235769   4.779   5.854  11.313 -0.3796  0.2777 -1.3541
 4760TIP3   OH235770   1.215   0.357  12.152 -0.3663 -0.5606  0.3096
 4760TIP3    H135771   1.179   0.278  12.112  0.0953 -1.1086  0.9668
 4760TIP3    H235772   1.303   0.363  12.115 -0.5428 -0.1182 -0.0522
 4761TIP3   OH235773   4.583   0.136  11.947 -0.0707 -0.3731 -0.0280
 4761TIP3    H135774   4.642   0.210  11.965  0.2479 -0.4653 -0.6354
 4761TIP3    H235775   4.517   0.140  12.015 -0.9711  1.4258 -0.9296
 4762TIP3   OH235776   1.916   0.073  11.623  0.6144  0.4185  0.0217
 4762TIP3    H135777   1.905   0.164  11.649  1.6386  1.0917 -1.7385
 4762TIP3    H235778   2.004   0.049  11.653  1.0220  0.5786 -1.0027
 4763TIP3   OH235779   3.199   5.359  12.599  0.2626  0.2595  0.4075
 4763TIP3    H135780   3.133   5.304  12.557  0.9476  0.6115 -1.1728
 4763TIP3    H235781   3.185   5.344  12.693 -0.9788 -0.9233  0.0735
 4764TIP3   OH235782   5.950   4.832  14.375 -0.0541  0.5069  0.4434
 4764TIP3    H135783   5.904   4.762  14.420 -0.4740  0.5705  0.1131
 4764TIP3    H235784   5.883   4.877  14.324  0.4750  0.1719 -0.5978
 4765TIP3   OH235785   1.691   0.796  13.567  0.2115  0.3110  0.0219
 4765TIP3    H135786   1.708   0.839  13.484  0.6192  1.6298  0.7638
 4765TIP3    H235787   1.755   0.833  13.627  0.4068 -1.1552  0.7621
 4766TIP3   OH235788   3.187   1.047  13.940 -0.2012  0.2484  0.2213
 4766TIP3    H135789   3.231   1.126  13.970 -0.4801  0.3542  0.3626
 4766TIP3    H235790   3.152   1.008  14.020 -1.0542  0.5928  0.0270
 4767TIP3   OH235791   1.683   5.892  14.730  0.1664  0.3080 -0.1268
 4767TIP3    H135792   1.705   5.889  14.637  0.3304  0.4176 -0.0905
 4767TIP3    H235793   1.643   5.978  14.742  0.2837  0.3525 -0.0625
 4768TIP3   OH235794   5.900   4.218  14.967 -0.2669 -0.1561  0.8219
 4768TIP3    H135795   5.950   4.137  14.959  1.5453  0.9025  0.9991
 4768TIP3    H235796   5.896   4.234  15.062  0.7432  0.7616  0.7193
 4769TIP3   OH235797   3.694   0.955  12.142  1.1344 -0.1118  0.1487
 4769TIP3    H135798   3.750   0.918  12.074 -0.1373 -2.5916  0.3313
 4769TIP3    H235799   3.739   0.932  12.224  0.5189 -1.0130  0.2508
 4770TIP3   OH235800   1.519   5.963   2.479 -0.2284  0.1088 -0.3734
 4770TIP3    H135801   1.487   6.045   2.518 -1.9695 -1.3862  1.6389
 4770TIP3    H235802   1.440   5.922   2.443  0.3752 -1.2192 -0.2285
 4771TIP3   OH235803   4.051   4.687  11.903 -0.7795  0.4428 -0.2426
 4771TIP3    H135804   4.082   4.641  11.825 -0.0878  0.7743 -0.1684
 4771TIP3    H235805   3.991   4.753  11.870 -0.8166  0.3004 -0.4578
 4772TIP3   OH235806   3.806   0.365   5.180  0.2527 -0.0500 -0.1074
 4772TIP3    H135807   3.880   0.320   5.141 -0.2159 -0.3730 -0.6294
 4772TIP3    H235808   3.744   0.295   5.203 -0.6752  0.3328 -1.3249
 4773TIP3   OH235809   3.563   3.975   3.061  0.0960 -0.3782  0.4607
 4773TIP3    H135810   3.504   3.945   3.130  0.6553 -0.5917  0.8561
 4773TIP3    H235811   3.646   3.930   3.078  0.1706 -0.6441 -0.5096
 4774TIP3   OH235812   1.710   3.791   1.924 -0.1053 -0.6179  0.2222
 4774TIP3    H135813   1.630   3.844   1.928 -0.1491 -0.6101 -0.6367
 4774TIP3    H235814   1.685   3.712   1.876  0.1508 -1.0942  0.8460
 4775TIP3   OH235815   3.584   5.364   3.841  0.2927  0.3618 -0.1853
 4775TIP3    H135816   3.626   5.424   3.903  0.4816  0.7141 -0.6470
 4775TIP3    H235817   3.541   5.422   3.777  2.3766  0.1053 -1.9589
 4776TIP3   OH235818   2.752   5.238   4.770 -0.0590 -0.1758 -0.3358
 4776TIP3    H135819   2.658   5.250   4.758  0.0938  0.3539 -1.1039
 4776TIP3    H235820   2.786   5.231   4.681  0.6573 -0.1501 -0.0704
 4777TIP3   OH235821   3.725   0.442  17.107 -0.2116 -0.0344 -0.6610
 4777TIP3    H135822   3.642   0.408  17.142 -0.3199 -0.9540 -1.7366
 4777TIP3    H235823   3.759   0.370  17.054  2.4849 -0.5780  1.5995
 4778TIP3   OH235824   3.344   5.924   4.663  0.8769 -0.1649  0.2300
 4778TIP3    H135825   3.354   5.997   4.723  1.6879  1.8636 -2.2026
 4778TIP3    H235826   3.255   5.933   4.628  1.4374  0.5704 -1.0923
 4779TIP3   OH235827   1.536   1.109  14.042 -0.0357 -0.4795 -0.0437
 4779TIP3    H135828   1.548   1.105  14.136 -1.0203  0.6001  0.1444
 4779TIP3    H235829   1.616   1.071  14.006  0.6605 -0.2545  1.2178
 4780TIP3   OH235830   4.397   4.380  14.347 -0.0460 -0.8374 -0.0896
 4780TIP3    H135831   4.466   4.370  14.281  0.5069 -2.1675  0.6515
 4780TIP3    H235832   4.425   4.453  14.401  0.4718 -0.9873 -0.1546
 4781TIP3   OH235833   3.213   3.423  15.551 -0.3921 -0.1651  0.8041
 4781TIP3    H135834   3.139   3.407  15.492 -1.0662  2.6671  0.7592
 4781TIP3    H235835   3.282   3.458  15.495  0.0311 -0.2870  1.2428
 4782TIP3   OH235836   2.410   3.550   1.561  0.1004 -0.1070  0.1636
 4782TIP3    H135837   2.477   3.544   1.630 -0.1185  1.0609  0.4969
 4782TIP3    H235838   2.327   3.546   1.608 -0.0504  0.4983 -0.0466
 4783TIP3   OH235839   4.589   2.282  13.780 -0.2048 -0.3574 -0.0539
 4783TIP3    H135840   4.597   2.316  13.869  0.8124  1.4946 -0.7763
 4783TIP3    H235841   4.504   2.314  13.750 -0.4283 -0.7495  0.1600
 4784TIP3   OH235842   4.757   1.802  15.602 -0.4003  1.2212 -0.3766
 4784TIP3    H135843   4.696   1.838  15.537 -0.2932  2.6790  0.2863
 4784TIP3    H235844   4.705   1.740  15.653 -0.6123  0.4373 -1.5085
 4785TIP3   OH235845   2.451   1.916  13.165 -0.8358 -0.7223 -0.4341
 4785TIP3    H135846   2.381   1.978  13.185  0.8039  1.1844 -0.3041
 4785TIP3    H235847   2.489   1.895  13.250 -0.3794 -0.6711 -0.6245
 4786TIP3   OH235848   6.546   4.810   5.238 -0.3426 -0.4360  0.1895
 4786TIP3    H135849   6.559   4.904   5.250  0.0220 -0.4226 -0.2850
 4786TIP3    H235850   6.508   4.801   5.151  1.1661 -0.8216 -0.4772
 4787TIP3   OH235851   4.008   2.494   5.448  0.4961 -0.0266 -0.6994
 4787TIP3    H135852   4.076   2.470   5.511  1.9701  1.3177 -1.7009
 4787TIP3    H235853   3.953   2.557   5.496  2.3011  1.9221 -1.0157
 4788TIP3   OH235854   0.922   4.386  13.446 -0.2482  0.3407 -0.4176
 4788TIP3    H135855   0.946   4.309  13.497  0.4100  1.6505  1.3256
 4788TIP3    H235856   0.917   4.354  13.356  0.2025 -1.6881  0.2292
 4789TIP3   OH235857   2.972   3.814   2.676  0.3036  0.5520 -0.3417
 4789TIP3    H135858   2.990   3.806   2.770  1.1228  0.9175 -0.4626
 4789TIP3    H235859   2.918   3.737   2.655  0.9749 -0.0846  0.2175
 4790TIP3   OH235860   1.866   0.027   4.098 -0.1113  0.2850  0.2718
 4790TIP3    H135861   1.880  -0.067   4.094 -0.8615  0.1726  0.3298
 4790TIP3    H235862   1.791   0.038   4.156 -1.0997  0.8238 -1.0661
 4791TIP3   OH235863   6.675   0.441  16.814  0.1363  0.3184  0.5113
 4791TIP3    H135864   6.691   0.534  16.798 -2.7859  0.9822  0.8313
 4791TIP3    H235865   6.686   0.431  16.909 -1.5698  0.9029  0.8196
 4792TIP3   OH235866   3.584   2.816  15.905 -0.1868 -0.6108 -0.1588
 4792TIP3    H135867   3.557   2.724  15.906 -1.3273 -0.3175  1.8228
 4792TIP3    H235868   3.521   2.860  15.847 -1.5581 -0.6148  1.2675
 4793TIP3   OH235869   1.547   5.235  10.873  0.4439  0.1215  0.4412
 4793TIP3    H135870   1.547   5.274  10.961  2.1894 -0.9370  0.9563
 4793TIP3    H235871   1.558   5.310  10.814 -0.4897  0.8234  1.1321
 4794TIP3   OH235872   3.250   5.636   3.405 -0.0644  0.1386 -0.3657
 4794TIP3    H135873   3.223   5.712   3.457 -0.3919 -0.8217  0.9120
 4794TIP3    H235874   3.331   5.663   3.363 -1.5320  2.1456 -2.1275
 4795TIP3   OH235875   4.235   3.842  12.347 -0.3065 -0.3509 -0.2029
 4795TIP3    H135876   4.148   3.877  12.328  0.2050 -0.1670 -2.5131
 4795TIP3    H235877   4.296   3.905  12.308  0.9299 -0.2130  1.8046
 4796TIP3   OH235878   6.038   2.114   4.876 -0.0409 -0.2578 -0.4989
 4796TIP3    H135879   5.992   2.049   4.929 -0.7642  0.9583  0.4260
 4796TIP3    H235880   6.070   2.065   4.800 -0.4684 -1.6980  0.2086
 4797TIP3   OH235881   0.515   1.727  16.421  0.3633  0.0269 -0.4212
 4797TIP3    H135882   0.523   1.790  16.348  0.2114  0.0986 -0.3757
 4797TIP3    H235883   0.468   1.775  16.489  1.1577  0.2054  0.0114
 4798TIP3   OH235884   3.128   6.168   2.120 -0.3732  0.2064  0.2990
 4798TIP3    H135885   3.055   6.214   2.162 -0.6114 -0.6428  0.8362
 4798TIP3    H235886   3.134   6.085   2.167  1.3386  0.5029  0.7034
 4799TIP3   OH235887   4.456   5.134  14.022  0.6309  0.6971 -0.1570
 4799TIP3    H135888   4.510   5.198  14.069  3.3539 -0.6570 -1.1738
 4799TIP3    H235889   4.463   5.054  14.074 -1.5105  0.7830  0.3258
 4800TIP3   OH235890   1.450   0.723  11.721 -0.3409 -0.2039 -0.0181
 4800TIP3    H135891   1.514   0.734  11.791 -0.4722  0.5712 -0.0076
 4800TIP3    H235892   1.461   0.633  11.692  0.5378 -0.1689  0.1904
 4801TIP3   OH235893   4.764   5.691   3.965 -0.2649  0.0178  0.3137
 4801TIP3    H135894   4.822   5.701   4.041 -1.0532 -2.1379  1.2866
 4801TIP3    H235895   4.684   5.737   3.990 -0.5408 -0.7276  0.8413
 4802TIP3   OH235896   4.797   1.676   2.808 -0.2031 -0.2040  0.0633
 4802TIP3    H135897   4.830   1.590   2.785  1.8809  0.0384  1.9081
 4802TIP3    H235898   4.835   1.735   2.743 -1.1076 -0.5407 -0.8035
 4803TIP3   OH235899   0.916   4.635   4.843  0.0581 -0.0075  0.3555
 4803TIP3    H135900   0.995   4.585   4.826 -0.9833 -1.3849 -0.6774
 4803TIP3    H235901   0.844   4.573   4.829 -1.2388  1.3256  0.7418
 4804TIP3   OH235902   1.728   0.048  16.039 -0.2105 -0.5760 -0.0862
 4804TIP3    H135903   1.677   0.087  15.968 -0.4279  1.7183  1.2298
 4804TIP3    H235904   1.693   0.088  16.119  0.8292 -2.1563  1.2255
 4805TIP3   OH235905   2.259   0.127  11.315  0.0440 -0.2233 -0.1718
 4805TIP3    H135906   2.327   0.167  11.369 -0.3644  0.2674 -0.0220
 4805TIP3    H235907   2.305   0.097  11.236  0.4710 -0.1046  0.0315
 4806TIP3   OH235908   5.290   4.442   4.920 -0.4395  0.1095 -0.4061
 4806TIP3    H135909   5.290   4.350   4.944  1.1356  0.0852 -0.4107
 4806TIP3    H235910   5.227   4.483   4.980  0.6295 -0.5689  1.2446
 4807TIP3   OH235911   0.383   4.749   4.362 -0.1185  0.1638  0.3906
 4807TIP3    H135912   0.454   4.747   4.426  0.7636  2.2938 -0.4297
 4807TIP3    H235913   0.427   4.752   4.277 -1.1337  2.0514 -0.1210
 4808TIP3   OH235914   4.406   2.590  14.267 -0.0066  0.1188 -0.0843
 4808TIP3    H135915   4.403   2.630  14.180  0.7821  1.9823  0.7038
 4808TIP3    H235916   4.314   2.578  14.291 -0.2616 -1.9635 -1.7908
 4809TIP3   OH235917   3.339   0.723  17.024  0.0962 -0.0476  0.4689
 4809TIP3    H135918   3.340   0.714  17.119  2.4633 -1.3966  0.3693
 4809TIP3    H235919   3.422   0.686  16.994  0.2878  2.0308 -1.9887
 4810TIP3   OH235920   4.081   1.657   3.162 -0.1445  0.5314 -0.7348
 4810TIP3    H135921   4.162   1.612   3.185  0.1633  0.9831 -0.9184
 4810TIP3    H235922   4.068   1.638   3.069  0.5926  1.7331 -1.1018
 4811TIP3   OH235923   5.537   3.342   2.740 -0.7055 -0.3863 -0.0773
 4811TIP3    H135924   5.626   3.378   2.739 -0.1507 -1.7030  0.2215
 4811TIP3    H235925   5.493   3.390   2.810 -0.2144  0.2327 -0.1845
 4812TIP3   OH235926   2.774   0.596   3.231 -0.3695  0.5216  0.4057
 4812TIP3    H135927   2.717   0.529   3.269 -1.1705  0.9674  0.0136
 4812TIP3    H235928   2.718   0.672   3.219 -0.1212  0.4559 -1.5115
 4813TIP3   OH235929   4.692   4.588  14.812 -0.3855 -0.0658  0.2205
 4813TIP3    H135930   4.777   4.633  14.810 -0.6018  0.3752  0.7374
 4813TIP3    H235931   4.676   4.571  14.905 -0.4232 -1.0122  0.0565
 4814TIP3   OH235932   3.928   4.840   5.931 -0.2173 -0.5357  0.1417
 4814TIP3    H135933   4.010   4.888   5.918 -0.9237  0.7797  0.3509
 4814TIP3    H235934   3.917   4.839   6.026 -0.9397  0.2063  0.0783
 4815TIP3   OH235935   2.432   4.438  12.238  0.2348  0.4143  0.1419
 4815TIP3    H135936   2.500   4.503  12.223  0.4729  0.0527 -0.3702
 4815TIP3    H235937   2.366   4.457  12.172  0.5495 -0.1924 -0.3516
 4816TIP3   OH235938   4.835   6.296  15.216  0.2688  0.2634 -0.1470
 4816TIP3    H135939   4.840   6.389  15.237 -1.3713  0.1490  1.0157
 4816TIP3    H235940   4.741   6.277  15.214  0.5395 -1.1796 -1.3227
 4817TIP3   OH235941   2.438   0.959  13.445  0.7925 -0.2039  0.3878
 4817TIP3    H135942   2.510   0.964  13.381  1.8120 -0.0025  1.5169
 4817TIP3    H235943   2.372   0.904  13.403  0.5321  1.5388 -1.6950
 4818TIP3   OH235944   0.243   4.101   0.298 -0.4991  0.1912 -0.1660
 4818TIP3    H135945   0.201   4.156   0.232 -0.0702  0.6872 -0.0373
 4818TIP3    H235946   0.188   4.023   0.305  0.7609 -1.0794 -2.9534
 4819TIP3   OH235947   6.701   0.890   2.344  0.2438 -0.1906  0.2833
 4819TIP3    H135948   6.753   0.955   2.297 -1.2145  0.5201 -0.4089
 4819TIP3    H235949   6.614   0.930   2.353 -0.5444 -1.8079  0.3169
 4820TIP3   OH235950   0.040   6.441  15.024 -0.1710 -0.0829 -0.1597
 4820TIP3    H135951  -0.032   6.502  15.039 -0.1612 -0.1630  0.2150
 4820TIP3    H235952   0.064   6.410  15.111  0.9694  0.6833 -0.1775
 4821TIP3   OH235953   6.266   1.274   0.912 -0.0955  0.1538  0.1958
 4821TIP3    H135954   6.353   1.245   0.939  0.1046  0.2926 -0.2954
 4821TIP3    H235955   6.251   1.355   0.962 -0.2062 -0.2035  0.7515
 4822TIP3   OH235956   0.462   3.704  15.121  0.0462 -0.1737 -0.4262
 4822TIP3    H135957   0.378   3.722  15.162  0.1008 -1.7939  0.4737
 4822TIP3    H235958   0.520   3.773  15.153 -0.4233 -0.2685  0.6570
 4823TIP3   OH235959   5.752   1.178   5.388 -0.2541  0.0766  0.4054
 4823TIP3    H135960   5.769   1.257   5.336 -1.5113  0.5173  0.6309
 4823TIP3    H235961   5.681   1.203   5.448 -0.0320 -0.9493  1.1222
 4824TIP3   OH235962   3.277   3.843  11.315 -0.5178  0.0705 -0.4504
 4824TIP3    H135963   3.372   3.841  11.309 -0.3670 -0.4318  1.5261
 4824TIP3    H235964   3.256   3.933  11.339 -0.6827  0.5368 -2.1953
 4825TIP3   OH235965   3.276   3.107   2.254 -0.2775 -0.2520 -0.1485
 4825TIP3    H135966   3.279   3.138   2.345 -0.6184  1.5029 -0.6944
 4825TIP3    H235967   3.186   3.124   2.226 -0.3755 -1.4645 -0.5998
 4826TIP3   OH235968   3.947   5.652   5.982  0.2894 -0.4918  0.6500
 4826TIP3    H135969   3.914   5.728   5.933  0.5683  0.2315  1.5402
 4826TIP3    H235970   3.997   5.602   5.918 -0.3080 -0.1792 -0.0719
 4827TIP3   OH235971   2.551   6.095  13.885 -0.4821  0.6836 -0.3628
 4827TIP3    H135972   2.591   6.071  13.968 -1.5552 -0.5338 -0.1571
 4827TIP3    H235973   2.528   6.187  13.894 -1.5829  0.2977  1.1391
 4828TIP3   OH235974   3.508   4.822  11.152 -0.0932  0.4893 -0.3489
 4828TIP3    H135975   3.443   4.882  11.188 -0.2620 -0.2055  0.5546
 4828TIP3    H235976   3.526   4.855  11.064 -0.4837  1.6084 -0.0202
 4829TIP3   OH235977   4.496   5.209   0.267  0.3492 -0.0527  0.5956
 4829TIP3    H135978   4.583   5.239   0.239 -1.0066  2.1209 -1.6518
 4829TIP3    H235979   4.486   5.124   0.224  0.4050  0.8627 -1.3432
 4830TIP3   OH235980   6.249   4.378  10.969 -0.0055 -0.2752  0.1720
 4830TIP3    H135981   6.178   4.426  10.928  0.5361 -0.2073 -0.7045
 4830TIP3    H235982   6.240   4.396  11.063 -1.9682 -1.3687  0.2481
 4831TIP3   OH235983   4.860   6.345  12.637  0.5824  0.3612 -0.1535
 4831TIP3    H135984   4.816   6.374  12.557 -2.9763 -6.0270 -1.1669
 4831TIP3    H235985   4.946   6.314  12.607  0.5505  0.8423 -0.7836
 4832TIP3   OH235986   0.263   0.627   3.746 -0.1692 -0.1070 -0.2952
 4832TIP3    H135987   0.296   0.586   3.667 -0.9942 -0.9839 -0.1958
 4832TIP3    H235988   0.192   0.570   3.776 -1.8093  1.7060 -0.5188
 4833TIP3   OH235989   0.398   4.507   4.175  0.1690 -0.1004 -0.2409
 4833TIP3    H135990   0.414   4.593   4.136 -2.6912  1.6465  1.9481
 4833TIP3    H235991   0.467   4.496   4.240 -0.5340  1.5927  0.8588
 4834TIP3   OH235992   6.617   2.061   1.753 -0.1205 -0.2738  0.2631
 4834TIP3    H135993   6.644   2.062   1.661 -1.0066  2.4435 -0.0314
 4834TIP3    H235994   6.530   2.022   1.752  0.7682 -2.4012  0.3151
 4835TIP3   OH235995   0.381   4.745  11.174  0.1073  0.1466  0.3528
 4835TIP3    H135996   0.415   4.691  11.102 -1.0503  0.0066 -0.1077
 4835TIP3    H235997   0.371   4.683  11.247 -1.4122 -0.3505 -0.2350
 4836TIP3   OH235998   1.295   0.009   4.181 -0.1339 -0.0145  0.0567
 4836TIP3    H135999   1.335  -0.077   4.195  2.1472  0.5125 -2.3532
 4836TIP3    H236000   1.355   0.070   4.224 -0.9980  0.4864  0.5697
 4837TIP3   OH236001   1.667   4.763   5.870  0.0596  0.9910 -0.4221
 4837TIP3    H136002   1.614   4.734   5.944  0.4016  0.3005 -0.4414
 4837TIP3    H236003   1.686   4.682   5.821  0.1037  1.3948 -1.0839
 4838TIP3   OH236004   3.626   3.138  11.970 -0.5218 -0.4403 -0.6855
 4838TIP3    H136005   3.556   3.190  12.009  0.7914  1.3425 -0.5541
 4838TIP3    H236006   3.618   3.154  11.876  0.8283  1.3759 -0.5460
 4839TIP3   OH236007   3.894   1.371   1.924 -0.0615  0.3983 -0.0637
 4839TIP3    H136008   3.915   1.284   1.959 -1.8058 -0.7218 -1.5834
 4839TIP3    H236009   3.951   1.431   1.973 -0.5880 -1.2780  2.8861
 4840TIP3   OH236010   1.005   1.981  16.387  0.1655  0.0979 -0.0613
 4840TIP3    H136011   1.055   2.034  16.325  1.6238  0.1020  1.0568
 4840TIP3    H236012   0.992   2.039  16.462  0.2922 -0.5787  0.4910
 4841TIP3   OH236013   1.436   3.407   2.849  0.5677 -0.4725 -0.5605
 4841TIP3    H136014   1.404   3.492   2.820  1.5370 -0.4519 -1.6440
 4841TIP3    H236015   1.397   3.344   2.788  0.2933 -0.7534 -0.1024
 4842TIP3   OH236016   1.868   1.361   0.892  0.1669  0.4627 -0.2443
 4842TIP3    H136017   1.837   1.353   0.982 -1.3035  1.0367 -0.6554
 4842TIP3    H236018   1.957   1.395   0.899  0.1312  0.3293  0.9951
 4843TIP3   OH236019   5.011   4.761   2.004 -0.1733  0.0787 -0.3391
 4843TIP3    H136020   4.952   4.740   1.933 -1.1687 -1.0182  0.7690
 4843TIP3    H236021   4.954   4.779   2.079  0.8424  1.0267  0.2497
 4844TIP3   OH236022   0.941   2.327  12.190  0.9359  0.5999 -0.6380
 4844TIP3    H136023   0.904   2.265  12.253 -0.4261  0.3827 -1.6031
 4844TIP3    H236024   1.001   2.380  12.242 -2.0089  2.1404  1.5174
 4845TIP3   OH236025   1.327   1.267   1.507  0.1132  0.0900  0.2519
 4845TIP3    H136026   1.253   1.308   1.551  0.3624  1.4057 -0.4882
 4845TIP3    H236027   1.352   1.195   1.564 -1.0439  0.2964  1.0585
 4846TIP3   OH236028   5.742   4.489  16.505 -0.0205 -0.3863 -0.0036
 4846TIP3    H136029   5.757   4.554  16.437 -1.4867 -1.2144 -1.1742
 4846TIP3    H236030   5.657   4.512  16.543  0.6358 -0.1151  1.3815
 4847TIP3   OH236031   1.615   0.473  15.772 -0.4829 -0.2644  0.3122
 4847TIP3    H136032   1.654   0.549  15.730 -1.5949 -0.8409 -1.9173
 4847TIP3    H236033   1.530   0.504  15.803 -1.4930 -0.7918 -1.7148
 4848TIP3   OH236034   3.155   3.068   4.378 -0.0081 -0.3302 -0.2421
 4848TIP3    H136035   3.083   3.075   4.441 -0.9300  1.3648 -1.3917
 4848TIP3    H236036   3.112   3.055   4.294  1.1074 -0.7357 -0.7712
 4849TIP3   OH236037   0.574   1.494  16.584 -0.3184  0.6162  0.5125
 4849TIP3    H136038   0.485   1.496  16.619 -0.5646 -0.0911 -0.0539
 4849TIP3    H236039   0.582   1.575  16.534 -1.1375  0.0299 -0.6039
 4850TIP3   OH236040   2.863   6.617   2.228 -0.4595  0.5933 -0.3533
 4850TIP3    H136041   2.894   6.606   2.318  0.2829  2.3205 -0.3590
 4850TIP3    H236042   2.923   6.563   2.176  0.5815  1.4052 -0.0256
 4851TIP3   OH236043   6.226   3.155   1.836 -0.3052  0.4794  0.3586
 4851TIP3    H136044   6.157   3.141   1.771 -0.5519 -0.0891  0.7307
 4851TIP3    H236045   6.307   3.127   1.793  0.0441  3.0314 -0.8018
 4852TIP3   OH236046   3.579   6.529  11.097  0.0001  0.5389  0.2511
 4852TIP3    H136047   3.572   6.534  11.002  1.1003  1.9564  0.2047
 4852TIP3    H236048   3.638   6.601  11.120  1.7643 -1.2662  1.7804
 4853TIP3   OH236049   4.637   5.571   4.483 -0.0855  0.2208  0.5816
 4853TIP3    H136050   4.575   5.570   4.555  0.0652  0.0778  0.7100
 4853TIP3    H236051   4.714   5.524   4.516  0.1078  0.4307  0.4394
 4854TIP3   OH236052   2.352   0.620  13.031  0.2191  0.3747 -0.4722
 4854TIP3    H136053   2.262   0.608  13.003  0.5422 -0.6956 -1.1354
 4854TIP3    H236054   2.404   0.583  12.959  1.2720  3.1165 -1.2223
 4855TIP3   OH236055   5.817   6.425   5.190 -0.1601 -0.3346 -0.1558
 4855TIP3    H136056   5.873   6.446   5.116  1.7785 -1.7236  0.8237
 4855TIP3    H236057   5.769   6.506   5.208  1.3754  0.8642 -1.1733
 4856TIP3   OH236058   4.702   1.064   4.369  0.1205 -0.0982 -0.2856
 4856TIP3    H136059   4.658   1.101   4.293 -2.7296  0.7733  1.6354
 4856TIP3    H236060   4.795   1.073   4.349 -0.4298 -0.9967 -4.1087
 4857TIP3   OH236061   4.261   6.207  11.238 -0.1708 -0.1958 -0.0208
 4857TIP3    H136062   4.319   6.283  11.243  0.0705 -0.4452  1.4703
 4857TIP3    H236063   4.285   6.164  11.156  1.0820  0.2456  0.0842
 4858TIP3   OH236064   4.956   1.873   3.762 -0.6789 -0.5067  0.4862
 4858TIP3    H136065   5.007   1.921   3.828  0.2219 -1.9923  0.9215
 4858TIP3    H236066   4.894   1.821   3.813  0.8368 -2.6124  0.3272
 4859TIP3   OH236067   3.237   4.494   1.899 -0.3120  0.3848 -0.1296
 4859TIP3    H136068   3.286   4.412   1.906 -1.1785 -0.1778 -0.4051
 4859TIP3    H236069   3.257   4.541   1.980  1.2472  0.5155 -0.5677
 4860TIP3   OH236070   4.723   3.637  14.010  0.2795 -0.2375 -1.0228
 4860TIP3    H136071   4.817   3.617  14.020  0.3913  0.5515 -0.4595
 4860TIP3    H236072   4.717   3.731  14.022 -0.4689 -0.1397 -2.0453
 4861TIP3   OH236073   0.676   0.436   5.236  0.0003  0.0002 -0.6721
 4861TIP3    H136074   0.631   0.464   5.316 -0.1674 -1.5676 -0.1707
 4861TIP3    H236075   0.758   0.486   5.235 -1.6930  2.9452 -1.6371
 4862TIP3   OH236076   5.406   4.310  16.294 -0.3458 -0.0156 -0.2540
 4862TIP3    H136077   5.386   4.387  16.348 -0.5383 -1.4017  1.7315
 4862TIP3    H236078   5.341   4.245  16.320 -0.1351 -0.9087 -1.8462
 4863TIP3   OH236079   3.446   0.303  15.019  0.8886  0.1555  0.2279
 4863TIP3    H136080   3.531   0.282  14.980 -0.0442 -0.7056 -1.4168
 4863TIP3    H236081   3.456   0.280  15.111  2.6685  0.7639  0.2165
 4864TIP3   OH236082   6.288   2.696  13.901  0.5258  0.2350  0.7344
 4864TIP3    H136083   6.305   2.760  13.970 -0.9242  1.5090 -0.0330
 4864TIP3    H236084   6.193   2.700  13.888  0.7449 -0.1577 -1.1756
 4865TIP3   OH236085   4.866   0.931   1.553 -0.4661  0.1412 -0.1302
 4865TIP3    H136086   4.862   0.849   1.601  0.1961 -0.3328 -0.8577
 4865TIP3    H236087   4.806   0.989   1.599 -0.9916 -0.7691  0.3555
 4866TIP3   OH236088   2.178   4.995  13.976  0.1436 -0.3004 -0.3346
 4866TIP3    H136089   2.133   5.047  13.909 -0.7300  1.6136  1.6251
 4866TIP3    H236090   2.267   4.983  13.941 -0.9092 -1.5659 -2.9134
 4867TIP3   OH236091   3.388   5.777   0.557 -0.3863 -0.4034  0.0492
 4867TIP3    H136092   3.444   5.835   0.505 -2.1029  1.3934  0.0746
 4867TIP3    H236093   3.449   5.715   0.598  1.4775  0.9406 -0.5578
 4868TIP3   OH236094   3.685   4.795   3.907  0.6183 -0.8482  0.0218
 4868TIP3    H136095   3.713   4.789   3.999  0.4215 -1.0281  0.0701
 4868TIP3    H236096   3.638   4.878   3.902  1.3208 -0.4455 -0.1042
 4869TIP3   OH236097   6.590   3.524  11.586  0.0826 -0.1424 -0.5675
 4869TIP3    H136098   6.644   3.585  11.636  0.3210 -0.3664 -0.5512
 4869TIP3    H236099   6.643   3.445  11.579 -0.2425 -0.3610 -0.5550
 4870TIP3   OH236100   1.495   1.771   3.355 -0.4965 -0.5868  0.5459
 4870TIP3    H136101   1.416   1.800   3.401  0.1169 -1.3302  2.1589
 4870TIP3    H236102   1.485   1.676   3.349 -1.5532 -0.4093 -2.8729
 4871TIP3   OH236103   5.344   3.996   4.503 -0.8294  0.4591  0.0605
 4871TIP3    H136104   5.251   3.985   4.522 -0.8383  1.3236  0.5446
 4871TIP3    H236105   5.352   3.971   4.411 -1.4630 -0.0036  0.1181
 4872TIP3   OH236106   0.701   4.615   5.858  0.3596  0.1251 -0.4080
 4872TIP3    H136107   0.662   4.529   5.874  0.4908  0.1913  0.2568
 4872TIP3    H236108   0.629   4.667   5.819 -0.6963  0.6847  2.0938
 4873TIP3   OH236109   4.442   3.493   2.877 -0.5741 -0.0957  0.1164
 4873TIP3    H136110   4.529   3.456   2.864 -1.2218 -1.3561 -0.9722
 4873TIP3    H236111   4.445   3.578   2.833  0.6791  0.8042  1.8605
 4874TIP3   OH236112   4.327   5.452   0.876 -0.0333  0.0990  0.7179
 4874TIP3    H136113   4.330   5.357   0.884  1.4572 -0.0797 -1.2306
 4874TIP3    H236114   4.414   5.482   0.903  0.7224  0.5357 -1.9437
 4875TIP3   OH236115   3.751   6.450  12.311 -0.7663  0.2631  0.3453
 4875TIP3    H136116   3.784   6.397  12.238 -1.4562 -0.7183  0.7280
 4875TIP3    H236117   3.810   6.525  12.314 -0.3819  0.0396 -0.8649
 4876TIP3   OH236118   6.019   6.776  16.299  0.2486 -0.1157 -0.2358
 4876TIP3    H136119   6.044   6.701  16.352  0.1381  0.0345  0.0283
 4876TIP3    H236120   5.951   6.821  16.350  0.8373  0.5777 -0.0498
 4877TIP3   OH236121   3.027   0.582  12.379  0.6563  0.5221  0.6176
 4877TIP3    H136122   3.080   0.656  12.347  0.2525  1.1076  1.2628
 4877TIP3    H236123   3.052   0.574  12.471  0.3954  0.1149  0.6534
 4878TIP3   OH236124   6.755   3.390   1.070  0.4170 -0.9619 -0.0576
 4878TIP3    H136125   6.803   3.462   1.028 -0.2616 -0.0445  0.7048
 4878TIP3    H236126   6.669   3.427   1.090 -0.0406 -2.0763  0.1153
 4879TIP3   OH236127   0.543   4.087   5.128 -0.2589 -0.3271 -0.1360
 4879TIP3    H136128   0.480   4.070   5.058  1.7229 -2.0833 -1.6175
 4879TIP3    H236129   0.527   4.019   5.193 -1.1426  0.4404  0.4892
 4880TIP3   OH236130   5.085   2.418   1.234  0.3687  0.5086 -0.2546
 4880TIP3    H136131   5.175   2.443   1.255  0.7117  0.6057 -1.7036
 4880TIP3    H236132   5.092   2.328   1.203  0.1593  0.8964 -1.4798
 4881TIP3   OH236133   6.652   6.049   0.671  0.9472 -0.4128 -0.1189
 4881TIP3    H136134   6.717   6.014   0.611  1.0823  0.8777 -0.7456
 4881TIP3    H236135   6.646   6.141   0.649 -0.2860 -0.2835  0.6876
 4882TIP3   OH236136   3.280   4.096   3.946  0.2721  0.0462 -0.5592
 4882TIP3    H136137   3.296   4.184   3.911 -1.0958 -0.0685 -1.5788
 4882TIP3    H236138   3.366   4.056   3.951  0.9131  1.4347 -0.0970
 4883TIP3   OH236139   3.268   4.183   0.531 -0.1455  0.1226 -0.2219
 4883TIP3    H136140   3.212   4.224   0.465 -0.5248 -1.3203 -0.8270
 4883TIP3    H236141   3.332   4.250   0.554 -1.2368  1.3167 -0.5787
 4884TIP3   OH236142   5.577   6.638   0.308 -0.3878  0.2161 -0.7035
 4884TIP3    H136143   5.547   6.729   0.303 -1.3871 -0.1317 -1.2115
 4884TIP3    H236144   5.541   6.596   0.229 -0.0638 -0.6571 -0.3987
 4885TIP3   OH236145   0.334   4.368   2.402 -0.2202 -0.0715  0.2396
 4885TIP3    H136146   0.265   4.411   2.352  0.8863  0.9660 -0.4478
 4885TIP3    H236147   0.390   4.328   2.336 -0.5013 -1.4584  0.8209
 4886TIP3   OH236148   3.468   3.524  11.660 -0.0313 -0.5879  0.1157
 4886TIP3    H136149   3.483   3.595  11.598 -1.4424 -1.4077 -1.2135
 4886TIP3    H236150   3.475   3.567  11.746  0.8347  0.7928 -0.6008
 4887TIP3   OH236151   5.440   6.789  14.805 -0.6539  0.2011  0.4176
 4887TIP3    H136152   5.368   6.850  14.816 -2.8485 -2.1822  0.1864
 4887TIP3    H236153   5.415   6.735  14.729  0.8596 -1.3552  0.9481
 4888TIP3   OH236154   3.155   6.001  13.727 -0.0049  0.3417 -0.0499
 4888TIP3    H136155   3.228   6.059  13.748 -0.2904  0.5181  0.4695
 4888TIP3    H236156   3.105   6.048  13.660  1.3113 -0.5364 -1.7558
 4889TIP3   OH236157   4.243   3.204   0.346  0.0524 -0.5925  0.6874
 4889TIP3    H136158   4.153   3.223   0.373 -0.6679 -1.3732 -1.0260
 4889TIP3    H236159   4.237   3.120   0.301  1.4316 -0.0987 -0.4938
 4890TIP3   OH236160   1.048   0.690   3.405 -0.1023 -0.7315  0.5180
 4890TIP3    H136161   1.131   0.663   3.367  1.2997  1.5262  1.7598
 4890TIP3    H236162   1.052   0.663   3.496 -0.6680 -0.4706  0.6293
 4891TIP3   OH236163   3.822   6.311  12.080 -0.2968 -0.6891  0.2472
 4891TIP3    H136164   3.782   6.226  12.060 -0.5517 -0.3348 -0.8839
 4891TIP3    H236165   3.890   6.321  12.014  2.6273 -1.8179  2.8636
 4892TIP3   OH236166   6.260   1.695  10.928 -0.3605 -0.1024  0.2253
 4892TIP3    H136167   6.176   1.719  10.889  0.0409 -2.2363 -2.2543
 4892TIP3    H236168   6.314   1.774  10.919 -1.7350  0.9639  0.9324
 4893TIP3   OH236169   3.279   0.205   1.145  0.4469  0.4615 -0.1042
 4893TIP3    H136170   3.366   0.196   1.106 -0.6270 -0.7120 -2.3873
 4893TIP3    H236171   3.286   0.156   1.227  1.5170 -1.0487 -1.0319
 4894TIP3   OH236172   3.068   0.174   3.436 -0.0895 -0.1944  0.1398
 4894TIP3    H136173   3.111   0.100   3.479 -1.6148 -0.7265  0.8239
 4894TIP3    H236174   2.991   0.136   3.393 -1.4875  1.0936  1.3667
 4895TIP3   OH236175   3.432   3.747  10.594  0.2582 -0.3046 -0.4596
 4895TIP3    H136176   3.337   3.744  10.607  0.2131 -2.0415 -0.9370
 4895TIP3    H236177   3.454   3.840  10.603 -1.4835  0.1487 -0.3849
 4896TIP3   OH236178   5.680   6.771  13.727  0.0566 -0.7421 -0.0492
 4896TIP3    H136179   5.762   6.815  13.705  0.3755 -0.8919  0.7944
 4896TIP3    H236180   5.701   6.678  13.727 -0.2557 -0.8158 -0.3848
 4897TIP3   OH236181   3.802   3.284   2.136  0.4798  0.1941 -0.4058
 4897TIP3    H136182   3.817   3.378   2.145  0.4615  0.3760 -1.9815
 4897TIP3    H236183   3.719   3.269   2.181  1.5293  0.5082  1.7736
 4898TIP3   OH236184   1.329   4.902   3.624  0.2121 -0.2463  0.2029
 4898TIP3    H136185   1.343   4.996   3.612  1.4869 -0.3139  0.9480
 4898TIP3    H236186   1.246   4.896   3.672  0.9271  0.6259  1.6393
 4899TIP3   OH236187   3.418   3.527   3.484  0.1811  0.1198 -0.7154
 4899TIP3    H136188   3.346   3.504   3.425 -0.6278 -0.6274  0.5252
 4899TIP3    H236189   3.378   3.582   3.551  0.8141 -0.1049 -0.1450
 4900TIP3   OH236190   6.350   0.585  16.604 -0.0083  0.4542 -0.4941
 4900TIP3    H136191   6.298   0.632  16.669 -1.2149  0.3580 -1.3569
 4900TIP3    H236192   6.304   0.502  16.592  0.1436  0.5030 -1.5197
 4901TIP3   OH236193   0.081   6.204   6.546  1.0307  0.3260  0.1771
 4901TIP3    H136194   0.095   6.111   6.564 -0.0354  0.5061  2.1333
 4901TIP3    H236195   0.164   6.234   6.508  2.1809 -0.9165  1.6190
 4902TIP3   OH236196   5.037   0.032  11.191 -0.1932  0.6750 -0.0900
 4902TIP3    H136197   5.110  -0.027  11.211  0.3938  1.4555  0.1178
 4902TIP3    H236198   5.038   0.038  11.095 -0.3003  0.3057 -0.1181
 4903TIP3   OH236199   5.053   5.405   6.425  0.1614  0.5532  0.3574
 4903TIP3    H136200   4.967   5.371   6.401 -0.0253  0.4557  1.1407
 4903TIP3    H236201   5.109   5.328   6.433  0.1171  0.5473  0.6337
 4904TIP3   OH236202   3.084   5.721   2.400 -0.1903  0.4027 -0.2626
 4904TIP3    H136203   3.059   5.680   2.483  0.1899 -0.6470 -0.6448
 4904TIP3    H236204   3.003   5.722   2.348 -0.5875  1.6779  0.3491
 4905TIP3   OH236205   4.160   2.827  11.602 -0.2845  0.5469 -0.1799
 4905TIP3    H136206   4.203   2.906  11.568 -1.1261  1.0874 -0.0151
 4905TIP3    H236207   4.152   2.842  11.696  0.3483 -0.1344 -0.0042
 4906TIP3   OH236208   1.717   0.860   0.096 -0.1388 -0.1661  0.0981
 4906TIP3    H136209   1.782   0.915   0.053 -0.0858 -1.2190 -1.2187
 4906TIP3    H236210   1.666   0.822   0.024 -2.5177  0.9683  1.0865
 4907TIP3   OH236211   2.141   2.435  16.041  0.2437  0.2197 -0.2600
 4907TIP3    H136212   2.132   2.530  16.050  0.1972 -0.0310  3.7397
 4907TIP3    H236213   2.217   2.412  16.093  0.7463 -1.9385 -1.7696
 4908TIP3   OH236214   6.542   2.923  11.417 -0.4791 -0.4803 -0.0927
 4908TIP3    H136215   6.590   2.940  11.498 -1.0269  1.0103 -0.0654
 4908TIP3    H236216   6.487   2.847  11.438  0.6510 -1.2081  0.3627
 4909TIP3   OH236217   1.735   6.385  10.637  0.2627 -0.1141  0.2986
 4909TIP3    H136218   1.818   6.337  10.638  1.3213  1.4057 -2.5908
 4909TIP3    H236219   1.680   6.337  10.575  0.6251  1.1871 -1.1019
 4910TIP3   OH236220   3.071   5.037  11.256 -0.3237 -0.7443 -0.2822
 4910TIP3    H136221   3.071   5.086  11.174  1.3512 -0.9746 -0.4556
 4910TIP3    H236222   3.159   5.001  11.262 -1.0541 -2.5051  0.5722
 4911TIP3   OH236223   4.022   6.215   4.732  0.4463  0.0612 -0.2655
 4911TIP3    H136224   3.968   6.292   4.748 -1.2614 -0.8536 -1.3043
 4911TIP3    H236225   4.099   6.227   4.787 -0.6316  1.6121  0.9773
 4912TIP3   OH236226   3.696   0.307   6.318  0.0909 -0.1322  0.3053
 4912TIP3    H136227   3.714   0.389   6.271 -1.9742 -0.0909 -0.4727
 4912TIP3    H236228   3.695   0.333   6.410  2.2430  0.1396  0.3170
 4913TIP3   OH236229   5.040   3.006  12.959  0.4289 -0.7559 -0.4140
 4913TIP3    H136230   5.121   2.965  12.930  0.3588 -1.2902  0.1316
 4913TIP3    H236231   5.057   3.100  12.952  0.7577 -0.8704 -1.2102
 4914TIP3   OH236232   2.540   0.772  11.134 -0.6573 -0.1059 -0.3887
 4914TIP3    H136233   2.621   0.739  11.094  0.3417  1.0283  0.5944
 4914TIP3    H236234   2.476   0.773  11.063  0.8063  1.0340 -1.7783
 4915TIP3   OH236235   3.702   3.897  15.490  0.1202  0.3295  0.8748
 4915TIP3    H136236   3.788   3.904  15.449  0.8025  0.6099  2.2925
 4915TIP3    H236237   3.640   3.901  15.417  1.2573  1.3667 -0.0699
 4916TIP3   OH236238   4.108   5.903   3.935 -0.1887  0.4053 -0.7289
 4916TIP3    H136239   4.113   5.935   4.025 -1.7968 -2.8093  0.6584
 4916TIP3    H236240   4.148   5.817   3.937 -1.4699 -0.3182 -2.7785
 4917TIP3   OH236241   1.484   2.951   5.423 -0.2890 -0.0630  0.3929
 4917TIP3    H136242   1.534   2.921   5.347  0.4440  0.6162  0.5925
 4917TIP3    H236243   1.467   2.872   5.473  0.7943 -0.2907  0.4298
 4918TIP3   OH236244   2.210   0.100   2.485 -0.0465  0.6133 -0.1197
 4918TIP3    H136245   2.247   0.078   2.571  0.5883 -2.6772 -1.0959
 4918TIP3    H236246   2.258   0.044   2.423 -1.2304  2.0746 -2.5169
 4919TIP3   OH236247   3.607   2.864   4.107 -0.0743 -0.0171 -0.2616
 4919TIP3    H136248   3.637   2.898   4.023 -0.8878  0.0180 -0.5434
 4919TIP3    H236249   3.611   2.939   4.166  1.1342 -0.1913 -0.0746
 4920TIP3   OH236250   4.930   3.650  15.100  0.7948 -0.0914 -0.3080
 4920TIP3    H136251   4.988   3.668  15.026 -0.1538  0.8107 -0.8608
 4920TIP3    H236252   4.887   3.734  15.118 -0.9368 -0.8924 -0.4557
 4921TIP3   OH236253   6.396   5.037  11.481  0.4186  0.3000  0.0901
 4921TIP3    H136254   6.380   4.988  11.401 -0.5555  1.1451 -0.2557
 4921TIP3    H236255   6.336   5.112  11.476  0.5170  0.5026  1.4829
 4922TIP3   OH236256   6.787   4.312   3.663 -0.0080  0.2865  0.0503
 4922TIP3    H136257   6.808   4.223   3.634 -0.8178  0.4740 -1.2098
 4922TIP3    H236258   6.871   4.349   3.691  0.4689 -0.6112 -0.1727
 4923TIP3   OH236259   1.195   5.933  15.355  0.4365  0.7791 -0.3734
 4923TIP3    H136260   1.118   5.955  15.302  0.4033  0.6836 -0.3652
 4923TIP3    H236261   1.169   5.855  15.403  0.9663  0.0062 -1.3028
 4924TIP3   OH236262   5.631   2.197   6.286  0.6541  0.6296  0.6807
 4924TIP3    H136263   5.678   2.270   6.246 -0.0355  0.7620  0.0845
 4924TIP3    H236264   5.569   2.169   6.219  0.9316 -0.5326  0.8828
 4925TIP3   OH236265   5.153   0.646  12.599  0.2888  0.0465 -0.1692
 4925TIP3    H136266   5.227   0.660  12.540  2.0384  0.0083  1.8895
 4925TIP3    H236267   5.151   0.551  12.614  1.2520  0.2405  1.4374
 4926TIP3   OH236268   2.990   4.898  15.508 -1.0283  0.1021 -0.3145
 4926TIP3    H136269   3.072   4.863  15.541 -1.1234 -0.6573 -0.8555
 4926TIP3    H236270   2.951   4.943  15.583 -1.4184 -1.9018  0.7733
 4927TIP3   OH236271   2.821   0.254   4.772  0.4742 -0.2263 -0.3836
 4927TIP3    H136272   2.767   0.305   4.831  0.2200  0.1702 -0.9550
 4927TIP3    H236273   2.902   0.238   4.821 -0.0932 -0.7109  0.4251
 4928TIP3   OH236274   1.919   2.061   0.617  0.3159  0.5222 -0.3094
 4928TIP3    H136275   1.901   2.143   0.571 -1.6071  0.2823 -0.0719
 4928TIP3    H236276   1.921   1.995   0.547  1.3512  0.6763 -0.4430
 4929TIP3   OH236277   5.884   5.276  11.192 -0.2012 -0.1131  0.7002
 4929TIP3    H136278   5.924   5.280  11.105 -0.8161 -0.3553  0.3971
 4929TIP3    H236279   5.839   5.191  11.193 -0.5217  0.0634  1.1110
 4930TIP3   OH236280   2.577   1.482  13.144 -0.4293  0.0719 -0.2902
 4930TIP3    H136281   2.525   1.402  13.157  2.1674 -1.7834 -0.5987
 4930TIP3    H236282   2.645   1.477  13.211  1.7706  0.2395 -2.3673
 4931TIP3   OH236283   4.148   6.219   2.806  0.1872 -0.0531 -0.2246
 4931TIP3    H136284   4.228   6.167   2.816  0.4001  0.5404  1.4833
 4931TIP3    H236285   4.115   6.229   2.895 -1.9682 -0.5222 -0.9133
 4932TIP3   OH236286   3.067   0.132  11.321 -0.7512 -0.6192  0.3471
 4932TIP3    H136287   2.974   0.111  11.309 -1.0361  0.0568  1.2546
 4932TIP3    H236288   3.067   0.213  11.371  0.3409 -0.4898  0.1660
 4933TIP3   OH236289   4.960   1.291   3.604 -0.6358  0.5759  0.1053
 4933TIP3    H136290   5.021   1.342   3.549 -0.2771  1.6122  1.4101
 4933TIP3    H236291   4.985   1.200   3.589 -0.2425  0.8543 -1.0891
 4934TIP3   OH236292   5.380   4.846   2.024  0.1486  0.3080  0.1347
 4934TIP3    H136293   5.457   4.902   2.023  0.5322 -0.1774  1.1555
 4934TIP3    H236294   5.328   4.877   2.098 -0.6560  0.6460 -0.5588
 4935TIP3   OH236295   1.900   3.069   1.406 -0.0881 -0.1585 -0.0101
 4935TIP3    H136296   1.954   3.080   1.484 -0.8881 -2.0230  0.8757
 4935TIP3    H236297   1.963   3.055   1.335  0.6309 -0.1274  0.6063
 4936TIP3   OH236298   5.297   3.536  12.740  0.3983  0.2894 -0.3053
 4936TIP3    H136299   5.379   3.553  12.786 -0.3098 -0.5436  1.3425
 4936TIP3    H236300   5.254   3.622  12.736  0.3281  0.3340  0.9404
 4937TIP3   OH236301   2.563   4.308  11.803 -0.9548 -0.7215 -0.1872
 4937TIP3    H136302   2.520   4.262  11.875 -1.0403 -0.2401  0.0716
 4937TIP3    H236303   2.646   4.339  11.840 -1.4389  0.4002  0.0122
 4938TIP3   OH236304   4.020   4.309   0.634  0.0759 -0.4744  0.2088
 4938TIP3    H136305   4.088   4.320   0.568 -2.1819  0.5199 -2.1246
 4938TIP3    H236306   4.013   4.395   0.676 -0.1853 -0.3666 -0.0484
 4939TIP3   OH236307   2.323   4.357   4.943 -0.0403 -0.2872 -0.1477
 4939TIP3    H136308   2.353   4.274   4.906 -1.1535 -1.0152  0.4987
 4939TIP3    H236309   2.228   4.355   4.931 -0.0054  1.3587 -1.0112
 4940TIP3   OH236310   1.505   2.372   4.355  0.2967 -0.5786 -0.0131
 4940TIP3    H136311   1.536   2.308   4.292 -0.7646 -1.7378  0.5904
 4940TIP3    H236312   1.417   2.396   4.325 -0.1705 -1.0483  0.9135
 4941TIP3   OH236313   2.312   6.770  13.435  0.0832 -0.1276  0.3514
 4941TIP3    H136314   2.245   6.763  13.367 -0.1542 -2.7385  0.7734
 4941TIP3    H236315   2.384   6.817  13.393 -2.1632  3.5665  0.1037
 4942TIP3   OH236316   1.872   4.453  13.766  0.1139 -0.0990 -0.0193
 4942TIP3    H136317   1.909   4.365  13.759  2.0804  0.6066  0.6634
 4942TIP3    H236318   1.847   4.461  13.859  0.5231  0.2660  0.0627
 4943TIP3   OH236319   4.058   6.360  15.110  0.1905  0.1427 -0.1834
 4943TIP3    H136320   4.126   6.415  15.070 -2.0742  3.0361 -0.4542
 4943TIP3    H236321   4.019   6.313  15.036  1.6672 -1.3850 -0.0498
 4944TIP3   OH236322   0.986   6.063  12.807  0.0357 -0.6749  0.2494
 4944TIP3    H136323   0.946   5.977  12.818  1.2985 -1.1600  1.2482
 4944TIP3    H236324   1.006   6.092  12.896  1.6368 -0.3555 -0.1721
 4945TIP3   OH236325   2.169   5.979  13.601 -0.5607  0.9149  0.0715
 4945TIP3    H136326   2.109   5.916  13.561 -0.0314  0.8398 -0.6252
 4945TIP3    H236327   2.116   6.025  13.666 -0.9989 -0.1137  0.4584
 4946TIP3   OH236328   5.593   5.541  14.856  0.2230  0.1467 -0.4816
 4946TIP3    H136329   5.672   5.521  14.804 -0.2965 -1.2181 -0.7866
 4946TIP3    H236330   5.591   5.473  14.923 -1.0993 -0.3061 -0.9501
 4947TIP3   OH236331   1.053   3.593   1.601  0.2116 -0.1520  0.0225
 4947TIP3    H136332   0.971   3.557   1.566  1.0763 -1.2559 -0.9493
 4947TIP3    H236333   1.050   3.575   1.695 -0.3326 -0.8629 -0.1240
 4948TIP3   OH236334   2.866   1.585  13.987  0.3700  0.1531 -0.1715
 4948TIP3    H136335   2.961   1.577  13.997  0.3818 -1.3260 -1.1147
 4948TIP3    H236336   2.833   1.497  14.002 -1.1352  1.0457  2.4173
 4949TIP3   OH236337   5.726   3.205  14.658 -0.4300 -0.0415 -0.0516
 4949TIP3    H136338   5.780   3.207  14.737 -0.5038  0.0253 -0.0031
 4949TIP3    H236339   5.788   3.188  14.587 -0.5223 -1.3333  0.1602
 4950TIP3   OH236340   0.684   4.905  14.390  0.1905 -0.4594 -0.2838
 4950TIP3    H136341   0.730   4.907  14.475 -0.0450 -0.0358 -0.1658
 4950TIP3    H236342   0.615   4.970  14.399 -0.4075 -1.0670 -0.4807
 4951TIP3   OH236343   4.256   5.877  10.827  0.0759 -0.3548  0.1116
 4951TIP3    H136344   4.333   5.910  10.781  0.0906  1.0668  1.1075
 4951TIP3    H236345   4.235   5.944  10.891 -2.1887 -0.5441 -0.3298
 4952TIP3   OH236346   4.792   3.780  15.636  0.1978  0.3937  0.5554
 4952TIP3    H136347   4.720   3.780  15.573  0.8012 -2.5550 -0.3024
 4952TIP3    H236348   4.834   3.695  15.624  3.4942  1.7397  1.4276
 4953TIP3   OH236349   6.806   6.201  16.847  0.2457  0.4405 -0.5001
 4953TIP3    H136350   6.822   6.124  16.792  0.1658  2.0243 -2.8523
 4953TIP3    H236351   6.711   6.216  16.840  0.5337  1.8820 -1.7007
 4954TIP3   OH236352   0.213   3.463  15.868  0.3132  0.4755 -0.3732
 4954TIP3    H136353   0.230   3.372  15.890  0.7459  0.4768 -0.6873
 4954TIP3    H236354   0.118   3.467  15.854  0.0426  0.4633  1.3415
 4955TIP3   OH236355   1.724   2.212   1.713 -0.2201 -0.4045 -0.5831
 4955TIP3    H136356   1.690   2.198   1.625 -0.2947 -0.9678 -0.4651
 4955TIP3    H236357   1.751   2.126   1.743 -1.1367 -0.4009  0.3328
 4956TIP3   OH236358   5.307   4.196  11.483 -0.0805  0.0019  0.3749
 4956TIP3    H136359   5.281   4.287  11.488  0.2030  0.2150 -1.3803
 4956TIP3    H236360   5.377   4.195  11.417 -0.9249 -1.6438 -0.5517
 4957TIP3   OH236361   6.523   5.611   3.513  0.6713 -0.3296 -0.3574
 4957TIP3    H136362   6.473   5.530   3.523 -0.2847  0.0781 -1.5004
 4957TIP3    H236363   6.612   5.582   3.494  0.8090 -1.0748  1.2465
 4958TIP3   OH236364   0.750   3.619  11.891  0.0107 -0.0513 -1.0399
 4958TIP3    H136365   0.812   3.554  11.858 -0.4008 -1.4503  0.7884
 4958TIP3    H236366   0.800   3.701  11.891  1.3318 -0.8190 -1.1297
 4959TIP3   OH236367   2.652   2.989  15.300 -0.1684  0.4575 -0.0355
 4959TIP3    H136368   2.652   3.016  15.208  1.2371  2.1049  0.3884
 4959TIP3    H236369   2.683   2.899  15.300  0.7787  0.7683 -1.1171
 4960TIP3   OH236370   4.369   5.744  15.925 -0.3217  0.4519 -0.3656
 4960TIP3    H136371   4.309   5.753  15.998  1.3229 -0.5149  1.1919
 4960TIP3    H236372   4.371   5.650  15.906  1.2186  0.3460  0.1451
 4961TIP3   OH236373   4.392   1.017   5.237  0.2417 -0.4303  0.3116
 4961TIP3    H136374   4.377   0.980   5.324 -0.7293 -0.6411  0.0674
 4961TIP3    H236375   4.344   1.100   5.238  1.1763  0.1294  0.3489
 4962TIP3   OH236376   1.962   3.350   4.741 -0.0358 -0.5280 -0.0429
 4962TIP3    H136377   1.888   3.402   4.771 -0.6372 -1.8965  0.9873
 4962TIP3    H236378   1.933   3.259   4.751  1.5700 -1.0897 -0.1574
 4963TIP3   OH236379   4.610   1.909  12.086  0.4465  0.2806  0.3373
 4963TIP3    H136380   4.626   1.815  12.093  0.5574  0.1185 -1.4869
 4963TIP3    H236381   4.521   1.921  12.117  0.5615 -0.3637  0.9395
 4964TIP3   OH236382   1.637   0.700   3.353  0.4424 -0.6297  0.0687
 4964TIP3    H136383   1.685   0.618   3.356  0.4727 -0.6042  0.3876
 4964TIP3    H236384   1.698   0.765   3.389  1.0709 -0.1229 -1.8125
 4965TIP3   OH236385   5.344   1.295   1.998 -0.0476  0.0281 -0.2421
 4965TIP3    H136386   5.276   1.322   2.060 -2.8961 -1.4507 -2.4976
 4965TIP3    H236387   5.359   1.203   2.016 -1.9426 -0.8211 -2.4177
 4966TIP3   OH236388   3.851   4.846  13.714  0.0373  0.1650 -0.2725
 4966TIP3    H136389   3.941   4.815  13.709 -0.5331 -1.5734 -0.5614
 4966TIP3    H236390   3.805   4.778  13.763 -0.9770  1.4059  0.5837
 4967TIP3   OH236391   3.788   3.938   2.339  0.0286  0.0117  0.2594
 4967TIP3    H136392   3.696   3.910   2.341  0.4901 -1.6182 -0.0155
 4967TIP3    H236393   3.784   4.034   2.340 -1.6420 -0.0354  1.1535
 4968TIP3   OH236394   0.473   0.162   0.743  0.0120  0.0107 -0.1862
 4968TIP3    H136395   0.531   0.231   0.710 -1.6634  0.1693 -3.2631
 4968TIP3    H236396   0.409   0.209   0.796  0.5450  0.3773  0.1407
 4969TIP3   OH236397   5.234   4.858  14.967 -0.1021 -0.1225 -0.3847
 4969TIP3    H136398   5.264   4.791  14.904  0.4681 -0.6030  0.3863
 4969TIP3    H236399   5.314   4.901  14.996 -0.1337 -1.2914  1.5578
 4970TIP3   OH236400   5.328   5.219   4.599  0.2336  0.3240  0.1032
 4970TIP3    H136401   5.294   5.283   4.535  0.9223  1.3669  0.7459
 4970TIP3    H236402   5.412   5.192   4.563  0.2607  0.3130  0.1761
 4971TIP3   OH236403   5.158   0.842   1.884 -0.1707 -0.3089 -0.1554
 4971TIP3    H136404   5.100   0.918   1.890 -0.5270 -0.5729 -0.2262
 4971TIP3    H236405   5.246   0.878   1.896 -0.4161 -0.0423  1.0042
 4972TIP3   OH236406   3.183   3.517  13.061 -0.7405  0.3121  0.1006
 4972TIP3    H136407   3.196   3.600  13.014  1.2918  0.4068  0.7083
 4972TIP3    H236408   3.272   3.482  13.070 -1.4649 -1.4127  0.8059
 4973TIP3   OH236409   1.473   6.704  15.898  0.4985  0.1833  0.1984
 4973TIP3    H136410   1.425   6.776  15.858  1.0279  0.6967  0.4615
 4973TIP3    H236411   1.536   6.678  15.831 -0.1607 -0.5119 -0.1592
 4974TIP3   OH236412   2.343   1.497   5.020 -0.6598 -0.5753  0.5710
 4974TIP3    H136413   2.393   1.419   5.045  0.3166 -0.3326 -0.5580
 4974TIP3    H236414   2.369   1.563   5.084  0.5819 -0.4216 -0.0697
 4975TIP3   OH236415   1.512   1.479   3.987  0.2128  0.0175 -0.1426
 4975TIP3    H136416   1.433   1.432   3.962  0.1368  1.2702 -2.6681
 4975TIP3    H236417   1.488   1.529   4.065 -1.0434 -0.6875 -0.0700
 4976TIP3   OH236418   0.860   0.364   2.549 -0.0226 -0.1217 -0.5206
 4976TIP3    H136419   0.871   0.304   2.475  0.6811 -1.3753  0.5617
 4976TIP3    H236420   0.766   0.361   2.569 -0.0209 -0.7162 -0.6008
 4977TIP3   OH236421   1.799   2.517  12.864  0.1989  0.1049 -0.9658
 4977TIP3    H136422   1.866   2.449  12.862  0.6141  0.5238 -2.2105
 4977TIP3    H236423   1.736   2.490  12.798  0.3758  0.9243 -1.4845
 4978TIP3   OH236424   2.339   3.437  14.133 -0.3391 -0.2000 -0.2544
 4978TIP3    H136425   2.321   3.421  14.225 -1.2998  0.5225 -0.3105
 4978TIP3    H236426   2.253   3.447  14.092  0.0962  0.5446 -1.0316
 4979TIP3   OH236427   3.786   3.461   4.499 -0.1874  0.4383 -0.0812
 4979TIP3    H136428   3.827   3.440   4.583 -0.5037 -0.4772 -0.1486
 4979TIP3    H236429   3.729   3.386   4.480  0.5552  0.2061 -1.5446
 4980TIP3   OH236430   6.586   0.250  15.982  0.8067 -0.1777 -0.5071
 4980TIP3    H136431   6.635   0.230  15.902 -0.1764  0.5407 -1.3141
 4980TIP3    H236432   6.496   0.262  15.952  0.8991  3.0955  0.2113
 4981TIP3   OH236433   4.457   1.147  12.131  0.2157 -0.7670  0.1294
 4981TIP3    H136434   4.526   1.201  12.169  3.2557 -1.1171 -4.1287
 4981TIP3    H236435   4.409   1.207  12.073  1.5539 -1.7774 -2.1709
 4982TIP3   OH236436   0.835   4.472  14.641  0.2516  0.2608  0.2902
 4982TIP3    H136437   0.890   4.509  14.709  0.9774 -1.1173  0.4897
 4982TIP3    H236438   0.746   4.474  14.678  0.4242  0.8527  0.6759
 4983TIP3   OH236439   4.515   5.994   1.740  0.1682 -0.0106  0.3303
 4983TIP3    H136440   4.502   6.082   1.775 -0.3979 -0.4782  1.3388
 4983TIP3    H236441   4.498   5.936   1.814 -1.5137 -1.0594 -0.8026
 4984TIP3   OH236442   2.215   0.364   2.251 -0.0763 -0.4118  0.2276
 4984TIP3    H136443   2.297   0.315   2.241 -0.5616 -1.0274 -1.0195
 4984TIP3    H236444   2.166   0.314   2.316 -0.7061 -1.8567 -1.2761
 4985TIP3   OH236445   1.129   2.080  10.381  0.1294 -0.1906 -0.3943
 4985TIP3    H136446   1.072   2.107  10.310  0.0435 -1.3792 -0.8073
 4985TIP3    H236447   1.073   2.077  10.459 -0.1148 -0.3111 -0.5768
 4986TIP3   OH236448   1.259   5.265  14.402 -0.5342 -0.1690 -0.3505
 4986TIP3    H136449   1.165   5.280  14.411 -0.3816 -0.3840  2.2609
 4986TIP3    H236450   1.272   5.176  14.433  0.4895 -0.3889 -1.3380
 4987TIP3   OH236451   4.764   6.254  13.052  0.1893  0.5389 -0.3884
 4987TIP3    H136452   4.677   6.278  13.082  1.2388  1.9483  1.8391
 4987TIP3    H236453   4.789   6.325  12.992  0.1671  0.6633 -0.2508
 4988TIP3   OH236454   1.269   0.156  11.242 -0.2878 -0.2011 -0.3510
 4988TIP3    H136455   1.362   0.135  11.241 -0.3479 -0.4324 -0.8090
 4988TIP3    H236456   1.228   0.092  11.184 -0.5052  0.9534 -1.5161
 4989TIP3   OH236457   2.605   3.583   4.672 -0.3600  0.1377  0.2622
 4989TIP3    H136458   2.563   3.666   4.647 -1.1129  0.2648  1.8253
 4989TIP3    H236459   2.602   3.583   4.767  0.9065 -1.0659  0.3204
 4990TIP3   OH236460   6.378   5.018  13.477  0.3054  0.1387 -0.2928
 4990TIP3    H136461   6.372   4.923  13.471  0.3866  0.0246  1.2043
 4990TIP3    H236462   6.308   5.049  13.419  1.0391 -0.7745 -1.7424
 4991TIP3   OH236463   3.321   2.219   2.751  0.0097  0.3409 -0.9489
 4991TIP3    H136464   3.332   2.163   2.829  1.0340  0.9449 -0.6421
 4991TIP3    H236465   3.322   2.158   2.678  0.3979 -0.1269 -0.5665
 4992TIP3   OH236466   2.595   4.008  10.775 -0.0722 -0.3222 -0.2202
 4992TIP3    H136467   2.559   4.003  10.687 -0.4362 -1.5580 -0.0183
 4992TIP3    H236468   2.576   4.097  10.804 -1.4984 -0.4367 -0.7373
 4993TIP3   OH236469   4.417   4.323   6.291  0.2853 -0.1989 -0.2857
 4993TIP3    H136470   4.487   4.388   6.291  0.6478 -0.5626 -1.2282
 4993TIP3    H236471   4.450   4.252   6.347  1.1239 -0.8059 -1.4932
 4994TIP3   OH236472   4.298   0.628   0.822 -0.2050  0.2969 -0.4178
 4994TIP3    H136473   4.230   0.588   0.767  0.6715  0.0357 -1.3513
 4994TIP3    H236474   4.259   0.709   0.854 -1.3516 -0.3928 -0.0166
 4995TIP3   OH236475   0.303   0.289  15.068 -0.3335  0.0521 -0.3345
 4995TIP3    H136476   0.260   0.358  15.119  0.4247  0.8013 -0.6857
 4995TIP3    H236477   0.242   0.272  14.996 -0.7886 -0.0569  0.0685
 4996TIP3   OH236478   3.328   6.115   2.426  0.4071  0.4476  0.4226
 4996TIP3    H136479   3.247   6.066   2.417 -1.0504  3.0665 -2.6008
 4996TIP3    H236480   3.377   6.096   2.346  0.7485  2.1949  0.1748
 4997TIP3   OH236481   6.184   1.746  13.903  0.2907  0.3285 -0.0659
 4997TIP3    H136482   6.131   1.813  13.947  0.5444  1.8791 -1.9624
 4997TIP3    H236483   6.263   1.793  13.874  1.3203 -1.2274  0.0696
 4998TIP3   OH236484   4.847   2.444   0.450 -0.1474  0.1284  0.2609
 4998TIP3    H136485   4.877   2.526   0.491 -1.0082  0.2919  0.5706
 4998TIP3    H236486   4.763   2.426   0.491 -0.7058 -0.0850 -0.9388
 4999TIP3   OH236487   1.057   4.442  16.437  0.3762 -0.2145  0.4179
 4999TIP3    H136488   0.971   4.481  16.419  0.7405  0.3996 -0.0531
 4999TIP3    H236489   1.052   4.355  16.399 -0.0484 -0.1914  0.4107
 5000TIP3   OH236490   5.759   2.780   0.324 -0.1830 -1.2446  0.1194
 5000TIP3    H136491   5.848   2.744   0.328 -0.6853 -2.7142 -0.8425
 5000TIP3    H236492   5.767   2.857   0.267  0.5994 -0.9267  0.6412
 5001TIP3   OH236493   1.484   6.525   5.341  0.1008 -0.3912  0.0646
 5001TIP3    H136494   1.430   6.515   5.263  0.9975 -0.7270 -0.5248
 5001TIP3    H236495   1.449   6.602   5.385 -1.4067 -1.0887  0.1478
 5002TIP3   OH236496   4.473   3.628   1.694  0.1973 -0.2768 -0.4797
 5002TIP3    H136497   4.430   3.543   1.708 -0.8970  0.4882  0.9929
 5002TIP3    H236498   4.554   3.623   1.745  0.6597 -0.7880 -1.2341
 5003TIP3   OH236499   6.180   0.681  12.560 -0.3942  0.3484 -0.4870
 5003TIP3    H136500   6.243   0.657  12.493 -0.7539 -0.2205 -0.6311
 5003TIP3    H236501   6.097   0.642  12.531 -0.5683  0.1564  0.2448
 5004TIP3   OH236502   4.005   5.559   1.796 -0.2465  0.0873  0.1500
 5004TIP3    H136503   4.081   5.569   1.739 -1.2306  0.3429 -1.1810
 5004TIP3    H236504   4.040   5.559   1.885  1.1094  2.2951 -0.3317
 5005TIP3   OH236505   0.580   2.305  10.391 -0.8245 -0.1469 -0.1025
 5005TIP3    H136506   0.582   2.352  10.308 -0.3456 -0.6320 -0.3727
 5005TIP3    H236507   0.551   2.216  10.368 -1.1202 -0.1605  0.3094
 5006TIP3   OH236508   4.443   4.607   5.474 -0.0347  0.3127 -0.2182
 5006TIP3    H136509   4.506   4.590   5.544  0.1864 -2.0170 -0.9140
 5006TIP3    H236510   4.388   4.677   5.509  0.3639 -0.4196  2.0888
 5007TIP3   OH236511   1.842   5.054  10.950 -0.0348 -0.8023 -0.4393
 5007TIP3    H136512   1.890   5.034  11.030  1.7242 -0.4192 -1.3573
 5007TIP3    H236513   1.835   4.971  10.904  0.3297 -0.7368 -0.6126
 5008TIP3   OH236514   2.341   0.251   5.296 -0.3767 -0.3577 -0.0499
 5008TIP3    H136515   2.391   0.321   5.337 -1.2022  0.5145 -0.4883
 5008TIP3    H236516   2.374   0.171   5.337  0.7772  0.2483  0.2628
 5009TIP3   OH236517   0.299   2.891  11.262  0.2474  0.6574 -0.4986
 5009TIP3    H136518   0.230   2.830  11.237  1.8299 -1.1187 -0.7288
 5009TIP3    H236519   0.292   2.897  11.358  0.8016 -0.8448 -0.3411
 5010TIP3   OH236520   6.637   6.129  11.953  0.1766  0.6682 -0.3200
 5010TIP3    H136521   6.587   6.048  11.945  0.2393  0.7634 -1.8202
 5010TIP3    H236522   6.587   6.182  12.015 -0.3204 -0.1655  0.0037
 5011TIP3   OH236523   2.177   5.421  11.950  1.0941  0.4073  0.1563
 5011TIP3    H136524   2.156   5.383  11.865  0.2662  0.3739  0.3689
 5011TIP3    H236525   2.250   5.480  11.933  0.6267  0.7562 -0.6688
 5012TIP3   OH236526   1.253   4.678   0.464  0.0099  0.2373 -0.5998
 5012TIP3    H136527   1.256   4.621   0.541  2.0127  2.5278  1.1804
 5012TIP3    H236528   1.164   4.714   0.465 -0.2050 -0.2872  0.2574
 5013TIP3   OH236529   1.849   2.875  14.199 -0.0635 -0.1351  0.3949
 5013TIP3    H136530   1.909   2.921  14.141 -0.1936 -2.1655 -1.4720
 5013TIP3    H236531   1.764   2.882  14.155 -0.5909  0.0418  1.4152
 5014TIP3   OH236532   5.466   1.666  11.474  0.0244  0.5680  0.1100
 5014TIP3    H136533   5.494   1.601  11.540 -1.4020 -1.1945 -0.9369
 5014TIP3    H236534   5.445   1.744  11.526 -0.9090 -0.7068  1.7727
 5015TIP3   OH236535   6.434   0.937   0.626  0.3441 -0.1171  0.1027
 5015TIP3    H136536   6.406   1.028   0.630  0.6223  0.0471 -1.2219
 5015TIP3    H236537   6.477   0.921   0.710 -1.9282  0.2024  1.4239
 5016TIP3   OH236538   6.649   3.595  13.288  0.1669  0.4631 -0.3724
 5016TIP3    H136539   6.675   3.559  13.373 -1.8691  0.0735  0.1413
 5016TIP3    H236540   6.625   3.519  13.236 -0.3507  0.8257 -0.6663
 5017TIP3   OH236541   0.323   5.140  15.038  0.6877 -0.1794 -0.4036
 5017TIP3    H136542   0.416   5.140  15.059  0.8038  0.7207 -0.8699
 5017TIP3    H236543   0.279   5.160  15.120  0.9439  0.0872 -0.3334
 5018TIP3   OH236544   4.426   3.738  15.272  0.0399 -0.0098 -0.1935
 5018TIP3    H136545   4.410   3.646  15.250  2.1565 -0.2158 -1.1624
 5018TIP3    H236546   4.421   3.784  15.188  2.4190  0.1411 -0.3271
 5019TIP3   OH236547   2.609   5.364   4.305 -0.1625  0.2740 -0.4638
 5019TIP3    H136548   2.572   5.450   4.286 -1.4384 -0.1430  0.0080
 5019TIP3    H236549   2.686   5.358   4.249 -0.9372  1.0959 -1.6708
 5020TIP3   OH236550   0.390   2.653  15.226 -1.3294  0.1467  0.2483
 5020TIP3    H136551   0.472   2.691  15.193  0.4246 -2.0050  1.7917
 5020TIP3    H236552   0.371   2.583  15.164 -0.3936 -1.1386  1.3506
 5021TIP3   OH236553   2.041   1.802  12.318 -0.2028 -0.1719 -0.0415
 5021TIP3    H136554   2.054   1.768  12.407 -0.2978  1.4174  0.6289
 5021TIP3    H236555   2.129   1.807  12.281 -0.2581 -1.9003 -0.4921
 5022TIP3   OH236556   1.903   4.486   5.263  0.5907  0.2904 -0.0014
 5022TIP3    H136557   1.973   4.527   5.213 -0.2641  1.7098 -0.1078
 5022TIP3    H236558   1.853   4.560   5.299 -3.0530 -0.3629 -2.9800
 5023TIP3   OH236559   5.309   0.567  15.521  0.4098 -0.1822  0.1302
 5023TIP3    H136560   5.309   0.659  15.494  0.0280 -0.1996  0.0760
 5023TIP3    H236561   5.354   0.521  15.450  2.7022  0.2612  1.1856
 5024TIP3   OH236562   1.694   3.620  10.606 -0.0429  0.2038 -0.0201
 5024TIP3    H136563   1.739   3.595  10.687 -1.5502  0.3274  0.9002
 5024TIP3    H236564   1.762   3.658  10.551  0.8887  0.8871  1.5366
 5025TIP3   OH236565   3.029   1.552   3.689 -0.7152 -0.3346 -0.4433
 5025TIP3    H136566   2.955   1.505   3.652 -0.7834  0.5907 -1.5256
 5025TIP3    H236567   2.998   1.642   3.702 -0.7600 -0.6579  2.1058
 5026TIP3   OH236568   6.424   4.009  10.596  0.4748 -0.0522  0.2952
 5026TIP3    H136569   6.455   3.946  10.531 -0.4236  0.4831 -0.6677
 5026TIP3    H236570   6.340   4.040  10.562 -0.2397 -0.0826  1.9156
 5027TIP3   OH236571   2.356   5.522   2.348  0.8428 -0.6088  0.1954
 5027TIP3    H136572   2.384   5.612   2.361 -1.0802  0.3334 -1.7835
 5027TIP3    H236573   2.429   5.481   2.301  0.4350  0.8311 -1.7865
 5028TIP3   OH236574   5.645   4.577  15.640  0.2604 -0.4742 -0.2112
 5028TIP3    H136575   5.553   4.591  15.617  0.5465 -0.6952 -1.5614
 5028TIP3    H236576   5.642   4.541  15.729 -0.9149  0.1579  0.0266
 5029TIP3   OH236577   6.511   5.949  16.066  0.4912  0.0171  0.0154
 5029TIP3    H136578   6.454   5.908  16.130  0.5752  1.7862  1.3109
 5029TIP3    H236579   6.469   5.933  15.982  0.4993 -2.5737  0.4276
 5030TIP3   OH236580   5.462   5.413  13.253 -0.4849 -0.0328  0.3436
 5030TIP3    H136581   5.367   5.424  13.257 -0.6422 -1.3398  0.3520
 5030TIP3    H236582   5.493   5.447  13.337 -0.9435  0.2586  0.4012
 5031TIP3   OH236583   6.460   0.521  16.965  0.6096 -0.1820  0.4394
 5031TIP3    H136584   6.483   0.462  16.893  0.3814  0.2334  0.0159
 5031TIP3    H236585   6.538   0.576  16.976  1.7704 -2.1159  2.4625
 5032TIP3   OH236586   2.040   5.747  12.315 -0.4843  0.0042  0.2934
 5032TIP3    H136587   1.953   5.772  12.346 -0.6164  0.5356 -0.4793
 5032TIP3    H236588   2.039   5.767  12.222  0.7828  0.8846  0.4385
 5033TIP3   OH236589   2.041   5.463  15.069  0.3883  0.8766 -0.0269
 5033TIP3    H136590   2.029   5.455  14.974  1.1100 -0.0514 -0.0538
 5033TIP3    H236591   2.032   5.374  15.102  0.2360  1.1824  0.7726
 5034TIP3   OH236592   3.222   1.765   4.667 -0.1059  0.8492 -0.0115
 5034TIP3    H136593   3.193   1.686   4.712  2.3744 -0.5022 -0.6161
 5034TIP3    H236594   3.224   1.740   4.575 -0.2477  1.9476 -0.3199
 5035TIP3   OH236595   3.885   2.177  12.599  0.2933  0.0956 -0.2999
 5035TIP3    H136596   3.828   2.168  12.675 -0.6223  0.6652 -0.8983
 5035TIP3    H236597   3.959   2.120  12.618  0.2841  0.5300  1.1935
 5036TIP3   OH236598   4.607   3.126  15.757 -0.0996 -0.3008  0.2628
 5036TIP3    H136599   4.655   3.184  15.697 -0.6126  0.9968  1.0680
 5036TIP3    H236600   4.535   3.091  15.704 -0.3072  0.5078  0.0019
 5037TIP3   OH236601   2.153   1.396  13.645 -0.0745 -0.0500  0.0791
 5037TIP3    H136602   2.183   1.305  13.632  0.2788 -0.1358  1.3162
 5037TIP3    H236603   2.126   1.399  13.737 -0.3162  1.0385 -0.0175
 5038TIP3   OH236604   0.133   1.283  11.321 -0.2197 -0.3629  0.5381
 5038TIP3    H136605   0.042   1.270  11.349 -1.0318  0.4456 -1.5577
 5038TIP3    H236606   0.167   1.350  11.380 -1.1634 -0.2266  0.9460
 5039TIP3   OH236607   1.887   5.311  17.100  0.3716 -0.6968 -0.2427
 5039TIP3    H136608   1.815   5.301  17.038  2.4706  0.9223 -3.2519
 5039TIP3    H236609   1.929   5.225  17.102  0.1049 -0.8488 -0.8891
 5040TIP3   OH236610   1.217   5.595   0.728  0.3132  0.6810  0.3597
 5040TIP3    H136611   1.226   5.510   0.771 -0.7618  1.4523  2.2223
 5040TIP3    H236612   1.307   5.621   0.709  0.8793  0.3502  2.3320
 5041TIP3   OH236613   0.375   3.090   0.771  0.8829 -0.5418 -0.1311
 5041TIP3    H136614   0.315   3.023   0.740 -1.5805  1.4515 -0.0129
 5041TIP3    H236615   0.333   3.126   0.849  1.1052  2.3342 -1.2018
 5042TIP3   OH236616   4.167   0.742   5.129  0.1943 -0.6266  0.1223
 5042TIP3    H136617   4.210   0.660   5.102  1.4490 -1.2817  3.6147
 5042TIP3    H236618   4.175   0.743   5.224 -2.9352  1.9112  0.5244
 5043TIP3   OH236619   4.676   6.602   5.074  0.0452 -0.2322  0.5122
 5043TIP3    H136620   4.609   6.552   5.121  0.9209  0.3808  2.4713
 5043TIP3    H236621   4.629   6.638   4.999 -1.8090  0.0657  1.7431
 5044TIP3   OH236622   1.506   1.086  11.412  0.0724  0.1867 -0.3320
 5044TIP3    H136623   1.411   1.083  11.417  0.0533 -2.7838 -0.8314
 5044TIP3    H236624   1.535   1.073  11.502 -0.0174 -0.6108 -0.4131
 5045TIP3   OH236625   2.534   2.430   0.345  0.1910  0.3536 -0.2085
 5045TIP3    H136626   2.542   2.357   0.283  1.0640 -0.4348  0.8030
 5045TIP3    H236627   2.464   2.404   0.404 -2.3145  2.1445 -2.1642
 5046TIP3   OH236628   0.042   1.375  12.924  0.4860 -0.2338  0.1701
 5046TIP3    H136629   0.074   1.306  12.982 -0.3915 -1.4732 -0.7510
 5046TIP3    H236630   0.077   1.456  12.960  0.5440 -1.0346  2.0025
 5047TIP3   OH236631   3.104   4.487   3.124  0.3232 -0.4055 -0.4027
 5047TIP3    H136632   3.028   4.534   3.160  0.2206 -0.2131 -0.8597
 5047TIP3    H236633   3.172   4.554   3.117  0.3648 -0.4577 -0.4955
 5048TIP3   OH236634   5.971   0.209   0.383  0.0749 -0.7628 -0.2482
 5048TIP3    H136635   6.004   0.238   0.468 -1.4854 -0.1347  0.1687
 5048TIP3    H236636   5.968   0.114   0.390 -0.4101 -0.7025  0.5639
 5049TIP3   OH236637   2.189   6.564   4.382  0.0608 -0.0389 -0.1703
 5049TIP3    H136638   2.232   6.480   4.365  1.0986  0.6670 -1.1548
 5049TIP3    H236639   2.103   6.556   4.340  1.1437  0.2984 -2.5953
 5050TIP3   OH236640   6.565   2.446  10.653 -0.3851 -0.3410 -0.0785
 5050TIP3    H136641   6.627   2.497  10.602  0.5981 -0.4513  0.9749
 5050TIP3    H236642   6.485   2.499  10.652  0.2140  0.5938 -0.1188
 5051TIP3   OH236643   5.192   1.691  11.839  0.1081 -0.4458 -0.4050
 5051TIP3    H136644   5.098   1.701  11.851 -0.1203 -1.9628 -0.6626
 5051TIP3    H236645   5.205   1.596  11.832  1.7821 -0.3270  0.5803
 5052TIP3   OH236646   5.739   0.176  15.424  0.0712 -0.3513  0.3129
 5052TIP3    H136647   5.713   0.104  15.368  0.1460 -1.1562  1.2755
 5052TIP3    H236648   5.658   0.205  15.466 -0.3461  1.5543 -1.5953
 5053TIP3   OH236649   4.490   3.170   5.400  0.2835 -0.1391 -0.1465
 5053TIP3    H136650   4.476   3.138   5.489  0.6632  1.9163  0.7023
 5053TIP3    H236651   4.586   3.173   5.390  0.2720  0.9256 -0.0895
 5054TIP3   OH236652   0.829   1.201  12.833  0.0238 -0.1338 -0.8457
 5054TIP3    H136653   0.856   1.281  12.788 -0.1127 -0.0804 -0.8315
 5054TIP3    H236654   0.782   1.232  12.910  1.1029 -0.1987 -0.1271
 5055TIP3   OH236655   6.392   2.712   0.673 -0.4429  0.0662 -0.1329
 5055TIP3    H136656   6.433   2.674   0.596  0.6654 -1.2269  1.0423
 5055TIP3    H236657   6.441   2.793   0.690  0.4920 -0.5601  0.2271
 5056TIP3   OH236658   4.947   6.505  16.763 -0.1785 -0.0238 -0.0097
 5056TIP3    H136659   5.041   6.522  16.772  0.3299 -1.9444 -1.1254
 5056TIP3    H236660   4.915   6.501  16.853  0.9504  0.0129  0.4073
 5057TIP3   OH236661   2.318   5.649   4.907  0.3816 -0.6382  0.0040
 5057TIP3    H136662   2.263   5.725   4.888  0.4382 -0.4487  0.5924
 5057TIP3    H236663   2.267   5.574   4.876 -1.3849 -0.7264  2.7445
 5058TIP3   OH236664   4.529   4.963  13.157 -0.0978 -0.3655 -0.2625
 5058TIP3    H136665   4.496   4.926  13.075 -0.4026  1.2738 -0.9237
 5058TIP3    H236666   4.499   5.054  13.155 -0.4802 -0.4076  1.8810
 5059TIP3   OH236667   2.996   0.927   3.838  0.0541  0.0483  0.1971
 5059TIP3    H136668   2.957   1.009   3.869  0.1446  0.1321  0.0857
 5059TIP3    H236669   2.944   0.859   3.882 -1.2364  0.1278 -1.1341
 5060TIP3   OH236670   5.418   6.391  14.615 -0.4581  1.0056  0.0295
 5060TIP3    H136671   5.354   6.322  14.599  1.2872 -1.1098  1.6376
 5060TIP3    H236672   5.394   6.426  14.701  0.5132  0.1538  0.6720
 5061TIP3   OH236673   5.257   3.886  17.066  0.3011 -0.3519 -0.3090
 5061TIP3    H136674   5.248   3.978  17.091  1.0700 -0.0268 -1.1601
 5061TIP3    H236675   5.257   3.839  17.149 -0.1343  0.4115  0.1399
 5062TIP3   OH236676   0.262   2.685   0.888 -0.3720 -0.6722 -0.8106
 5062TIP3    H136677   0.196   2.701   0.820  0.5124 -1.4277 -1.8825
 5062TIP3    H236678   0.345   2.678   0.840  0.2963 -1.1245  0.3621
 5063TIP3   OH236679   1.614   1.860   3.648  0.2937 -0.4188  0.7252
 5063TIP3    H136680   1.606   1.954   3.628  0.4413 -0.8734 -1.7541
 5063TIP3    H236681   1.531   1.822   3.621 -0.2827 -0.8749  2.9512
 5064TIP3   OH236682   6.763   1.487  12.241  0.3841 -0.1805  0.3260
 5064TIP3    H136683   6.777   1.498  12.335 -1.1845 -1.4649  0.7509
 5064TIP3    H236684   6.710   1.407  12.233 -1.8097  1.2884 -1.4252
 5065TIP3   OH236685   0.142   4.442  16.752  0.4314 -0.4037 -0.2308
 5065TIP3    H136686   0.146   4.533  16.783  0.9714 -0.3293 -0.5119
 5065TIP3    H236687   0.093   4.447  16.670 -0.5647 -0.5344  0.3307
 5066TIP3   OH236688   5.339   1.336  14.997 -0.6081  0.2127  0.2234
 5066TIP3    H136689   5.343   1.263  15.059  2.0233  1.6539  1.9339
 5066TIP3    H236690   5.250   1.372  15.007 -0.1788  0.6119  3.5525
 5067TIP3   OH236691   2.395   6.202   2.952 -0.3413 -0.0208  0.1478
 5067TIP3    H136692   2.332   6.191   3.023 -1.2483 -0.4482 -0.6864
 5067TIP3    H236693   2.387   6.122   2.901 -0.6747  0.8026 -1.1547
 5068TIP3   OH236694   0.377   3.807   4.524  0.1783  0.2125  0.7878
 5068TIP3    H136695   0.429   3.850   4.456 -0.6566  0.4160  0.2612
 5068TIP3    H236696   0.440   3.756   4.573  0.7410 -0.3378 -0.4530
 5069TIP3   OH236697   3.149   3.773  11.713  0.2258  0.0030  0.4316
 5069TIP3    H136698   3.093   3.849  11.694  1.4566  1.0343  0.7503
 5069TIP3    H236699   3.185   3.792  11.800  1.8526 -0.1049 -0.1851
 5070TIP3   OH236700   3.261   2.284   0.836 -0.1550  0.3850  0.6103
 5070TIP3    H136701   3.346   2.255   0.804 -0.1853 -0.5586  1.3405
 5070TIP3    H236702   3.277   2.372   0.871  0.2975  0.6074 -0.1299
 5071TIP3   OH236703   5.281   5.680  13.209  0.3142  0.2498 -0.2156
 5071TIP3    H136704   5.245   5.664  13.122 -1.8213 -1.3002  0.8670
 5071TIP3    H236705   5.274   5.596  13.254  1.0572  1.0864  1.5749
 5072TIP3   OH236706   0.097   6.374   1.266 -0.5775 -0.4304 -0.1630
 5072TIP3    H136707   0.014   6.329   1.276 -1.1495  0.3381 -1.2868
 5072TIP3    H236708   0.155   6.310   1.224 -1.2393 -0.3031 -1.3046
 5073TIP3   OH236709   6.364   4.797   4.555  0.0071 -0.3721  0.0930
 5073TIP3    H136710   6.390   4.869   4.498 -0.2823  0.5003  1.0503
 5073TIP3    H236711   6.357   4.722   4.496  2.5210 -0.1815 -0.5778
 5074TIP3   OH236712   2.168   6.060   1.611  0.2848  0.0573 -0.4855
 5074TIP3    H136713   2.105   6.078   1.680  1.6190 -0.4269  0.8953
 5074TIP3    H236714   2.115   6.035   1.535 -1.1562 -0.8032  0.7740
 5075TIP3   OH236715   3.796   1.025  15.759 -0.1564  0.2014  0.5934
 5075TIP3    H136716   3.750   1.027  15.843 -1.2317 -0.2882  0.0362
 5075TIP3    H236717   3.747   0.962  15.706 -1.8126  3.1359 -1.6748
 5076TIP3   OH236718   2.389   0.314   3.500  0.1785  0.2284 -0.1199
 5076TIP3    H136719   2.452   0.376   3.464  0.8210  0.3658  1.1698
 5076TIP3    H236720   2.317   0.312   3.437  1.6372 -0.2416 -1.8454
 5077TIP3   OH236721   4.855   1.126   2.542 -0.4764 -0.1302  0.6166
 5077TIP3    H136722   4.770   1.139   2.584 -0.2790 -1.6122  1.5570
 5077TIP3    H236723   4.891   1.048   2.585  1.1703  0.2177 -0.0682
 5078TIP3   OH236724   0.394   0.153  13.116 -0.1032  0.3381 -0.7807
 5078TIP3    H136725   0.304   0.121  13.105 -0.1460  1.0812 -2.9119
 5078TIP3    H236726   0.383   0.234  13.168 -0.5609 -0.0440 -0.2663
 5079TIP3   OH236727   2.777   6.172  13.165  0.6775 -0.2469  0.4214
 5079TIP3    H136728   2.807   6.197  13.078  0.8787 -1.2084  0.1956
 5079TIP3    H236729   2.854   6.134  13.207 -0.2055 -3.1069 -0.3067
 5080TIP3   OH236730   0.139   1.662  11.134 -0.4899  0.4551  0.4639
 5080TIP3    H136731   0.060   1.631  11.089 -0.7651  1.0315  0.5335
 5080TIP3    H236732   0.198   1.588  11.133 -1.2238 -0.1527  0.8472
 5081TIP3   OH236733   6.816   5.983  11.427  0.3954  0.1463 -0.3090
 5081TIP3    H136734   6.764   5.928  11.369  3.0329 -1.9262 -0.9115
 5081TIP3    H236735   6.861   6.044  11.369  0.7600  0.0628 -0.1209
 5082TIP3   OH236736   1.676   2.074  12.055  0.5657 -0.3452 -0.1456
 5082TIP3    H136737   1.616   2.027  12.112  0.1306  1.0646  0.5756
 5082TIP3    H236738   1.721   2.136  12.112  1.1278  0.1305 -1.0766
 5083TIP3   OH236739   2.525   4.586  12.717 -0.5521 -0.2018 -0.0669
 5083TIP3    H136740   2.585   4.514  12.699 -1.3783 -0.7464 -0.6934
 5083TIP3    H236741   2.438   4.549  12.703 -1.0161  0.7329  0.2681
 5084TIP3   OH236742   2.486   0.895  11.559 -0.3504 -0.1304  0.3684
 5084TIP3    H136743   2.412   0.951  11.581 -2.1304 -0.8072 -3.2335
 5084TIP3    H236744   2.549   0.954  11.517 -0.6185 -0.2137 -0.1537
 5085TIP3   OH236745   2.938   3.040  12.765 -0.4496 -0.0455 -0.3815
 5085TIP3    H136746   3.032   3.055  12.751 -0.8355  2.8458 -0.4832
 5085TIP3    H236747   2.906   3.011  12.680 -0.1039  1.9624 -1.2566
 5086TIP3   OH236748   2.991   3.886  13.434  0.7474 -0.3398 -0.6578
 5086TIP3    H136749   2.922   3.946  13.403 -1.0488 -1.9972 -0.0481
 5086TIP3    H236750   3.036   3.859  13.354  0.6102  0.6340 -1.0881
 5087TIP3   OH236751   4.445   0.084  14.925 -0.2182 -0.0071 -0.4319
 5087TIP3    H136752   4.356   0.047  14.922  0.1381 -0.8164 -1.5079
 5087TIP3    H236753   4.485   0.059  14.842  1.1776 -0.0512  0.2155
 5088TIP3   OH236754   6.555   5.840  13.325 -0.7074  0.2028  0.1460
 5088TIP3    H136755   6.525   5.799  13.244 -0.2294  0.8280 -0.3632
 5088TIP3    H236756   6.476   5.881  13.362 -0.8778  0.1422 -0.1459
 5089TIP3   OH236757   3.655   2.644  16.827  0.2797 -0.4462 -0.6815
 5089TIP3    H136758   3.702   2.709  16.774  0.1704 -0.6443 -1.0273
 5089TIP3    H236759   3.562   2.664  16.813  0.2127 -1.3766 -1.7053
 5090TIP3   OH236760   5.429   2.866  12.373 -0.1209  0.0185 -0.1343
 5090TIP3    H136761   5.369   2.801  12.336  0.3402 -1.3684  1.4150
 5090TIP3    H236762   5.516   2.838  12.344 -0.0726  1.2452 -1.2650
 5091TIP3   OH236763   5.084   0.788   5.490  0.6713  0.1704  0.1219
 5091TIP3    H136764   5.024   0.816   5.421  0.0871 -2.0183 -0.3571
 5091TIP3    H236765   5.031   0.787   5.570 -0.3552 -2.7738 -0.4832
 5092TIP3   OH236766   5.130   6.243  11.954  0.1244  0.0597  0.1789
 5092TIP3    H136767   5.050   6.204  11.919  0.8122 -0.1221 -1.2370
 5092TIP3    H236768   5.163   6.299  11.884  0.2734  1.5973  1.4221
 5093TIP3   OH236769   1.159   3.247  13.655 -0.4645  0.0875 -0.2714
 5093TIP3    H136770   1.229   3.238  13.591  1.4659 -0.2872  1.7666
 5093TIP3    H236771   1.103   3.316  13.620  0.0835 -0.5798 -2.6552
 5094TIP3   OH236772   5.349   6.630  13.602  0.4722 -0.0389  0.4290
 5094TIP3    H136773   5.425   6.579  13.629  1.0393 -0.0227 -1.0319
 5094TIP3    H236774   5.323   6.592  13.518 -0.8549  0.2502  0.6903
 5095TIP3   OH236775   2.025   1.996   4.910 -0.3294  0.0489  0.2155
 5095TIP3    H136776   2.073   1.963   4.986  1.2004 -0.9904 -1.1398
 5095TIP3    H236777   2.046   1.935   4.840 -1.8042  0.9061 -1.0402
 5096TIP3   OH236778   1.149   4.734   2.739  0.2303  0.1312 -1.1461
 5096TIP3    H136779   1.233   4.778   2.726  0.9292 -1.0560 -0.8255
 5096TIP3    H236780   1.171   4.650   2.779 -1.2177  0.2646  0.0331
 5097TIP3   OH236781   3.346   5.484  16.232 -0.9936  0.5080  0.2149
 5097TIP3    H136782   3.255   5.509  16.219 -0.5450  1.5024 -1.2466
 5097TIP3    H236783   3.345   5.429  16.311 -2.6273  1.7502  1.1208
 5098TIP3   OH236784   4.474   4.315   3.345 -0.2181 -0.1545 -0.0978
 5098TIP3    H136785   4.482   4.220   3.358 -1.4592 -0.5412 -1.8008
 5098TIP3    H236786   4.419   4.324   3.268 -0.1645  1.9832  0.0533
 5099TIP3   OH236787   6.375   3.167  16.510 -0.2993  0.1199 -0.2882
 5099TIP3    H136788   6.466   3.177  16.483 -0.2279 -0.2765 -0.2019
 5099TIP3    H236789   6.375   3.087  16.564 -0.5352  0.5859  0.4217
 5100TIP3   OH236790   3.607   3.660  14.521  0.1922  0.0148  0.3056
 5100TIP3    H136791   3.636   3.690  14.608  0.0381 -2.3331  1.2525
 5100TIP3    H236792   3.669   3.590  14.499 -0.2074  0.1046 -1.1650
 5101TIP3   OH236793   3.331   5.173  11.687  0.4124 -0.4772  0.3356
 5101TIP3    H136794   3.368   5.099  11.735 -0.9152 -0.4134  1.5143
 5101TIP3    H236795   3.267   5.134  11.627 -0.2509 -0.3203  0.9205
 5102TIP3   OH236796   0.926   0.591   2.275  0.6434 -0.2219  0.1133
 5102TIP3    H136797   0.835   0.575   2.301  0.3140  2.4374  0.9012
 5102TIP3    H236798   0.978   0.544   2.340 -0.1406 -1.2660  0.0145
 5103TIP3   OH236799   0.781   4.089  15.134 -0.2060  0.0527  0.1810
 5103TIP3    H136800   0.869   4.051  15.125  0.0091  0.0188  2.0916
 5103TIP3    H236801   0.786   4.142  15.213 -1.8113  0.3882  0.0812
 5104TIP3   OH236802   0.468   1.605  11.617 -0.4857  0.0617 -0.0529
 5104TIP3    H136803   0.403   1.636  11.553 -0.5193  2.2469  0.9650
 5104TIP3    H236804   0.546   1.656  11.598  0.9893 -2.4186 -1.1439
 5105TIP3   OH236805   3.286   1.924   4.893  0.1261 -0.1869  0.0701
 5105TIP3    H136806   3.278   1.852   4.830  0.2375 -0.2427  0.1192
 5105TIP3    H236807   3.362   1.900   4.946  0.4735  0.2123 -0.2360
 5106TIP3   OH236808   2.267   6.542  16.800 -0.3294  0.6329 -0.0006
 5106TIP3    H136809   2.250   6.636  16.808  2.0430  1.0330  1.5263
 5106TIP3    H236810   2.296   6.516  16.888 -0.8109 -1.5105 -0.4339
 5107TIP3   OH236811   2.773   5.451  16.128  0.2723 -0.0955 -0.0721
 5107TIP3    H136812   2.802   5.542  16.128 -1.7368  0.5920  0.7591
 5107TIP3    H236813   2.841   5.404  16.177  1.1866  0.9791 -0.2693
 5108TIP3   OH236814   4.106   0.410   0.203  0.3453 -0.1614  0.4694
 5108TIP3    H136815   4.197   0.378   0.204  0.0012 -1.2273 -0.5377
 5108TIP3    H236816   4.106   0.479   0.137  0.0318 -1.4853 -0.9736
 5109TIP3   OH236817   0.590   1.068   0.952  0.6757 -0.0883  0.4086
 5109TIP3    H136818   0.593   1.028   1.039  2.1660 -0.4310  0.2297
 5109TIP3    H236819   0.502   1.049   0.920 -0.3660  1.2124  2.3430
 5110TIP3   OH236820   5.722   3.818  16.566  0.0732  0.0622 -0.2415
 5110TIP3    H136821   5.723   3.893  16.506  1.3662 -0.1836 -0.5481
 5110TIP3    H236822   5.642   3.830  16.617 -1.6749 -0.3133 -2.7468
 5111TIP3   OH236823   1.509   2.183  17.220 -0.3830 -0.0212  0.2146
 5111TIP3    H136824   1.492   2.095  17.252  0.6126 -0.5528 -0.6674
 5111TIP3    H236825   1.522   2.173  17.126 -0.3294  1.0800  0.0818
 5112TIP3   OH236826   0.290   3.440   3.711 -0.0846 -0.0960  0.2839
 5112TIP3    H136827   0.365   3.459   3.656  0.2324 -1.5061  0.1988
 5112TIP3    H236828   0.263   3.525   3.746  0.2177  0.7039 -1.3673
 5113TIP3   OH236829   4.924   0.614  14.633  0.3007 -0.0876 -0.1472
 5113TIP3    H136830   4.867   0.665  14.690 -0.4856 -1.4514  0.3143
 5113TIP3    H236831   5.002   0.669  14.622 -0.1371  0.8166  1.0703
 5114TIP3   OH236832   0.013   5.567  16.551  0.6096  0.0019 -0.2360
 5114TIP3    H136833   0.076   5.640  16.554  2.8110 -1.8045  0.1808
 5114TIP3    H236834   0.003   5.541  16.642 -1.1156  0.4926 -0.2526
 5115TIP3   OH236835   0.651   0.580  17.136 -0.5482  0.0584 -0.1266
 5115TIP3    H136836   0.679   0.488  17.132 -1.5703 -0.2281 -1.7727
 5115TIP3    H236837   0.721   0.628  17.090 -0.8135 -0.1396 -0.7539
 5116TIP3   OH236838   1.204   0.087   0.269  0.3886 -0.2207  0.0028
 5116TIP3    H136839   1.111   0.078   0.290  0.0338  0.0346 -1.3690
 5116TIP3    H236840   1.228   0.173   0.304 -0.3993  0.5664 -1.3299
 5117TIP3   OH236841   3.011   2.878   2.604  0.6557 -0.5166  0.5322
 5117TIP3    H136842   2.957   2.813   2.649 -0.0583  0.4303  1.0835
 5117TIP3    H236843   2.990   2.867   2.511 -0.9075  0.1514  0.7616
 5118TIP3   OH236844   2.034   0.248  13.726 -0.2585 -0.0394  0.0908
 5118TIP3    H136845   2.080   0.166  13.742  0.3903  0.5747  1.6156
 5118TIP3    H236846   2.056   0.272  13.636  1.9785 -0.0677  0.5796
 5119TIP3   OH236847   5.000   4.577  12.724 -0.0990 -0.0027 -0.7496
 5119TIP3    H136848   5.078   4.527  12.749 -0.6389 -0.2535  0.5442
 5119TIP3    H236849   5.032   4.666  12.712  0.5211 -0.2567 -1.0383
 5120TIP3   OH236850   0.538   6.427  13.697  0.2410 -0.1796 -0.4962
 5120TIP3    H136851   0.631   6.439  13.715  0.3586  1.4199 -1.8949
 5120TIP3    H236852   0.510   6.510  13.658 -1.5263 -1.0031 -1.1037
 5121TIP3   OH236853   4.367   2.870   4.202  0.3768 -0.0128 -0.6147
 5121TIP3    H136854   4.429   2.919   4.256  0.2778  0.8854 -1.2891
 5121TIP3    H236855   4.369   2.914   4.117 -1.2923  0.1312 -0.6074
 5122TIP3   OH236856   5.530   5.583   6.014 -0.3364 -0.6258 -0.2570
 5122TIP3    H136857   5.504   5.548   6.099  0.0596  0.6514  0.4143
 5122TIP3    H236858   5.484   5.529   5.950  0.3397 -2.4318  0.7145
 5123TIP3   OH236859   0.819   0.901   5.074 -0.1168  0.2216  0.2227
 5123TIP3    H136860   0.825   0.991   5.107 -0.2957  0.1876  0.3475
 5123TIP3    H236861   0.799   0.848   5.151 -2.5619  0.3836 -0.1996
 5124TIP3   OH236862   3.207   5.645  10.898  0.2127 -0.2189  0.3258
 5124TIP3    H136863   3.152   5.692  10.835  0.1860  1.1609  1.3595
 5124TIP3    H236864   3.296   5.655  10.864 -0.0928 -3.0227 -1.7257
 5125TIP3   OH236865   3.834   6.156  12.347 -0.1100 -0.3639  0.5037
 5125TIP3    H136866   3.793   6.241  12.353 -2.0244 -1.3246  1.9125
 5125TIP3    H236867   3.922   6.168  12.384 -0.7215  0.7658  1.6122
 5126TIP3   OH236868   5.748   2.372   3.080 -0.2561 -0.0992 -0.4462
 5126TIP3    H136869   5.798   2.295   3.053 -0.1087  0.2357 -1.1421
 5126TIP3    H236870   5.656   2.346   3.071 -0.2067 -0.1278 -0.8734
 5127TIP3   OH236871   4.758   4.002   3.711 -0.1860 -0.0969  0.4005
 5127TIP3    H136872   4.831   4.035   3.763 -0.5086  2.0775 -0.4105
 5127TIP3    H236873   4.689   3.984   3.776  0.1595  0.4508  0.9298
 5128TIP3   OH236874   6.514   6.196   6.463  0.2571 -0.2293 -0.0981
 5128TIP3    H136875   6.512   6.111   6.507  0.1069 -0.4402 -0.5076
 5128TIP3    H236876   6.423   6.211   6.435  0.4703 -0.4170 -0.9274
 5129TIP3   OH236877   0.892   3.887  13.145  0.4918 -0.0819  0.1161
 5129TIP3    H136878   0.846   3.831  13.083 -1.8562  0.9947  0.7399
 5129TIP3    H236879   0.893   3.973  13.104 -0.2016  0.4209  1.1072
 5130TIP3   OH236880   1.071   1.630  11.720 -0.3270 -0.5026 -0.0283
 5130TIP3    H136881   1.068   1.657  11.629  0.3586  1.9986  0.6242
 5130TIP3    H236882   1.151   1.577  11.726 -1.5718 -2.6837 -1.2815
 5131TIP3   OH236883   5.214   0.089   4.804  0.3940  0.1131 -0.1001
 5131TIP3    H136884   5.237   0.042   4.883  0.7596 -1.4653 -1.1097
 5131TIP3    H236885   5.231   0.028   4.733  2.8724  2.4258 -1.6736
 5132TIP3   OH236886   0.720   0.558  16.771 -0.0494  0.2782 -1.3061
 5132TIP3    H136887   0.756   0.586  16.855 -0.2984 -2.1731 -0.2957
 5132TIP3    H236888   0.714   0.638  16.719 -0.9745  2.0924  1.4002
 5133TIP3   OH236889   2.325   6.272  11.475  0.1326 -0.4991 -0.1466
 5133TIP3    H136890   2.310   6.202  11.413 -0.0031 -2.5850  2.1007
 5133TIP3    H236891   2.253   6.334  11.461 -0.7198 -1.6745 -1.0340
 5134TIP3   OH236892   1.990   1.712   1.806  0.1635 -0.0452 -0.2223
 5134TIP3    H136893   2.029   1.762   1.877 -0.0541 -1.8308  1.2491
 5134TIP3    H236894   1.898   1.739   1.805 -0.2500 -1.1911  1.3982
 5135TIP3   OH236895   2.659   0.873  14.997 -0.0889  0.3880  0.2019
 5135TIP3    H136896   2.740   0.850  15.043  0.3421  0.9997 -0.2204
 5135TIP3    H236897   2.603   0.911  15.065  0.4125  0.9793  0.2989
 5136TIP3   OH236898   3.734   4.684  14.067 -0.4742 -0.2013  0.3349
 5136TIP3    H136899   3.688   4.766  14.083  1.4151  1.0458 -0.2566
 5136TIP3    H236900   3.815   4.692  14.118 -0.1599 -1.6194  0.0996
 5137TIP3   OH236901   6.100   3.385  16.574  0.1852 -0.1238 -0.1974
 5137TIP3    H136902   6.006   3.403  16.567 -0.3339 -2.5503 -0.2977
 5137TIP3    H236903   6.111   3.343  16.659  0.9096 -1.2870 -0.8469
 5138TIP3   OH236904   2.337   0.278   1.604  0.7472  0.0114  0.1345
 5138TIP3    H136905   2.404   0.222   1.645 -0.0435 -0.6733  0.5100
 5138TIP3    H236906   2.273   0.293   1.674 -1.0702 -1.8704 -1.0159
 5139TIP3   OH236907   5.106   3.600   1.324 -0.3183  0.3404 -0.3610
 5139TIP3    H136908   5.019   3.582   1.358 -0.0528  0.0417  0.1647
 5139TIP3    H236909   5.136   3.676   1.373  0.1238 -0.1800  0.1895
 5140TIP3   OH236910   0.053   6.311  14.786  0.1583  0.0422  0.0945
 5140TIP3    H136911   0.043   6.381  14.850  1.8717  2.3249 -1.9337
 5140TIP3    H236912   0.131   6.264  14.813 -1.4429 -1.7723  1.9258
 5141TIP3   OH236913   0.274   6.807   2.431  0.0227 -0.3021  0.2043
 5141TIP3    H136914   0.208   6.769   2.489 -0.3915  0.4536  0.2513
 5141TIP3    H236915   0.231   6.811   2.345  0.2915 -0.5419  0.0579
 5142TIP3   OH236916   6.525   3.578   2.422 -0.0799 -0.0441  0.1641
 5142TIP3    H136917   6.620   3.579   2.436  0.0229  2.1586 -0.2428
 5142TIP3    H236918   6.501   3.671   2.417 -2.1273 -0.5665 -0.6572
 5143TIP3   OH236919   6.544   3.829  16.416  0.2896  0.2180 -0.2387
 5143TIP3    H136920   6.638   3.808  16.424  0.7920  0.7734 -3.4008
 5143TIP3    H236921   6.500   3.748  16.440  1.7261 -0.8824 -1.1009
 5144TIP3   OH236922   2.517   0.170   3.734 -0.2136  0.5107 -0.2892
 5144TIP3    H136923   2.478   0.214   3.658  0.5576  1.9326  0.0877
 5144TIP3    H236924   2.459   0.097   3.752  0.5061 -0.9667 -3.3200
 5145TIP3   OH236925   5.639   6.388   2.138  0.2296 -0.1036  0.0465
 5145TIP3    H136926   5.703   6.330   2.179  0.3354  0.6387  0.9682
 5145TIP3    H236927   5.678   6.475   2.144 -0.0692  0.1250 -1.0270
 5146TIP3   OH236928   0.094   1.585   1.612 -0.2595  0.1346  0.0487
 5146TIP3    H136929   0.099   1.514   1.548 -2.3699  0.0095 -0.0717
 5146TIP3    H236930   0.185   1.609   1.630  0.4275 -0.7405 -1.9671
 5147TIP3   OH236931   6.081   4.693  12.071  0.1592 -0.3624 -0.6259
 5147TIP3    H136932   5.992   4.663  12.090  0.2323  0.3627  1.0267
 5147TIP3    H236933   6.073   4.788  12.066  1.1078 -0.1420  1.3117
 5148TIP3   OH236934   0.565   5.809   2.581 -0.1305  0.3323  0.0595
 5148TIP3    H136935   0.569   5.794   2.676 -0.6545  0.5282  0.1151
 5148TIP3    H236936   0.566   5.721   2.543 -0.8647  0.2178  0.2880
 5149TIP3   OH236937   4.256   1.702  16.393 -0.3612 -0.0501  0.3302
 5149TIP3    H136938   4.172   1.666  16.366  0.0721 -0.6354 -0.2818
 5149TIP3    H236939   4.310   1.625  16.410 -0.7668  0.2553  3.5260
 5150TIP3   OH236940   3.521   1.153  14.392  0.0635  0.2406 -0.2101
 5150TIP3    H136941   3.477   1.068  14.401 -0.2572  0.4509  0.2224
 5150TIP3    H236942   3.615   1.132  14.395 -0.0154 -0.0542  0.3380
 5151TIP3   OH236943   4.147   4.980  13.458 -0.6725  0.1325  0.3336
 5151TIP3    H136944   4.214   5.035  13.416 -0.4486 -0.3727  0.0167
 5151TIP3    H236945   4.198   4.913  13.504 -0.8620  1.3458  2.3987
 5152TIP3   OH236946   1.356   4.210   6.385  0.0717 -0.3401  0.0921
 5152TIP3    H136947   1.331   4.193   6.294 -0.5537 -0.2379  0.2393
 5152TIP3    H236948   1.394   4.297   6.383 -0.7991  0.0490  0.0772
 5153TIP3   OH236949   1.219   2.593  11.476 -0.6082 -0.0704 -0.6045
 5153TIP3    H136950   1.127   2.566  11.479 -2.0525  4.1648  0.8409
 5153TIP3    H236951   1.231   2.626  11.387 -1.4144  1.7142 -0.1069
 5154TIP3   OH236952   4.656   4.256  16.025  0.3213  0.6284  0.3999
 5154TIP3    H136953   4.670   4.223  16.114  0.9046 -0.8114 -0.1912
 5154TIP3    H236954   4.743   4.287  15.998  0.1816  0.9063  0.2738
 5155TIP3   OH236955   5.163   4.988   3.285  0.2677 -1.1064  0.1122
 5155TIP3    H136956   5.112   4.950   3.356 -1.7574  1.0604 -0.0409
 5155TIP3    H236957   5.135   4.940   3.207 -0.2867 -1.0307  0.2652
 5156TIP3   OH236958   6.218   0.294  12.762 -0.2892 -0.2336 -0.1397
 5156TIP3    H136959   6.287   0.245  12.808  1.3178 -0.1674 -2.3027
 5156TIP3    H236960   6.182   0.353  12.829  1.7461 -0.2783  1.1085
 5157TIP3   OH236961   2.247   1.898  11.683  0.2987 -0.2899 -0.0776
 5157TIP3    H136962   2.178   1.914  11.748 -0.3106 -1.4852 -0.3978
 5157TIP3    H236963   2.288   1.816  11.711  0.1715 -0.7071 -1.0799
 5158TIP3   OH236964   0.491   2.094   2.919 -0.1890 -0.4439 -0.9546
 5158TIP3    H136965   0.468   2.028   2.854 -0.0458 -0.0425 -1.4202
 5158TIP3    H236966   0.579   2.123   2.895  0.0216 -0.5612 -0.3522
 5159TIP3   OH236967   6.673   5.079  17.113 -0.0271  0.1954  0.2613
 5159TIP3    H136968   6.647   5.167  17.138  0.3930  0.0025  1.4507
 5159TIP3    H236969   6.719   5.090  17.030 -2.0011  0.7827 -0.8013
 5160TIP3   OH236970   5.728   6.611  11.273 -0.6926  0.2561 -0.2432
 5160TIP3    H136971   5.710   6.704  11.290  0.9742  1.0017 -2.1720
 5160TIP3    H236972   5.730   6.571  11.360 -0.0664  2.3057  0.7599
 5161TIP3   OH236973   3.057   2.783   1.085 -0.2660  0.4544 -0.1831
 5161TIP3    H136974   3.134   2.826   1.122 -1.1269 -0.1519  2.6039
 5161TIP3    H236975   3.002   2.855   1.053  0.0701  1.1528  0.7615
 5162TIP3   OH236976   2.158   1.156  15.421 -0.1622  0.0817  0.3517
 5162TIP3    H136977   2.163   1.226  15.356  0.2749  0.6366  0.9737
 5162TIP3    H236978   2.184   1.077  15.373 -0.5251  0.3629 -0.3186
 5163TIP3   OH236979   0.096   3.111  11.341  0.2591  0.6855 -0.3488
 5163TIP3    H136980   0.146   3.160  11.275 -1.7633  1.1845 -1.5896
 5163TIP3    H236981   0.045   3.048  11.290  0.7475 -0.8925  1.0126
 5164TIP3   OH236982   0.596   4.628   1.933  0.6750  0.0848  0.1282
 5164TIP3    H136983   0.523   4.681   1.901  1.4474  1.4660  0.5290
 5164TIP3    H236984   0.568   4.596   2.018  0.6751  0.9641  0.4712
 5165TIP3   OH236985   2.598   5.301  16.780  0.0643  0.2229 -0.8446
 5165TIP3    H136986   2.624   5.382  16.738  0.9681 -0.7300 -2.1976
 5165TIP3    H236987   2.675   5.275  16.832 -0.0416 -0.0142 -0.8031
 5166TIP3   OH236988   2.816   0.860  11.750  0.4135  0.2598  0.5612
 5166TIP3    H136989   2.864   0.902  11.821  0.0694  0.2014  0.8311
 5166TIP3    H236990   2.801   0.929  11.686  2.1366 -0.0454 -0.2141
 5167TIP3   OH236991   2.959   2.321  15.964 -0.6525 -0.3936 -0.0219
 5167TIP3    H136992   2.982   2.392  16.024  0.4108  0.2553 -1.1793
 5167TIP3    H236993   2.863   2.320  15.965 -0.6687  0.2102  0.9702
 5168TIP3   OH236994   0.037   6.560  13.468  0.2987  0.0135  0.7017
 5168TIP3    H136995   0.106   6.549  13.402  0.2782  3.6970 -0.1328
 5168TIP3    H236996   0.038   6.478  13.517  3.9124 -0.8855 -0.5423
 5169TIP3   OH236997   5.559   1.266   4.282  0.4726  0.1136  0.2260
 5169TIP3    H136998   5.619   1.321   4.332  2.4004 -1.2607 -0.4605
 5169TIP3    H236999   5.574   1.178   4.314 -1.5943 -0.2448  0.3667
 5170TIP3   OH237000   5.848   3.459   0.266 -0.4325  0.1123 -0.0277
 5170TIP3    H137001   5.813   3.540   0.230 -0.8504  0.1451  0.4450
 5170TIP3    H237002   5.942   3.464   0.247 -0.6797 -0.0381 -1.4085
 5171TIP3   OH237003   0.581   5.151  10.974  0.2631 -0.0607  0.1965
 5171TIP3    H137004   0.517   5.217  11.000  1.0806  0.9177 -0.2101
 5171TIP3    H237005   0.611   5.178  10.888  0.4759 -1.0836 -0.0739
 5172TIP3   OH237006   5.348   2.001  16.946 -0.2019  0.5019  0.3063
 5172TIP3    H137007   5.270   2.046  16.913  0.6972  2.3208  0.5377
 5172TIP3    H237008   5.407   1.997  16.871 -0.3309 -0.4389  0.2537
 5173TIP3   OH237009   2.581   5.342  14.346  0.0697  0.5725  0.4945
 5173TIP3    H137010   2.582   5.262  14.400  0.4420  0.9436  1.0525
 5173TIP3    H237011   2.672   5.353  14.318 -0.1690  0.2378 -0.4447
 5174TIP3   OH237012   4.099   1.119   1.735  0.1409  0.6132  0.1843
 5174TIP3    H137013   4.055   1.137   1.652 -0.9069  1.4655  0.9102
 5174TIP3    H237014   4.058   1.039   1.767 -1.4854  1.8093  1.2254
 5175TIP3   OH237015   3.527   5.712  11.591 -0.1440  0.0348 -0.4420
 5175TIP3    H137016   3.540   5.712  11.496  0.3970  1.5598 -0.3983
 5175TIP3    H237017   3.598   5.767  11.624 -0.1406 -0.7362  0.8837
 5176TIP3   OH237018   6.743   3.994  11.281 -0.5636  0.7836 -0.0905
 5176TIP3    H137019   6.715   3.944  11.204  2.8202  1.1953 -1.7662
 5176TIP3    H237020   6.786   4.071  11.246 -0.6385  2.0466  2.3411
 5177TIP3   OH237021   4.840   2.075   1.533 -0.4804 -0.2336  0.0826
 5177TIP3    H137022   4.768   2.021   1.565 -1.5461 -0.5921 -2.6025
 5177TIP3    H237023   4.907   2.013   1.506 -0.2128 -0.0286  0.2733
 5178TIP3   OH237024   0.998   2.740   3.064 -0.6028 -0.1721 -0.0820
 5178TIP3    H137025   0.948   2.736   2.982 -0.7516 -1.1897  0.0461
 5178TIP3    H237026   0.983   2.829   3.096 -1.0960  0.0245 -0.8173
 5179TIP3   OH237027   2.264   4.266  13.712 -0.1304  0.4257  0.7561
 5179TIP3    H137028   2.322   4.216  13.654  0.0164  0.1682  1.1170
 5179TIP3    H237029   2.177   4.255  13.674 -0.0820 -0.0146  0.7715
 5180TIP3   OH237030   0.520   4.338   5.540  0.1519  0.3460 -0.1232
 5180TIP3    H137031   0.559   4.252   5.527 -1.6901 -0.3242 -1.9237
 5180TIP3    H237032   0.431   4.319   5.570  0.0075  1.6746  0.3628
 5181TIP3   OH237033   2.981   4.816  11.617  0.5857 -0.1257 -0.0543
 5181TIP3    H137034   3.066   4.773  11.605  1.0357 -0.1939  2.5904
 5181TIP3    H237035   2.955   4.844  11.530  1.6321 -3.2263 -1.5104
 5182TIP3   OH237036   2.123   5.838  13.861  0.1331 -0.1601  0.2792
 5182TIP3    H137037   2.164   5.914  13.902  1.0268 -0.8859  0.7798
 5182TIP3    H237038   2.156   5.840  13.771  2.5599 -1.5625  1.0576
 5183TIP3   OH237039   0.751   1.446   6.004 -0.3470  0.1025  0.0675
 5183TIP3    H137040   0.806   1.464   6.080  0.8285  0.8181 -0.9178
 5183TIP3    H237041   0.721   1.356   6.018 -0.9955  0.5498  1.8553
 5184TIP3   OH237042   4.466   2.844   0.304  0.0167  0.8913 -0.1746
 5184TIP3    H137043   4.492   2.771   0.361 -0.6427 -0.8634 -1.9932
 5184TIP3    H237044   4.372   2.832   0.291  0.3518  0.3135 -2.7097
 5185TIP3   OH237045   5.901   1.742  11.474  0.7578  0.0672  0.5788
 5185TIP3    H137046   5.886   1.819  11.418  1.2284 -0.6975 -0.6406
 5185TIP3    H237047   5.939   1.778  11.554 -2.3120  1.5006  1.5818
 5186TIP3   OH237048   6.500   1.206   3.761 -0.2767 -0.2574 -0.2794
 5186TIP3    H137049   6.538   1.277   3.709  1.0205 -0.8944 -0.2523
 5186TIP3    H237050   6.485   1.245   3.847  0.7177 -0.0824 -0.1714
 5187TIP3   OH237051   2.445   1.615  14.569 -0.4710  0.2578 -0.0537
 5187TIP3    H137052   2.440   1.605  14.474  1.0414  2.5238 -0.4507
 5187TIP3    H237053   2.449   1.709  14.583 -0.3228 -0.0388  2.2489
 5188TIP3   OH237054   2.001   3.852   1.933 -0.2603 -0.5764  0.5251
 5188TIP3    H137055   2.041   3.789   1.874 -0.7649 -0.3321 -0.0864
 5188TIP3    H237056   1.906   3.837   1.924 -0.4022  0.5228  0.0862
 5189TIP3   OH237057   1.353   3.408  13.249  0.0656 -0.0691  0.5063
 5189TIP3    H137058   1.305   3.490  13.252  0.9096  0.5935 -1.6716
 5189TIP3    H237059   1.286   3.340  13.254 -1.0990  0.8237 -1.5792
 5190TIP3   OH237060   0.397   0.914   3.541  0.2684 -0.3507  0.2365
 5190TIP3    H137061   0.446   0.833   3.552  0.5415 -0.2182  0.0058
 5190TIP3    H237062   0.418   0.966   3.619  1.1217  0.0284 -0.2334
 5191TIP3   OH237063   4.155   0.767   2.452  0.2307 -0.5633  0.0706
 5191TIP3    H137064   4.213   0.833   2.490  0.6237 -0.4026 -0.7805
 5191TIP3    H237065   4.074   0.774   2.502  1.1375 -1.2502  1.7355
 5192TIP3   OH237066   3.924   2.454  12.482 -0.1808 -0.5441 -0.1832
 5192TIP3    H137067   3.899   2.389  12.415  2.2530 -0.2782 -1.4491
 5192TIP3    H237068   3.923   2.405  12.564 -1.7758 -1.2564 -0.5706
 5193TIP3   OH237069   0.046   2.763   4.869  0.3827 -0.1592 -0.2191
 5193TIP3    H137070   0.007   2.760   4.782 -1.8354 -1.1104  0.7224
 5193TIP3    H237071  -0.011   2.708   4.923  0.5961  1.7953  2.2271
 5194TIP3   OH237072   1.699   4.008  13.152  0.0074 -0.3250 -0.5215
 5194TIP3    H137073   1.709   4.041  13.241 -1.6874 -1.1157 -0.0006
 5194TIP3    H237074   1.774   4.044  13.105  1.3039 -0.4212  1.3576
 5195TIP3   OH237075   3.827   2.536  17.211  0.1744  0.0387  0.0321
 5195TIP3    H137076   3.871   2.617  17.186 -0.3904  0.7586  1.2810
 5195TIP3    H237077   3.850   2.474  17.142 -0.4456  1.6137 -1.6752
 5196TIP3   OH237078   0.638   3.976   1.848 -0.9460 -0.0845  0.0444
 5196TIP3    H137079   0.723   4.016   1.826 -1.0772  1.8434  2.5470
 5196TIP3    H237080   0.654   3.931   1.931 -2.0938 -0.7612 -0.0875
 5197TIP3   OH237081   1.741   1.533  15.909 -0.0494  0.1886  0.2416
 5197TIP3    H137082   1.800   1.575  15.846  0.2642  1.0027  1.0568
 5197TIP3    H237083   1.657   1.577  15.896  0.1039  0.6024  0.6195
 5198TIP3   OH237084   1.431   6.066   4.814  1.0918 -0.4398  0.0146
 5198TIP3    H137085   1.402   6.094   4.728  2.6140  3.3068  0.5414
 5198TIP3    H237086   1.523   6.094   4.819  1.4813 -1.8303  2.3695
 5199TIP3   OH237087   6.250   6.341   3.900  0.0602  0.0822  0.1017
 5199TIP3    H137088   6.199   6.382   3.831  0.0946 -1.3860 -0.8415
 5199TIP3    H237089   6.230   6.248   3.892  0.5268 -0.1815  1.7009
 5200TIP3   OH237090   2.129   4.885  16.467  0.1462  0.0378  0.5311
 5200TIP3    H137091   2.205   4.944  16.461  0.5225 -0.4407  0.5091
 5200TIP3    H237092   2.059   4.931  16.421  0.5472  0.2956  0.1677
 5201TIP3   OH237093   3.966   4.375   4.197  0.0783 -0.4483 -0.0921
 5201TIP3    H137094   3.920   4.291   4.203  0.0136 -0.3649  0.6218
 5201TIP3    H237095   3.898   4.441   4.203  0.1400 -0.3381 -0.5622
 5202TIP3   OH237096   2.689   6.545  15.125 -0.0244 -0.6482 -0.0494
 5202TIP3    H137097   2.614   6.511  15.076 -0.8328 -0.1576  0.8179
 5202TIP3    H237098   2.692   6.638  15.104 -0.5801 -0.3672  1.0765
 5203TIP3   OH237099   2.845   0.014  13.766  0.4220 -0.0248  0.5940
 5203TIP3    H137100   2.784   0.044  13.834 -0.9980 -2.5920  0.5639
 5203TIP3    H237101   2.881  -0.068  13.800  1.2719 -0.3056 -0.8750
 5204TIP3   OH237102   4.274   6.775   1.341  0.0900  0.3315 -0.2211
 5204TIP3    H137103   4.367   6.753   1.328 -0.0736 -0.2953 -0.3673
 5204TIP3    H237104   4.227   6.708   1.291 -0.4281  1.0982 -0.7736
 5205TIP3   OH237105   2.905   1.457   5.692  0.4544  0.1396  0.7349
 5205TIP3    H137106   2.932   1.415   5.774 -2.6340  0.1618  1.9164
 5205TIP3    H237107   2.826   1.408   5.665  0.9180  0.6515 -1.8206
 5206TIP3   OH237108   5.085   6.403  14.488 -0.1866  0.1082 -0.2829
 5206TIP3    H137109   5.079   6.487  14.442  1.7336  0.8589  0.6882
 5206TIP3    H237110   5.175   6.373  14.472 -0.6685 -1.5161 -0.1625
 5207TIP3   OH237111   2.831   1.960   4.228  0.3369 -0.7470  0.1916
 5207TIP3    H137112   2.902   1.927   4.284  0.2948  0.9586  1.3455
 5207TIP3    H237113   2.820   2.051   4.255 -1.7506 -0.7221 -0.5485
 5208TIP3   OH237114   6.470   5.530   3.183 -0.0221 -0.4210  0.0339
 5208TIP3    H137115   6.514   5.607   3.219 -0.8089 -0.7931  1.9230
 5208TIP3    H237116   6.540   5.478   3.145  0.9712 -0.1837  1.4430
 5209TIP3   OH237117   3.960   2.374  11.084 -0.6548 -0.2919 -0.1546
 5209TIP3    H137118   3.864   2.368  11.080 -0.6058 -1.9048  0.5512
 5209TIP3    H237119   3.981   2.445  11.024 -2.3545  0.7614  0.4116
 5210TIP3   OH237120   3.260   3.482   0.017  0.0567 -0.1672 -0.6220
 5210TIP3    H137121   3.256   3.503   0.110  1.7441 -1.1491 -0.2723
 5210TIP3    H237122   3.174   3.445  -0.004  0.3518 -2.0390  1.1424
 5211TIP3   OH237123   0.978   3.567  13.920 -0.5043 -0.0557 -0.4054
 5211TIP3    H137124   1.068   3.540  13.941 -1.8350 -3.0883  2.3568
 5211TIP3    H237125   0.984   3.662  13.910  2.7312  0.1136  1.4854
 5212TIP3   OH237126   0.554   6.677  11.381 -0.1741  0.2143  0.3940
 5212TIP3    H137127   0.599   6.752  11.420 -1.0500  1.6486 -1.1761
 5212TIP3    H237128   0.466   6.679  11.420  0.5139 -1.5400  2.1767
 5213TIP3   OH237129   0.272   2.348  14.651  0.1652 -0.0521  0.0602
 5213TIP3    H137130   0.255   2.396  14.570  2.4340  1.0750  0.1605
 5213TIP3    H237131   0.302   2.415  14.713  1.6603 -1.3028  0.7655
 5214TIP3   OH237132   1.683   3.648   6.375  0.1674  0.0850  0.0109
 5214TIP3    H137133   1.596   3.615   6.354 -0.8716  0.5188  3.1226
 5214TIP3    H237134   1.738   3.570   6.378 -0.6623 -0.4929  0.3754
 5215TIP3   OH237135   4.839   5.815   4.861  0.7966  0.0504  0.6393
 5215TIP3    H137136   4.808   5.805   4.951  2.0249  2.4173  1.4240
 5215TIP3    H237137   4.912   5.753   4.854  1.7533  0.9768  1.8805
 5216TIP3   OH237138   6.731   5.740  15.168 -0.5452  0.0566 -0.0891
 5216TIP3    H137139   6.690   5.732  15.082  0.3397 -0.0591 -0.5202
 5216TIP3    H237140   6.802   5.675  15.166 -1.5400 -1.1556  1.3558
 5217TIP3   OH237141   1.366   2.261  16.051  0.6261  0.3674  0.2730
 5217TIP3    H137142   1.450   2.217  16.043  1.6176  2.3285 -0.6606
 5217TIP3    H237143   1.359   2.316  15.973 -2.0123 -0.4760 -0.2190
 5218TIP3   OH237144   5.960   6.161   2.417 -0.1964  0.3847 -0.1452
 5218TIP3    H137145   5.878   6.173   2.369 -1.1359  2.3425  1.7469
 5218TIP3    H237146   6.013   6.106   2.360 -2.3003  0.1544 -2.0564
 5219TIP3   OH237147   4.016   4.745  15.248 -0.4956  0.4139  0.1680
 5219TIP3    H137148   4.017   4.823  15.303  1.4252 -0.0011  0.8119
 5219TIP3    H237149   3.929   4.743  15.210 -1.0774  2.0408  1.3177
 5220TIP3   OH237150   3.600   5.203  14.128  0.3080  0.3452 -0.1562
 5220TIP3    H137151   3.653   5.208  14.208  0.8549  0.5968 -0.5295
 5220TIP3    H237152   3.632   5.275  14.073  0.7371 -0.5416 -1.0852
 5221TIP3   OH237153   0.821   6.222  15.334 -0.3467 -0.5879 -0.0781
 5221TIP3    H137154   0.843   6.204  15.426 -0.5614 -2.0037 -0.2854
 5221TIP3    H237155   0.861   6.150  15.285  1.1271  0.9692 -1.3026
 5222TIP3   OH237156   5.676   2.367  11.962  0.0873  0.4009 -0.4869
 5222TIP3    H137157   5.756   2.337  11.918  0.5346  0.9277 -0.0478
 5222TIP3    H237158   5.707   2.404  12.044 -0.5730  1.0396 -0.5220
 5223TIP3   OH237159   5.207   3.596   3.062  0.4671  0.4326 -0.0209
 5223TIP3    H137160   5.135   3.555   3.014  1.3677 -0.5540 -0.5959
 5223TIP3    H237161   5.181   3.592   3.154 -0.1761  0.0206 -0.2181
 5224TIP3   OH237162   0.695   1.991   4.357  0.0042  0.1800  0.0783
 5224TIP3    H137163   0.665   1.909   4.319  0.4766  0.2913 -0.5382
 5224TIP3    H237164   0.740   1.966   4.438 -0.8292 -0.0707  0.4763
 5225TIP3   OH237165   3.786   6.717   0.199 -0.2872  0.6454  0.5586
 5225TIP3    H137166   3.782   6.786   0.133 -0.9211 -0.0522 -0.1522
 5225TIP3    H237167   3.708   6.732   0.253  0.4359  1.4514  1.4116
 5226TIP3   OH237168   5.362   6.069   0.985 -0.9690 -0.0048 -0.0474
 5226TIP3    H137169   5.289   6.126   0.962 -0.2288  1.1704  0.4502
 5226TIP3    H237170   5.331   6.019   1.061 -1.1185  0.7739  0.4112
 5227TIP3   OH237171   3.542   6.229   5.581 -0.0596  0.0170  0.0033
 5227TIP3    H137172   3.548   6.133   5.579  1.6814  0.0324  1.5220
 5227TIP3    H237173   3.633   6.258   5.578 -0.5961  1.6894 -1.3777
 5228TIP3   OH237174   3.507   0.200   1.542  0.5026  0.5147 -0.0844
 5228TIP3    H137175   3.540   0.182   1.630  0.2605 -0.9106 -0.2527
 5228TIP3    H237176   3.458   0.281   1.551 -1.1209 -0.5662  1.5449
 5229TIP3   OH237177   2.495   1.711  15.346 -0.1099  0.2909  0.3360
 5229TIP3    H137178   2.441   1.779  15.305  0.6301  0.6980  0.0263
 5229TIP3    H237179   2.451   1.694  15.429 -0.9434  0.3291 -0.0819
 5230TIP3   OH237180   4.967   2.275  11.802  0.4995 -0.4109 -0.2215
 5230TIP3    H137181   4.960   2.273  11.897  1.8828  2.1856  0.0228
 5230TIP3    H237182   4.880   2.299  11.771  0.5664  0.9817  0.5846
 5231TIP3   OH237183   6.485   4.641   3.889  0.7437 -0.7979 -0.2237
 5231TIP3    H137184   6.511   4.697   3.962  1.2328 -0.7658 -0.4148
 5231TIP3    H237185   6.531   4.559   3.904  2.6163 -0.1014 -1.5965
 5232TIP3   OH237186   1.046   4.434   6.121  0.0916 -0.6900  0.2355
 5232TIP3    H137187   1.033   4.527   6.104 -0.2712 -1.0588 -1.9064
 5232TIP3    H237188   1.126   4.413   6.072 -1.3050 -1.9925 -1.6447
 5233TIP3   OH237189   0.496   4.734  13.001 -0.3252 -0.3838  0.8855
 5233TIP3    H137190   0.517   4.725  13.094 -0.3951 -1.2685  0.8220
 5233TIP3    H237191   0.493   4.644  12.968  3.0621 -0.0178 -0.7633
 5234TIP3   OH237192   1.470   0.729   1.333 -0.4654 -0.2249  0.3481
 5234TIP3    H137193   1.439   0.639   1.347 -2.0159  0.3422  0.8063
 5234TIP3    H237194   1.565   0.722   1.333 -0.5580 -1.8553  0.4634
 5235TIP3   OH237195   3.360   4.291   2.100 -0.8933  0.3626 -0.0860
 5235TIP3    H137196   3.372   4.308   2.193  1.2594 -3.0623  0.4364
 5235TIP3    H237197   3.448   4.279   2.065 -1.7471 -2.8907 -1.4950
 5236TIP3   OH237198   6.111   0.598   5.877 -0.0890  0.0021  0.4382
 5236TIP3    H137199   6.153   0.572   5.796 -1.5684  0.2829 -0.4600
 5236TIP3    H237200   6.183   0.621   5.936  1.0115 -0.4630 -0.6911
 5237TIP3   OH237201   3.083   4.116   2.308  0.6822  0.4154  0.1612
 5237TIP3    H137202   3.117   4.149   2.391  1.3844 -0.8301  0.3950
 5237TIP3    H237203   3.004   4.067   2.332  1.1843 -0.3942  0.1605
 5238TIP3   OH237204   5.299   4.702   4.054 -0.1480 -0.2102 -0.0574
 5238TIP3    H137205   5.213   4.661   4.065  0.4471 -1.8339 -0.9962
 5238TIP3    H237206   5.314   4.700   3.959  0.2096  1.6699 -0.0816
 5239TIP3   OH237207   0.611   4.373  14.775  0.0945 -0.0657 -0.1019
 5239TIP3    H137208   0.618   4.279  14.759 -0.9041  0.0556 -1.5025
 5239TIP3    H237209   0.630   4.383  14.868  1.3866 -1.4955 -0.1635
 5240TIP3   OH237210   2.370   0.153   0.832  0.2747 -0.1465 -0.2027
 5240TIP3    H137211   2.354   0.143   0.926 -0.3922 -0.0664 -0.3031
 5240TIP3    H237212   2.441   0.216   0.827  0.6048 -0.4727  0.2612
 5241TIP3   OH237213   2.016   2.035  17.194  0.6888  0.0672  0.6439
 5241TIP3    H137214   1.983   2.066  17.278  2.8522 -1.0167  2.0018
 5241TIP3    H237215   1.967   1.954  17.177 -0.9094  1.1241 -0.0349
 5242TIP3   OH237216   6.227   2.562  14.422  0.3086  0.1197  0.5320
 5242TIP3    H137217   6.204   2.491  14.361  1.3459 -0.6095  0.9634
 5242TIP3    H237218   6.165   2.552  14.494  0.0453  0.0486  0.2989
 5243TIP3   OH237219   1.736   4.802  16.020  0.1456  0.2634 -0.2563
 5243TIP3    H137220   1.789   4.762  15.951 -0.8898  0.7899 -1.4037
 5243TIP3    H237221   1.728   4.734  16.087 -0.3474 -0.9362 -1.4859
 5244TIP3   OH237222   2.646   0.587  14.890 -0.2590  0.2542  0.0969
 5244TIP3    H137223   2.678   0.676  14.875  1.9603 -0.6161 -0.9249
 5244TIP3    H237224   2.573   0.577  14.829  1.3951  0.4974 -2.0851
 5245TIP3   OH237225   4.316   1.068  14.992 -0.0100 -0.2527 -0.5140
 5245TIP3    H137226   4.403   1.028  14.991 -0.3395 -1.0718  0.6824
 5245TIP3    H237227   4.329   1.154  15.031  0.1528 -0.7515  0.5897
 5246TIP3   OH237228   6.286   2.805  16.380  0.4123  0.7715  0.5372
 5246TIP3    H137229   6.277   2.737  16.446 -1.3064  1.1119  0.7175
 5246TIP3    H237230   6.354   2.773  16.321 -0.4310 -1.1683  0.5394
 5247TIP3   OH237231   2.489   0.111   3.219  0.8307  0.3077  0.0983
 5247TIP3    H137232   2.431   0.180   3.187  0.0321 -0.1474  0.5369
 5247TIP3    H237233   2.520   0.066   3.141  0.3394  0.3566 -0.1240
 5248TIP3   OH237234   6.447   2.445  14.720  0.0807 -0.8838 -0.3873
 5248TIP3    H137235   6.452   2.357  14.684  1.1276 -1.3439  0.8006
 5248TIP3    H237236   6.537   2.464  14.748  0.3018  1.3023 -2.2637
 5249TIP3   OH237237   1.959   5.910  11.467 -0.3733 -0.2633  0.4089
 5249TIP3    H137238   2.021   5.895  11.396  0.1571 -0.0343  0.8136
 5249TIP3    H237239   1.949   5.824  11.509 -0.5905 -0.3712  0.1332
 5250TIP3   OH237240   3.246   0.026  14.215  0.1390  0.2446 -0.1547
 5250TIP3    H137241   3.318   0.089  14.219  0.7698 -0.3981 -1.1837
 5250TIP3    H237242   3.173   0.072  14.256  0.5617  1.6873 -0.9583
 5251TIP3   OH237243   6.743   5.093  14.263  0.4201  0.1196 -0.0026
 5251TIP3    H137244   6.802   5.167  14.274  1.0325 -0.5361  1.2380
 5251TIP3    H237245   6.800   5.020  14.238  0.2592 -0.6562  1.7351
 5252TIP3   OH237246   1.441   4.363   0.788  0.0527 -0.3603  0.1531
 5252TIP3    H137247   1.501   4.319   0.728 -0.6322 -0.4480 -0.4780
 5252TIP3    H237248   1.391   4.292   0.828 -1.6457 -0.1678 -1.4918
 5253TIP3   OH237249   2.413   2.308  12.573 -0.2545 -0.2022  0.5494
 5253TIP3    H137250   2.449   2.224  12.543  0.1688 -0.1444  0.8886
 5253TIP3    H237251   2.390   2.292  12.664  0.4036  0.2316  0.7950
 5254TIP3   OH237252   4.207   4.558  15.686 -0.1138  0.3228 -0.6331
 5254TIP3    H137253   4.123   4.582  15.647 -0.4205 -0.3568 -0.4121
 5254TIP3    H237254   4.196   4.467  15.713  1.0277 -0.1149 -1.5257
 5255TIP3   OH237255   3.744   4.316   0.529 -0.7586 -0.0159 -0.2826
 5255TIP3    H137256   3.709   4.254   0.593  1.2022 -1.6022 -0.6681
 5255TIP3    H237257   3.838   4.318   0.546 -0.3490  0.4414 -2.3036
 5256TIP3   OH237258   6.639   4.076  14.393  0.6363  0.3942 -0.8711
 5256TIP3    H137259   6.644   3.981  14.382  2.2933  0.4134 -0.5778
 5256TIP3    H237260   6.690   4.094  14.473 -0.9740  1.3959 -0.0165
 5257TIP3   OH237261   5.221   2.234  15.413  0.0567 -0.5361  0.3629
 5257TIP3    H137262   5.143   2.204  15.367  1.4073 -2.6748 -0.7213
 5257TIP3    H237263   5.223   2.184  15.494  0.4299 -0.7465  0.2317
 5258TIP3   OH237264   5.165   5.829  15.050  0.1108  0.3366  0.0178
 5258TIP3    H137265   5.166   5.923  15.067 -2.9289  0.2367  1.3676
 5258TIP3    H237266   5.258   5.806  15.040  1.0286  3.2549  0.6878
 5259TIP3   OH237267   5.023   2.113  14.646 -0.2537 -0.2420  0.5797
 5259TIP3    H137268   4.963   2.171  14.598 -0.9921 -1.4372  0.0121
 5259TIP3    H237269   4.966   2.046  14.684  0.7511 -1.6679 -0.3524
 5260TIP3   OH237270   2.571   3.574   1.782 -0.6808  0.5136  0.3182
 5260TIP3    H137271   2.664   3.563   1.796 -0.4791  0.2882 -1.0997
 5260TIP3    H237272   2.536   3.598   1.868  0.4108 -1.0326  1.2129
 5261TIP3   OH237273   3.520   4.570  15.132 -0.2049  0.2403 -0.6533
 5261TIP3    H137274   3.511   4.479  15.162  1.9933  0.1009 -0.2327
 5261TIP3    H237275   3.476   4.621  15.200  0.3952 -0.4020  0.2596
 5262TIP3   OH237276   1.928   0.839   4.745 -0.3521  0.8332 -0.0989
 5262TIP3    H137277   1.866   0.781   4.701 -1.2862  1.9811 -0.3473
 5262TIP3    H237278   1.961   0.896   4.676  1.3996 -0.0571 -0.0699
 5263TIP3   OH237279   3.430   6.252   5.329 -0.1199  0.2718 -0.3060
 5263TIP3    H137280   3.502   6.203   5.290 -1.0486 -2.7894  1.4826
 5263TIP3    H237281   3.456   6.263   5.421 -1.0895  0.8404 -0.0870
 5264TIP3   OH237282   2.379   6.680  12.649  0.2161 -0.2990 -0.6506
 5264TIP3    H137283   2.410   6.590  12.636  1.3800  0.1117 -0.8907
 5264TIP3    H237284   2.431   6.712  12.723  1.4240  0.8535 -1.9211
 5265TIP3   OH237285   3.855   2.657  12.786 -0.2279 -0.0272 -0.0652
 5265TIP3    H137286   3.940   2.622  12.759  0.4069  0.8028  0.8111
 5265TIP3    H237287   3.875   2.721  12.854 -1.4548  1.1593 -0.7776
 5266TIP3   OH237288   0.396   4.239  12.715  0.2332  0.0295  0.0579
 5266TIP3    H137289   0.348   4.229  12.633 -0.1716 -1.2568  0.4242
 5266TIP3    H237290   0.381   4.330  12.741 -0.2436  0.2412 -0.9139
 5267TIP3   OH237291   1.907   4.868  15.599  0.8127  0.4664 -0.1334
 5267TIP3    H137292   1.855   4.897  15.673 -0.5317 -1.1444 -0.3943
 5267TIP3    H237293   1.993   4.909  15.612  0.3317  0.9328  1.8082
 5268TIP3   OH237294   6.243   0.460   5.220  0.3478 -0.2241 -0.0811
 5268TIP3    H137295   6.191   0.514   5.280  0.5771  0.0911 -0.1656
 5268TIP3    H237296   6.271   0.521   5.151 -0.9817 -0.8332 -1.2200
 5269TIP3   OH237297   1.477   4.351   5.084 -0.5397  0.3755  0.1919
 5269TIP3    H137298   1.571   4.362   5.068 -0.5298 -0.8862 -0.8082
 5269TIP3    H237299   1.472   4.282   5.150 -0.7250  2.2438  2.2117
 5270TIP3   OH237300   1.733   0.518  12.034  0.1157  0.1256  0.1512
 5270TIP3    H137301   1.804   0.453  12.042 -1.0328 -1.2422 -0.3330
 5270TIP3    H237302   1.775   0.602  12.053  1.8477 -0.6534 -0.0623
 5271TIP3   OH237303   1.868   2.056  16.023  0.3728  0.0114 -0.0924
 5271TIP3    H137304   1.908   2.116  15.960 -3.5030 -0.7341 -3.7570
 5271TIP3    H237305   1.831   2.112  16.091  3.6450  0.9355  1.1319
 5272TIP3   OH237306   3.903   0.173   3.710 -0.2977 -0.0922  0.5754
 5272TIP3    H137307   3.836   0.154   3.776 -1.6297 -1.1028 -0.9819
 5272TIP3    H237308   3.925   0.087   3.674 -1.2638  0.5920 -1.8074
 5273TIP3   OH237309   0.909   2.367   2.876  0.5787 -0.0006 -0.4086
 5273TIP3    H137310   0.819   2.396   2.887  0.1973 -0.8612 -1.1511
 5273TIP3    H237311   0.924   2.368   2.782  1.0853 -0.5845 -0.3453
 5274TIP3   OH237312   1.988   6.783  15.418 -0.5237  0.0587 -0.8331
 5274TIP3    H137313   1.951   6.871  15.405 -2.2976 -0.5803 -0.3641
 5274TIP3    H237314   2.048   6.794  15.491 -1.0281  0.8240 -0.5130
 5275TIP3   OH237315   6.516   6.129   1.859  0.7636 -0.3331 -0.2056
 5275TIP3    H137316   6.600   6.154   1.896  0.6642  0.2656 -0.3789
 5275TIP3    H237317   6.502   6.039   1.889  1.6279 -0.5586 -0.4674
 5276TIP3   OH237318   5.023   0.818   5.969  0.1778 -0.0200  0.2291
 5276TIP3    H137319   5.040   0.751   6.035 -1.1646 -1.4737 -0.8283
 5276TIP3    H237320   5.001   0.896   6.020  2.7066 -0.0366  1.4988
 5277TIP3   OH237321   6.501   2.858  13.329  0.4339 -0.0417  0.0536
 5277TIP3    H137322   6.477   2.900  13.247  0.0678  0.4114  0.3854
 5277TIP3    H237323   6.426   2.802  13.350  0.2461  0.3381  0.4043
 5278TIP3   OH237324   3.103   4.426  16.616  0.0682 -0.1632  0.0874
 5278TIP3    H137325   3.042   4.411  16.544 -2.6376 -2.8122  2.6456
 5278TIP3    H237326   3.062   4.496  16.668  0.4792 -0.2885  0.5837
 5279TIP3   OH237327   5.609   6.602  13.413  0.3827  0.0503  0.5706
 5279TIP3    H137328   5.700   6.570  13.411 -0.3174 -2.3034 -2.4449
 5279TIP3    H237329   5.570   6.557  13.488  1.2132 -0.6990  0.5788
 5280TIP3   OH237330   1.976   6.811  16.084  0.0929  0.8506 -0.1953
 5280TIP3    H137331   2.034   6.879  16.051  0.4613  0.6808  0.0886
 5280TIP3    H237332   1.889   6.834  16.051  0.4983  0.4984 -1.5845
 5281TIP3   OH237333   4.985   4.026  16.600  0.1057 -0.0487  0.3057
 5281TIP3    H137334   4.945   3.957  16.549 -2.1467  0.9073  0.6569
 5281TIP3    H237335   5.009   3.984  16.683  1.0106 -0.9134 -0.3715
 5282TIP3   OH237336   1.388   2.731   5.544  0.1561 -0.1271 -0.0352
 5282TIP3    H137337   1.307   2.720   5.494 -0.6135  1.0555  0.9185
 5282TIP3    H237338   1.435   2.648   5.532 -0.3324 -0.1532 -2.1039
 5283TIP3   OH237339   2.174   6.415   2.893 -0.4294  0.0485  0.1106
 5283TIP3    H137340   2.225   6.419   2.813 -0.6775  2.0193  0.0202
 5283TIP3    H237341   2.148   6.323   2.900 -0.2515 -0.1937 -1.9560
 5284TIP3   OH237342   3.912   1.795  14.413  0.1681  0.4929 -0.3691
 5284TIP3    H137343   3.963   1.864  14.456  0.4285 -1.3689  2.6170
 5284TIP3    H237344   3.973   1.754  14.353  0.7668  1.2463 -0.2942
 5285TIP3   OH237345   5.726   3.941   2.810  0.6059 -0.2588 -0.3360
 5285TIP3    H137346   5.814   3.921   2.844  0.3286 -0.2483  0.3912
 5285TIP3    H237347   5.742   3.967   2.719  1.1295 -2.5654 -0.9799
 5286TIP3   OH237348   4.515   6.241   4.024 -0.0820  0.5902  0.6555
 5286TIP3    H137349   4.610   6.234   4.012  0.1599  0.5737  2.3194
 5286TIP3    H237350   4.490   6.161   4.070 -0.5677  1.4727  1.9813
 5287TIP3   OH237351   6.698   4.623   2.302 -0.0084 -0.3199 -0.1818
 5287TIP3    H137352   6.672   4.693   2.362 -0.5967 -0.1998 -0.5664
 5287TIP3    H237353   6.657   4.647   2.219  0.2038 -0.8617 -0.4466
 5288TIP3   OH237354   6.798   5.159   1.375 -0.1641 -0.3114  0.4011
 5288TIP3    H137355   6.791   5.221   1.303 -0.7375 -2.2471 -1.3008
 5288TIP3    H237356   6.823   5.213   1.451  2.5773  1.5534 -1.6348
 5289TIP3   OH237357   1.563   1.312   3.012  0.0804  0.1490  0.3024
 5289TIP3    H137358   1.619   1.235   3.001  2.1286  1.7479 -1.2313
 5289TIP3    H237359   1.498   1.305   2.941  0.1060 -0.2738  0.3199
 5290TIP3   OH237360   1.999   5.494   3.374  0.2889 -0.1250 -0.0125
 5290TIP3    H137361   2.042   5.575   3.345  0.1412 -0.4567 -1.2324
 5290TIP3    H237362   1.977   5.449   3.292 -0.5007 -0.9444  0.6411
 5291TIP3   OH237363   3.376   2.716  15.568 -0.1767  0.2371 -0.0100
 5291TIP3    H137364   3.437   2.690  15.636 -1.6670 -0.8888  0.9488
 5291TIP3    H237365   3.375   2.812  15.573  1.5263  0.2888 -0.1056
 5292TIP3   OH237366   0.971   2.783   0.654 -0.1878  0.1473 -0.5002
 5292TIP3    H137367   0.907   2.806   0.721 -0.3916 -1.5790 -0.0502
 5292TIP3    H237368   1.033   2.856   0.653 -1.5718  1.3515 -0.2040
 5293TIP3   OH237369   2.773   0.825   1.093 -0.1528  0.2430  0.0518
 5293TIP3    H137370   2.824   0.759   1.138 -2.3423 -0.5979  1.4787
 5293TIP3    H237371   2.718   0.863   1.161 -4.0069 -1.4231 -1.8232
 5294TIP3   OH237372   1.332   1.112  16.770 -0.4157 -0.1612 -0.4362
 5294TIP3    H137373   1.243   1.117  16.805  0.6136 -0.9912  2.5887
 5294TIP3    H237374   1.362   1.203  16.768 -0.7737 -0.0265  0.0850
 5295TIP3   OH237375   5.410   0.266  12.944  0.3225  0.0243 -0.2080
 5295TIP3    H137376   5.326   0.310  12.948  0.2487  0.0055 -1.3727
 5295TIP3    H237377   5.390   0.178  12.912  0.7433 -0.0914 -0.1635
 5296TIP3   OH237378   4.929   3.508  15.328 -0.8025 -0.3306 -0.2886
 5296TIP3    H137379   4.907   3.563  15.253  0.9363  2.0113  0.7785
 5296TIP3    H237380   5.024   3.496  15.322 -1.0403 -2.8749 -0.1741
 5297TIP3   OH237381   0.232   3.871   2.968  0.1309  0.5861 -0.5243
 5297TIP3    H137382   0.223   3.930   3.043 -0.7066  0.4397 -0.5080
 5297TIP3    H237383   0.318   3.894   2.931  0.4736  0.7852  0.3598
 5298TIP3   OH237384   4.944   4.376  11.252 -0.8442 -0.1917 -0.6220
 5298TIP3    H137385   4.885   4.324  11.197 -1.1923 -1.3964  0.8273
 5298TIP3    H237386   5.009   4.314  11.284  0.0461  0.7259 -0.5868
 5299TIP3   OH237387   6.785   4.124  16.384  0.4242  0.3494 -0.1829
 5299TIP3    H137388   6.838   4.198  16.356  0.2637  1.2270  1.6666
 5299TIP3    H237389   6.830   4.047  16.349  1.0585  1.2500 -1.4301
 5300TIP3   OH237390   1.454   3.758   2.652  0.0643 -0.0729 -0.3111
 5300TIP3    H137391   1.479   3.850   2.646 -0.8519  0.1581 -0.8995
 5300TIP3    H237392   1.508   3.714   2.587  1.0786 -0.0902  0.5299
 5301TIP3   OH237393   5.748   1.598  10.985 -0.3712 -0.2303 -0.0995
 5301TIP3    H137394   5.674   1.608  10.925 -1.4554 -0.7446  1.1055
 5301TIP3    H237395   5.726   1.521  11.037  0.8218 -0.1367  0.5743
 5302TIP3   OH237396   4.353   5.654  13.203 -0.4909  0.2512  0.0320
 5302TIP3    H137397   4.385   5.721  13.263 -0.1761  0.9955 -0.9423
 5302TIP3    H237398   4.288   5.699  13.149 -1.2721 -0.5783  0.2433
 5303TIP3   OH237399   5.167   5.667   6.275  0.1044  0.2553 -0.0719
 5303TIP3    H137400   5.258   5.693   6.293 -0.4843  0.8925  2.3800
 5303TIP3    H237401   5.152   5.593   6.334 -1.4169  1.1594  0.7233
 5304TIP3   OH237402   1.756   1.506   2.984  0.5990 -0.0530  0.0467
 5304TIP3    H137403   1.686   1.444   3.005  1.0452 -0.8925 -0.8538
 5304TIP3    H237404   1.741   1.529   2.893  1.7129 -0.5520 -0.2801
 5305TIP3   OH237405   1.717   2.277  15.361 -0.0009  0.6782 -0.0742
 5305TIP3    H137406   1.690   2.311  15.446  1.5698  3.0379 -0.4146
 5305TIP3    H237407   1.811   2.290  15.358  0.3731 -1.7071 -1.2439
 5306TIP3   OH237408   0.795   1.477  11.654  0.0687 -0.5999  0.6047
 5306TIP3    H137409   0.836   1.514  11.732  0.1581 -1.3572  0.9279
 5306TIP3    H237410   0.749   1.550  11.614  0.5480 -0.0627  1.0233
 5307TIP3   OH237411   4.773   0.030   0.066  0.1884 -0.3292  0.1790
 5307TIP3    H137412   4.787  -0.015   0.149 -2.0779 -0.1356  0.7136
 5307TIP3    H237413   4.812   0.117   0.079  0.7441 -0.6438  0.6597
 5308TIP3   OH237414   5.896   6.628  16.875  0.1546  0.2818  0.2422
 5308TIP3    H137415   5.836   6.673  16.814 -0.4158 -0.2926  0.3641
 5308TIP3    H237416   5.979   6.623  16.827  1.5324  4.9469  1.6363
 5309TIP3   OH237417   6.635   5.826   3.387  0.2899  0.3913  0.3956
 5309TIP3    H137418   6.617   5.822   3.293 -0.4168  0.7415  0.5108
 5309TIP3    H237419   6.549   5.826   3.428  0.5832 -1.9092  1.1527
 5310TIP3   OH237420   6.744   6.494  16.374  0.3886 -0.3584 -0.2326
 5310TIP3    H137421   6.742   6.408  16.417  1.9701 -0.4004 -0.1865
 5310TIP3    H237422   6.726   6.475  16.282 -1.4152 -0.4574  0.1049
 5311TIP3   OH237423   1.362   1.452  15.897  0.0507  0.5978  0.1108
 5311TIP3    H137424   1.456   1.467  15.907 -0.0390  1.4917 -0.3119
 5311TIP3    H237425   1.331   1.524  15.842 -0.4670 -1.0368 -1.8527
 5312TIP3   OH237426   3.393   5.295  16.426 -0.4471  0.1344  0.1204
 5312TIP3    H137427   3.432   5.213  16.457 -0.4907  0.6801  1.6757
 5312TIP3    H237428   3.301   5.289  16.454 -0.3487  0.8933  0.6045
 5313TIP3   OH237429   3.019   6.517   6.348 -0.0757  0.4710  0.1071
 5313TIP3    H137430   2.984   6.580   6.412 -1.2560 -0.5845  0.5365
 5313TIP3    H237431   3.056   6.572   6.279 -0.3295  1.6343  0.8662
 5314TIP3   OH237432   5.732   0.882  11.238  0.4464  0.1893 -0.1639
 5314TIP3    H137433   5.732   0.969  11.198  1.4873 -0.3750 -1.4536
 5314TIP3    H237434   5.822   0.850  11.227  0.1375 -0.9633  0.4880
 5315TIP3   OH237435   4.309   5.988  15.804 -0.1740  0.2513  0.6264
 5315TIP3    H137436   4.356   6.055  15.854  0.0378  0.0278  0.7339
 5315TIP3    H237437   4.331   5.906  15.849 -0.8220  0.1621  0.7863
 5316TIP3   OH237438   4.409   6.210  13.599 -0.0288  0.1141  0.4035
 5316TIP3    H137439   4.415   6.291  13.650  2.7237  0.5919 -0.5024
 5316TIP3    H237440   4.343   6.158  13.644 -0.9442  2.3239  1.7720
 5317TIP3   OH237441   1.211   0.746  13.700  0.3834 -0.2798 -0.4987
 5317TIP3    H137442   1.193   0.811  13.768  0.9478 -0.8728  0.2335
 5317TIP3    H237443   1.294   0.706  13.727 -1.7106 -3.9154  1.1207
 5318TIP3   OH237444   1.566   5.450   0.262  0.3231  0.4732 -0.3010
 5318TIP3    H137445   1.510   5.485   0.193  1.1430 -0.9439 -1.7631
 5318TIP3    H237446   1.505   5.411   0.325 -0.4093  0.3194 -1.0762
 5319TIP3   OH237447   5.963   2.519  12.902  0.2405 -0.3405  0.5525
 5319TIP3    H137448   5.974   2.614  12.897 -1.7290 -0.1549 -2.0518
 5319TIP3    H237449   5.912   2.505  12.982  1.7711  0.5809  1.7505
 5320TIP3   OH237450   2.657   1.184  14.630  0.8007 -0.2583 -0.4495
 5320TIP3    H137451   2.580   1.158  14.579 -1.2895  0.6397  2.0388
 5320TIP3    H237452   2.646   1.278  14.644  0.5523 -0.6503  2.6346
 5321TIP3   OH237453   3.331   6.324   0.182  0.5238  0.0829  0.5313
 5321TIP3    H137454   3.236   6.318   0.171  0.2099  2.9120  0.9046
 5321TIP3    H237455   3.367   6.289   0.100 -0.7034 -2.6307  1.0572
 5322TIP3   OH237456   3.364   6.128   4.884 -0.1232  0.1122  0.3459
 5322TIP3    H137457   3.376   6.054   4.943  2.5584  0.1406 -0.0625
 5322TIP3    H237458   3.303   6.186   4.930 -2.2482 -2.2348  0.6969
 5323TIP3   OH237459   2.021   6.494  15.252 -0.4032 -0.0353 -0.2136
 5323TIP3    H137460   2.100   6.509  15.303 -1.6522 -0.6912  2.0732
 5323TIP3    H237461   2.014   6.571  15.196  2.2807 -0.3859 -1.1485
 5324TIP3   OH237462   3.384   4.024   2.339  0.2676 -0.2848  0.0513
 5324TIP3    H137463   3.297   4.054   2.313  1.2004  1.5718 -1.1009
 5324TIP3    H237464   3.376   4.008   2.433 -0.6529  2.5873  0.5562
 5325TIP3   OH237465   4.535   6.318   0.847 -0.0189 -0.5468  0.3348
 5325TIP3    H137466   4.530   6.377   0.772 -0.2255  0.6732  1.2805
 5325TIP3    H237467   4.604   6.255   0.824 -0.5758 -0.6343 -1.1630
 5326TIP3   OH237468   1.959   0.949  11.362 -0.0613 -0.3039 -0.0273
 5326TIP3    H137469   2.010   0.917  11.287 -0.4668  0.9940 -0.8882
 5326TIP3    H237470   1.899   1.013  11.324  1.5368  2.4404  1.7228
 5327TIP3   OH237471   6.815   4.938  12.054  0.0631 -0.3948 -0.2687
 5327TIP3    H137472   6.829   5.024  12.014 -2.2286  1.1485  1.8728
 5327TIP3    H237473   6.806   4.878  11.980  0.8472  1.3417 -1.8645
 5328TIP3   OH237474   2.217   4.948   5.908 -0.0800 -0.4011  0.0579
 5328TIP3    H137475   2.287   4.972   5.849  0.5079 -2.0188  0.0318
 5328TIP3    H237476   2.171   4.876   5.863  0.2776 -1.5549  1.4375
 5329TIP3   OH237477   5.454   1.104   2.896  0.5230 -0.9701  0.3603
 5329TIP3    H137478   5.367   1.096   2.856 -0.1182 -2.0566  1.8808
 5329TIP3    H237479   5.459   1.031   2.957  1.6160  0.3771  1.9569
 5330TIP3   OH237480   3.495   3.655   5.041  0.4167 -0.3239 -0.2702
 5330TIP3    H137481   3.588   3.641   5.057  0.5498  0.2094 -0.5402
 5330TIP3    H237482   3.478   3.744   5.072 -0.2552 -0.8146  0.8110
 5331TIP3   OH237483   4.646   3.503  14.820  0.0085  0.2724 -0.1766
 5331TIP3    H137484   4.598   3.555  14.885  0.1416 -0.3643  0.4392
 5331TIP3    H237485   4.710   3.454  14.871  0.6136  0.3143 -0.8769
 5332TIP3   OH237486   2.376   5.744   0.764  0.3161 -0.2459 -0.2555
 5332TIP3    H137487   2.434   5.675   0.794  2.0641  0.6622 -1.3760
 5332TIP3    H237488   2.413   5.772   0.680 -1.3196  0.8955 -0.6556
 5333TIP3   OH237489   6.649   1.393  16.468  0.2972  0.3277 -0.3328
 5333TIP3    H137490   6.627   1.311  16.425  2.7257 -0.3692 -0.3954
 5333TIP3    H237491   6.716   1.432  16.412  1.2623  0.9245  1.1808
 5334TIP3   OH237492   3.490   0.420  13.880 -0.4504  0.1970 -0.1516
 5334TIP3    H137493   3.467   0.446  13.791 -0.6641  2.1492  0.4123
 5334TIP3    H237494   3.581   0.448  13.890  1.0642 -3.7181 -1.0057
 5335TIP3   OH237495   0.698   5.819   6.268 -0.2509  0.3432  0.1000
 5335TIP3    H137496   0.740   5.781   6.190  0.6817  1.6054 -0.0402
 5335TIP3    H237497   0.733   5.908   6.273 -0.3326  0.3012  1.9419
 5336TIP3   OH237498   2.540   4.574   1.944 -0.0793  0.0352  0.2642
 5336TIP3    H137499   2.465   4.587   1.886  0.3591  1.0287 -0.1129
 5336TIP3    H237500   2.578   4.491   1.916 -0.4252  0.0439 -0.2449
 5337TIP3   OH237501   3.697   5.948  11.614 -0.3627 -0.2899 -0.0982
 5337TIP3    H137502   3.692   5.968  11.707 -0.2003  0.5473 -0.2547
 5337TIP3    H237503   3.677   6.032  11.571 -2.7259 -1.1469 -0.8452
 5338TIP3   OH237504   4.601   1.319   0.305 -0.3142  0.0891  0.2375
 5338TIP3    H137505   4.521   1.318   0.252 -0.8462 -0.3581  1.0340
 5338TIP3    H237506   4.573   1.289   0.391  0.8671 -0.8818  0.3113
 5339TIP3   OH237507   1.673   5.989   0.489  0.1230 -0.2939 -0.0057
 5339TIP3    H137508   1.647   6.002   0.580  0.4621  0.4382 -0.0052
 5339TIP3    H237509   1.621   5.914   0.460 -0.6150 -0.0096  0.5390
 5340TIP3   OH237510   5.731   5.349  17.285  0.0835 -0.1493  0.4019
 5340TIP3    H137511   5.710   5.374  17.195  0.9193 -0.1256  0.2085
 5340TIP3    H237512   5.660   5.291  17.311  0.1841 -0.6867 -0.5015
 5341TIP3   OH237513   6.305   6.057   2.660  0.5511 -0.0974 -0.0848
 5341TIP3    H137514   6.328   6.079   2.570 -1.0563  0.9320 -0.2949
 5341TIP3    H237515   6.212   6.080   2.667  0.0029 -2.4138  1.1526
 5342TIP3   OH237516   4.329   5.791   4.971 -0.3142 -0.0041 -0.5446
 5342TIP3    H137517   4.372   5.741   5.041  0.5608  1.1391 -0.2282
 5342TIP3    H237518   4.368   5.878   4.977 -0.9750  0.4011 -1.8175
 5343TIP3   OH237519   1.143   1.441  14.222  0.0242 -0.0966 -0.4494
 5343TIP3    H137520   1.121   1.347  14.224  1.5410 -0.4971  2.1406
 5343TIP3    H237521   1.177   1.459  14.310  0.8999  2.6379 -1.2632
 5344TIP3   OH237522   2.385   4.017  15.161 -0.7510  0.1677 -0.3853
 5344TIP3    H137523   2.376   3.945  15.223  0.6942  0.9286  0.7740
 5344TIP3    H237524   2.332   4.088  15.197 -0.3883  0.4123 -0.3255
 5345TIP3   OH237525   3.349   0.037  13.182 -0.2872  0.1459  0.0904
 5345TIP3    H137526   3.347  -0.020  13.105 -1.7127  1.1615 -0.6640
 5345TIP3    H237527   3.433   0.082  13.176  0.5479 -1.3130  0.3165
 5346TIP3   OH237528   5.475   3.489   2.355  0.2526  0.3374 -0.1922
 5346TIP3    H137529   5.436   3.564   2.399 -0.2391 -0.0538  0.0449
 5346TIP3    H237530   5.559   3.477   2.400 -0.7107 -0.7424  1.4487
 5347TIP3   OH237531   0.128   2.610  14.975  0.9141  0.2618 -0.1008
 5347TIP3    H137532   0.188   2.680  15.001  0.9094 -0.3820  1.8028
 5347TIP3    H237533   0.101   2.570  15.058 -0.1952 -1.0751 -1.0687
 5348TIP3   OH237534   4.489   2.322   1.165 -0.6433 -0.4847 -0.5739
 5348TIP3    H137535   4.562   2.292   1.218 -0.9113 -0.7375 -0.3449
 5348TIP3    H237536   4.503   2.281   1.079 -0.9595 -1.2142 -0.2905
 5349TIP3   OH237537   4.317   0.887  11.086 -0.3355  0.1584 -0.2582
 5349TIP3    H137538   4.227   0.878  11.115 -0.5575 -0.2197 -1.0325
 5349TIP3    H237539   4.325   0.825  11.013 -0.1369  1.8238 -1.7373
 5350TIP3   OH237540   3.661   1.117  17.196 -0.2986  0.1200  1.0538
 5350TIP3    H137541   3.566   1.110  17.204 -0.4668 -2.6998 -1.5043
 5350TIP3    H237542   3.695   1.062  17.267 -0.6150  0.2537  1.3087
 5351TIP3   OH237543   6.449   3.517  14.016 -0.1034  0.2968  0.1468
 5351TIP3    H137544   6.520   3.564  13.973 -1.2468  2.4175  0.4514
 5351TIP3    H237545   6.410   3.463  13.947  0.7854  0.3326 -0.3952
 5352TIP3   OH237546   5.170   6.659   0.707  0.0940  0.2189  0.5912
 5352TIP3    H137547   5.112   6.680   0.780  0.8003 -0.3694  1.3374
 5352TIP3    H237548   5.243   6.721   0.716  0.5078 -0.2961  0.7792
 5353TIP3   OH237549   2.807   4.550  14.797 -0.5102  0.0482 -0.2153
 5353TIP3    H137550   2.727   4.500  14.777 -0.8564  0.5975 -0.2332
 5353TIP3    H237551   2.828   4.595  14.715 -0.8587  0.8273  0.1137
 5354TIP3   OH237552   6.142   0.094   5.158 -0.1694 -0.4983  0.0924
 5354TIP3    H137553   6.120   0.172   5.106  0.5984 -0.8162 -0.7535
 5354TIP3    H237554   6.220   0.120   5.207  0.5836 -0.9700 -0.8179
 5355TIP3   OH237555   6.007   5.841   4.306 -0.2098  0.0662 -0.6942
 5355TIP3    H137556   5.951   5.798   4.241 -0.6953  1.2769 -1.0963
 5355TIP3    H237557   6.015   5.776   4.376 -1.1532 -0.5789 -1.1526
 5356TIP3   OH237558   1.757   3.336  15.103  0.4769 -0.1222 -0.1460
 5356TIP3    H137559   1.703   3.312  15.178 -1.1421  1.9892 -0.5258
 5356TIP3    H237560   1.763   3.256  15.051 -1.6021 -0.6570  0.3570
 5357TIP3   OH237561   3.401   2.239   4.067 -0.0366 -0.0385 -0.2443
 5357TIP3    H137562   3.382   2.303   4.135  1.3918 -0.1056  0.2616
 5357TIP3    H237563   3.329   2.177   4.071  0.3933 -0.4657  1.7672
 5358TIP3   OH237564   5.618   0.386  17.079  0.1686 -0.1596 -0.0014
 5358TIP3    H137565   5.676   0.429  17.015  0.5768 -0.3044  0.2695
 5358TIP3    H237566   5.629   0.437  17.159  0.0057 -0.2578  0.0823
 5359TIP3   OH237567   0.292   6.055  14.652  0.2325 -0.0902 -0.0615
 5359TIP3    H137568   0.249   6.032  14.734  0.6336  0.0989  0.2073
 5359TIP3    H237569   0.348   6.130  14.674  0.0387  0.2208 -0.5962
 5360TIP3   OH237570   1.143   4.627  13.259  0.3447  0.1612 -0.1012
 5360TIP3    H137571   1.128   4.615  13.165  0.2134  0.1879 -0.0848
 5360TIP3    H237572   1.237   4.618  13.270  0.0629 -4.7490  0.4147
 5361TIP3   OH237573   3.767   1.535   5.618 -0.1332  0.3457 -0.4280
 5361TIP3    H137574   3.784   1.626   5.641  0.2436  0.1577  0.0506
 5361TIP3    H237575   3.687   1.512   5.665  0.2354  0.1804  0.1249
 5362TIP3   OH237576   0.345   3.993   6.288 -0.3884 -0.5925 -0.0456
 5362TIP3    H137577   0.331   3.903   6.318 -0.8092 -0.3429  0.5109
 5362TIP3    H237578   0.260   4.036   6.300 -0.6328 -0.5120 -1.7084
 5363TIP3   OH237579   0.325   1.795   0.168  0.4684 -0.1732  0.0655
 5363TIP3    H137580   0.300   1.857   0.237  4.5441  0.3257  1.3837
 5363TIP3    H237581   0.358   1.851   0.097 -2.0593 -0.7581 -1.6955
 5364TIP3   OH237582   4.291   5.712  14.676 -0.2203 -0.7879  0.0477
 5364TIP3    H137583   4.230   5.771  14.722  0.7645 -0.3452  0.8101
 5364TIP3    H237584   4.320   5.650  14.743  0.8071 -0.4793 -0.1002
 5365TIP3   OH237585   2.419   0.542   3.288 -0.7155 -0.5325 -0.0817
 5365TIP3    H137586   2.331   0.571   3.314 -1.4040 -2.3388 -0.2851
 5365TIP3    H237587   2.422   0.556   3.193  0.0335  1.5008  0.1854
 5366TIP3   OH237588   6.419   1.380  11.326  0.1728 -0.4231  0.4410
 5366TIP3    H137589   6.405   1.419  11.239 -0.4213 -2.1673 -0.2880
 5366TIP3    H237590   6.374   1.440  11.386  0.6465  0.8490 -0.4181
 5367TIP3   OH237591   3.525   2.933   5.442 -0.4723 -0.0918 -0.2658
 5367TIP3    H137592   3.543   2.993   5.515 -1.9084  1.6869 -1.2888
 5367TIP3    H237593   3.607   2.930   5.393 -0.9800  3.2217 -1.6144
 5368TIP3   OH237594   1.538   0.583   4.052 -0.0376 -0.1394 -0.2831
 5368TIP3    H137595   1.583   0.555   3.972  2.5766  0.9461  0.7064
 5368TIP3    H237596   1.518   0.502   4.098  1.5831 -0.6689 -0.4493
 5369TIP3   OH237597   2.995   5.347  13.722 -0.2893  0.2144  0.4187
 5369TIP3    H137598   3.085   5.377  13.718 -0.4217  0.8595  1.8078
 5369TIP3    H237599   2.942   5.426  13.720 -0.9510 -0.1941 -1.9265
 5370TIP3   OH237600   3.931   4.699  14.260 -0.2903 -0.1390  0.4630
 5370TIP3    H137601   4.011   4.724  14.214  0.0037 -0.5715  0.7364
 5370TIP3    H237602   3.960   4.673  14.347 -0.8833  0.9636  1.0052
 5371TIP3   OH237603   4.123   3.830   6.402  0.9858 -0.2065  0.0011
 5371TIP3    H137604   4.050   3.787   6.446  0.0217  0.6854 -0.6785
 5371TIP3    H237605   4.177   3.757   6.369  0.8345 -0.8692  1.1575
 5372TIP3   OH237606   1.873   5.504   0.017 -0.3455  0.3612  0.4960
 5372TIP3    H137607   1.825   5.578  -0.021  0.2425 -0.3596 -1.7716
 5372TIP3    H237608   1.858   5.432  -0.043  2.9152 -0.1125  0.0706
 5373TIP3   OH237609   0.824   6.727  12.209 -0.3041 -0.2597 -1.1259
 5373TIP3    H137610   0.825   6.778  12.127 -1.7616 -0.9564 -1.6127
 5373TIP3    H237611   0.778   6.784  12.271  0.6283  0.1861 -0.8180
 5374TIP3   OH237612   0.021   4.606  11.644  0.0508 -1.0199 -0.9921
 5374TIP3    H137613   0.045   4.518  11.672 -0.1842 -1.6819 -2.7797
 5374TIP3    H237614   0.104   4.651  11.631  0.1706 -0.9434 -0.0228
 5375TIP3   OH237615   6.284   2.319   4.667 -0.2827  0.0178 -0.1991
 5375TIP3    H137616   6.332   2.254   4.615 -1.2165  0.7086 -1.9750
 5375TIP3    H237617   6.291   2.400   4.617 -4.0278 -0.0291 -1.0587
 5376TIP3   OH237618   1.819   1.436   1.994  0.6166  0.0794  0.2172
 5376TIP3    H137619   1.915   1.440   2.001  0.5859  0.3361  0.5315
 5376TIP3    H237620   1.802   1.353   1.951  0.9395 -0.4563  1.0859
 5377TIP3   OH237621   0.500   6.560   0.893 -0.4020 -0.2935 -0.4758
 5377TIP3    H137622   0.478   6.637   0.840  1.9266  1.8833  1.4129
 5377TIP3    H237623   0.461   6.578   0.978  1.8635 -0.1024  0.5999
 5378TIP3   OH237624   5.055   6.217  12.912  0.5230 -0.0297 -0.3323
 5378TIP3    H137625   5.064   6.309  12.939 -0.7517  0.2560 -0.8062
 5378TIP3    H237626   4.989   6.219  12.843 -0.6491 -1.4851  0.6752
 5379TIP3   OH237627   6.764   0.570  11.921 -0.7341  0.1055 -0.4590
 5379TIP3    H137628   6.789   0.505  11.986  1.3153  0.7144 -0.5757
 5379TIP3    H237629   6.745   0.519  11.842 -2.3078 -0.5579  0.3109
 5380TIP3   OH237630   2.432   4.225  15.501  0.4253 -0.0122  0.2663
 5380TIP3    H137631   2.383   4.241  15.421 -1.4612 -0.3916  1.2962
 5380TIP3    H237632   2.454   4.313  15.534 -1.7636  0.3104  1.0499
 5381TIP3   OH237633   3.289   2.657   2.618  0.0687 -0.2572  0.5686
 5381TIP3    H137634   3.358   2.675   2.683  0.4308 -1.9275  0.6857
 5381TIP3    H237635   3.336   2.634   2.538 -0.3766  0.4719  0.0862
 5382TIP3   OH237636   1.061   6.066   2.373  0.1764 -0.7779  0.2509
 5382TIP3    H137637   0.998   6.027   2.433 -0.4479 -0.3490 -0.1128
 5382TIP3    H237638   1.102   5.992   2.329 -0.2433 -1.0535  0.3230
 5383TIP3   OH237639   1.872   2.932   3.556 -0.4000 -0.0902 -0.8177
 5383TIP3    H137640   1.900   2.946   3.466 -4.1139  3.0234 -1.7879
 5383TIP3    H237641   1.890   3.016   3.600  0.2366 -1.1375  1.0526
 5384TIP3   OH237642   2.327   3.550  11.491  0.2913 -0.0407  0.6116
 5384TIP3    H137643   2.299   3.556  11.582 -0.5089  0.3440  0.3535
 5384TIP3    H237644   2.284   3.623  11.448  1.8063  0.6478  0.1942
 5385TIP3   OH237645   0.177   6.191   0.687  0.5619 -0.1870  0.4125
 5385TIP3    H137646   0.214   6.103   0.698  0.5983 -0.2432 -0.1347
 5385TIP3    H237647   0.233   6.247   0.739 -0.4027 -0.7070  2.0991
 5386TIP3   OH237648   1.709   2.746  14.856  0.1166 -0.2390  0.0933
 5386TIP3    H137649   1.653   2.801  14.801 -1.1555 -1.5372  0.0425
 5386TIP3    H237650   1.663   2.739  14.939  0.5063 -0.8099  0.2704
 5387TIP3   OH237651   5.248   4.149  11.908  0.4958  0.5965  0.0138
 5387TIP3    H137652   5.218   4.086  11.973  1.3332  0.1746  0.0165
 5387TIP3    H237653   5.291   4.096  11.841  0.7281  1.1197 -0.2634
 5388TIP3   OH237654   0.348   6.727   0.710 -1.1141 -0.0313  0.6648
 5388TIP3    H137655   0.312   6.744   0.623 -2.8705  0.5842  1.4586
 5388TIP3    H237656   0.384   6.812   0.738  2.6395 -0.9692 -0.7450
 5389TIP3   OH237657   3.682   5.672  12.852 -0.1722  0.4715  0.0244
 5389TIP3    H137658   3.686   5.610  12.779 -0.0303  0.2270  0.2386
 5389TIP3    H237659   3.595   5.659  12.889 -0.0600  0.2366  0.2102
 5390TIP3   OH237660   3.713   0.615   2.891 -0.2507 -0.1521  0.2624
 5390TIP3    H137661   3.801   0.642   2.866 -0.3455 -0.2294 -0.1749
 5390TIP3    H237662   3.710   0.626   2.986 -0.7762  2.8372  0.0058
 5391TIP3   OH237663   6.128   4.224   6.066 -0.0108  0.0467  0.0802
 5391TIP3    H137664   6.172   4.292   6.117  0.8083  0.5654 -1.2719
 5391TIP3    H237665   6.064   4.271   6.013  0.0840 -0.3179 -0.3672
 5392TIP3   OH237666   3.861   3.441  15.843 -0.3195 -0.0883 -0.0909
 5392TIP3    H137667   3.882   3.355  15.806 -2.1951 -0.1055 -1.2064
 5392TIP3    H237668   3.939   3.464  15.894  1.1740 -1.3815 -1.6590
 5393TIP3   OH237669   5.704   2.956   2.766 -0.0573  0.2250  0.0453
 5393TIP3    H137670   5.612   2.984   2.771 -0.4986 -0.7349 -1.7068
 5393TIP3    H237671   5.748   3.029   2.723 -0.3376  0.0443 -0.5646
 5394TIP3   OH237672   0.127   2.663  15.559  0.3586 -0.4581  0.1954
 5394TIP3    H137673   0.221   2.649  15.545  0.3995  0.2709 -0.2956
 5394TIP3    H237674   0.122   2.749  15.601  0.0173 -1.2524  1.8987
 5395TIP3   OH237675   3.336   6.129   4.183  0.3335  0.0862 -0.1086
 5395TIP3    H137676   3.419   6.110   4.226 -0.8926 -3.5183  1.0850
 5395TIP3    H237677   3.276   6.150   4.255 -0.7035 -1.6118 -0.4088
 5396TIP3   OH237678   2.232   4.601  16.125  0.2501  0.6768 -0.5740
 5396TIP3    H137679   2.190   4.606  16.039 -0.2555  0.6248 -0.3332
 5396TIP3    H237680   2.256   4.509  16.135 -1.8685  0.1904  0.3537
 5397TIP3   OH237681   1.592   1.705   5.406 -0.0357  0.0462  0.5674
 5397TIP3    H137682   1.644   1.780   5.434 -1.9163  2.6577 -2.1976
 5397TIP3    H237683   1.631   1.678   5.323 -0.2913 -1.0703  0.7977
 5398TIP3   OH237684   0.751   2.984  11.998  0.3110 -0.2421  0.5925
 5398TIP3    H137685   0.794   3.070  12.005 -0.4768  0.3150 -0.8852
 5398TIP3    H237686   0.673   2.992  12.053  0.6040 -0.2704  1.0201
 5399TIP3   OH237687   0.284   1.295   1.370 -0.0766  0.3846  0.1702
 5399TIP3    H137688   0.206   1.273   1.319  0.3196  0.3114 -0.4166
 5399TIP3    H237689   0.311   1.211   1.408 -2.3724  0.9494  3.4573
 5400TIP3   OH237690   0.399   2.488  16.134 -0.4184 -0.2531 -0.6228
 5400TIP3    H137691   0.380   2.567  16.185  2.3022  1.8689 -2.5059
 5400TIP3    H237692   0.447   2.432  16.194 -1.4005  0.0267  0.4504
 5401TIP3   OH237693   0.778   5.441  16.551  0.1242 -0.7119 -0.1409
 5401TIP3    H137694   0.785   5.517  16.493 -2.5625 -0.4694 -0.2711
 5401TIP3    H237695   0.822   5.469  16.632 -1.2532  1.2281  0.0038
 5402TIP3   OH237696   3.577   0.834   5.820 -0.6259  0.3755  0.3900
 5402TIP3    H137697   3.612   0.780   5.891 -0.9292  0.2070  0.4113
 5402TIP3    H237698   3.489   0.801   5.805  0.0563 -0.8498 -1.3313
 5403TIP3   OH237699   4.926   0.941  14.570 -0.1317 -0.0480  0.1015
 5403TIP3    H137700   4.920   0.921  14.476  1.8572 -0.1385 -0.0349
 5403TIP3    H237701   4.931   1.037  14.573  0.2117 -0.0669  0.0943
 5404TIP3   OH237702   4.584   2.957   3.926 -0.2929  0.6373 -0.6475
 5404TIP3    H137703   4.588   3.018   3.852  1.0520  0.8492 -0.4225
 5404TIP3    H237704   4.525   2.888   3.897 -2.4165  2.3320 -0.6786
 5405TIP3   OH237705   5.741   4.100   5.498 -0.2339  0.0210 -0.1145
 5405TIP3    H137706   5.817   4.135   5.545 -0.3571 -1.3616  1.1609
 5405TIP3    H237707   5.778   4.061   5.419  0.4636 -1.0655  0.7276
 5406TIP3   OH237708   5.911   5.177  14.374  0.2921  0.5626 -1.0217
 5406TIP3    H137709   5.830   5.227  14.374 -1.0143 -1.4326 -0.6417
 5406TIP3    H237710   5.905   5.122  14.296  0.5553 -0.6417 -0.2264
 5407TIP3   OH237711   6.195   2.097   3.759  0.0364  0.0254  0.5037
 5407TIP3    H137712   6.101   2.089   3.778 -0.0368 -1.0810 -0.2381
 5407TIP3    H237713   6.212   2.030   3.693  1.3659  0.1785  0.6608
 5408TIP3   OH237714   5.155   1.206  12.044  0.0948 -0.1775  0.2614
 5408TIP3    H137715   5.192   1.183  11.958  0.5787 -2.5466  1.0350
 5408TIP3    H237716   5.069   1.241  12.023  0.7789  0.7124 -1.2760
 5409TIP3   OH237717   5.795   6.280  12.145 -0.5814  0.5323 -0.2791
 5409TIP3    H137718   5.870   6.221  12.140  0.2949  1.5099  0.8054
 5409TIP3    H237719   5.785   6.299  12.238 -1.5634  1.1941 -0.5031
 5410TIP3   OH237720   4.179   6.621   0.794 -0.0089  0.5013  0.7437
 5410TIP3    H137721   4.251   6.575   0.749  0.4050  1.5640  0.2893
 5410TIP3    H237722   4.221   6.697   0.834 -1.0287  1.6238 -0.2719
 5411TIP3   OH237723   4.977   0.535   1.409  0.0623 -0.0375 -0.4563
 5411TIP3    H137724   5.002   0.503   1.496 -2.2468  0.1318  0.3358
 5411TIP3    H237725   5.060   0.548   1.363  1.4555  1.3106  2.2233
 5412TIP3   OH237726   6.098   3.416   5.915  0.2419 -0.5965  0.6362
 5412TIP3    H137727   6.082   3.326   5.946  2.0248 -1.4890 -0.8567
 5412TIP3    H237728   6.055   3.420   5.830  0.9876 -0.3726  0.2608
 5413TIP3   OH237729   2.609   0.796  12.718  0.0286 -0.1207  0.1478
 5413TIP3    H137730   2.563   0.799  12.634  0.4224 -0.9380 -0.1088
 5413TIP3    H237731   2.642   0.885  12.731 -0.1724  0.0527 -0.4794
 5414TIP3   OH237732   0.001   1.822  10.759 -0.0464  0.9421  0.4106
 5414TIP3    H137733  -0.042   1.737  10.764  1.6286  0.1027  1.8162
 5414TIP3    H237734   0.009   1.840  10.665  0.7172 -1.0952  0.0463
 5415TIP3   OH237735   4.674   2.801  10.994 -0.6272  0.2704  1.1222
 5415TIP3    H137736   4.743   2.848  11.041 -0.7716  0.5398  1.0706
 5415TIP3    H237737   4.687   2.709  11.017  1.1903  0.0023 -0.6717
 5416TIP3   OH237738   5.838   2.990  11.537 -0.1372 -0.0942  0.1376
 5416TIP3    H137739   5.812   3.062  11.480  0.6723 -1.3502 -1.9339
 5416TIP3    H237740   5.758   2.939  11.550 -0.3224  0.1919  0.1081
 5417TIP3   OH237741   2.999   2.359   4.105  0.3162 -0.1481  0.1696
 5417TIP3    H137742   3.034   2.335   4.019 -1.2341  1.0936 -0.8762
 5417TIP3    H237743   3.056   2.430   4.134 -0.0036  0.4173 -0.5347
 5418TIP3   OH237744   3.820   2.872   4.407 -0.6778  0.0925 -0.0063
 5418TIP3    H137745   3.851   2.943   4.351 -1.4018  0.6831  0.3236
 5418TIP3    H237746   3.728   2.861   4.383  0.2219 -3.3373 -2.7842
 5419TIP3   OH237747   0.372   5.424  13.426  0.1491 -0.2747  0.3162
 5419TIP3    H137748   0.282   5.409  13.456 -0.4549  0.3353 -1.1279
 5419TIP3    H237749   0.366   5.498  13.366  1.7504  0.2517  0.7488
 5420TIP3   OH237750   5.250   0.248  11.829  0.0094  0.0977 -0.0251
 5420TIP3    H137751   5.216   0.227  11.915 -0.0101  0.5847  0.0873
 5420TIP3    H237752   5.186   0.211  11.768 -1.3151  1.9144  0.1787
 5421TIP3   OH237753   3.015   3.285  15.701  0.6179  0.2066  0.2171
 5421TIP3    H137754   3.060   3.347  15.644  1.6532 -0.7845 -0.0851
 5421TIP3    H237755   2.938   3.332  15.732  2.2774  2.3048  1.4187
 5422TIP3   OH237756   5.867   1.200   1.000 -0.2038  0.2967  0.5973
 5422TIP3    H137757   5.816   1.269   0.958  0.2839  0.5186  0.3543
 5422TIP3    H237758   5.854   1.215   1.094 -1.0129  0.0147  0.5346
 5423TIP3   OH237759   4.725   4.463  16.244  0.3608 -0.0811  0.1074
 5423TIP3    H137760   4.742   4.389  16.302  1.1392  0.5699  0.7537
 5423TIP3    H237761   4.637   4.492  16.267  0.7833  0.3773  1.2466
 5424TIP3   OH237762   2.612   1.575  16.939 -0.3098  0.5262  0.0226
 5424TIP3    H137763   2.554   1.554  16.866  0.7626  0.6336 -0.8932
 5424TIP3    H237764   2.647   1.662  16.917 -1.3688  1.3890  1.5959
 5425TIP3   OH237765   3.566   4.754  10.652  0.3618 -0.3362  0.3206
 5425TIP3    H137766   3.632   4.694  10.618 -0.0756 -1.1343  0.8582
 5425TIP3    H237767   3.527   4.793  10.574 -0.8467 -2.3821 -0.1531
 5426TIP3   OH237768   3.588   2.910  16.581  0.0784  0.6391 -0.0694
 5426TIP3    H137769   3.565   2.866  16.499 -2.7522 -0.1783  1.0292
 5426TIP3    H237770   3.682   2.924  16.575  0.3648 -1.4844 -2.4604
 5427TIP3   OH237771   5.277   5.686  11.730  0.4728  0.0369 -0.2277
 5427TIP3    H137772   5.241   5.652  11.648  0.5089  0.6099 -0.4874
 5427TIP3    H237773   5.279   5.781  11.717  2.8095 -0.0011 -0.5420
 5428TIP3   OH237774   1.426   3.251   1.957 -0.2266  0.0320 -0.3146
 5428TIP3    H137775   1.483   3.175   1.970  1.4282  1.1599 -0.5892
 5428TIP3    H237776   1.382   3.263   2.041  0.7253 -0.2816  0.2392
 5429TIP3   OH237777   0.744   2.928  13.527 -0.3511  0.4194 -0.4190
 5429TIP3    H137778   0.753   2.948  13.620 -0.0789  0.0192 -0.3573
 5429TIP3    H237779   0.728   2.833  13.524  0.6804  0.2424 -0.8366
 5430TIP3   OH237780   4.388   6.089   2.908  0.6283  0.7391  0.4264
 5430TIP3    H137781   4.347   6.039   2.978 -0.4863  2.0393  0.7549
 5430TIP3    H237782   4.419   6.023   2.846 -1.3581 -0.3506  0.5012
 5431TIP3   OH237783   2.449   0.280  14.488  0.4083 -0.0937 -0.8849
 5431TIP3    H137784   2.468   0.289  14.582  0.7578  1.4230 -1.0773
 5431TIP3    H237785   2.425   0.369  14.460 -0.2073 -0.6322 -2.1273
 5432TIP3   OH237786   3.765   6.030  16.833 -0.0833 -0.6364 -0.1854
 5432TIP3    H137787   3.796   5.950  16.791  0.9720 -0.2007 -0.2873
 5432TIP3    H237788   3.744   6.004  16.922  1.3010 -0.8330  0.1104
 5433TIP3   OH237789   6.548   6.303   4.115 -0.3589  0.1126 -0.3728
 5433TIP3    H137790   6.473   6.352   4.081 -0.4209  0.7290  0.6175
 5433TIP3    H237791   6.614   6.310   4.046 -1.1215 -0.2739 -1.1749
 5434TIP3   OH237792   0.075   3.676  12.838  0.1278  0.4357  0.3165
 5434TIP3    H137793   0.075   3.660  12.744  0.4575  0.2822  0.3394
 5434TIP3    H237794   0.168   3.688  12.860  0.3705 -2.0999  1.0401
 5435TIP3   OH237795   5.390   4.955  15.853  0.2842  0.1689 -0.6949
 5435TIP3    H137796   5.472   4.959  15.803  0.7945  2.5604  0.2313
 5435TIP3    H237797   5.352   5.042  15.846 -1.7661 -0.6180 -0.3262
 5436TIP3   OH237798   5.865   1.927  11.266 -0.2919  0.1205  1.1516
 5436TIP3    H137799   5.771   1.918  11.276 -0.3590 -1.6718 -0.4585
 5436TIP3    H237800   5.885   1.883  11.183  2.2527 -1.9215  2.6798
 5437TIP3   OH237801   1.618   2.810   1.210 -0.2995  0.5216  0.2213
 5437TIP3    H137802   1.537   2.799   1.159 -1.3545  2.2000  1.4370
 5437TIP3    H237803   1.608   2.749   1.283 -0.4914  0.7455  0.3839
 5438TIP3   OH237804   4.706   3.306   1.883 -0.0644  0.0413 -0.2058
 5438TIP3    H137805   4.625   3.258   1.864  0.3298 -0.7141 -0.0333
 5438TIP3    H237806   4.679   3.397   1.890 -0.8498 -0.1635 -0.4719
 5439TIP3   OH237807   1.934   4.680  13.625 -0.0801 -0.1506  0.2944
 5439TIP3    H137808   1.952   4.654  13.535  0.4878  1.3348 -0.0550
 5439TIP3    H237809   1.893   4.604  13.665  1.2380 -1.4456 -0.7208
 5440TIP3   OH237810   2.009   0.139  17.223  0.2951  0.2977  0.2322
 5440TIP3    H137811   1.980   0.198  17.154  0.7578  0.5321  0.2321
 5440TIP3    H237812   1.947   0.155  17.295  1.1582  1.7222  0.6912
 5441TIP3   OH237813   6.461   6.668   5.117  0.4435 -0.4606  0.3858
 5441TIP3    H137814   6.482   6.582   5.080 -1.5195 -1.2599  1.0213
 5441TIP3    H237815   6.483   6.730   5.047 -0.7629 -1.7147 -1.1852
 5442TIP3   OH237816   5.759   0.525   3.006 -0.2457 -0.0104  0.3730
 5442TIP3    H137817   5.735   0.573   2.926  1.3252 -0.4838 -0.4165
 5442TIP3    H237818   5.681   0.531   3.061 -1.8830 -0.7785 -1.7030
 5443TIP3   OH237819   6.550   1.068   4.912  0.1909 -0.5311  0.2023
 5443TIP3    H137820   6.591   1.107   4.989 -2.5734  0.8668  1.1072
 5443TIP3    H237821   6.493   0.999   4.947 -0.4867 -0.4282 -0.6460
 5444TIP3   OH237822   1.737   6.144   2.556 -0.0956  0.1437  0.1277
 5444TIP3    H137823   1.691   6.060   2.560 -1.6757  0.9541 -0.1926
 5444TIP3    H237824   1.797   6.135   2.482 -0.1992 -0.7283  0.1480
 5445TIP3   OH237825   3.354   0.440   1.515  0.2423 -0.1544  0.1946
 5445TIP3    H137826   3.363   0.492   1.595  2.8949  0.7124 -0.5709
 5445TIP3    H237827   3.376   0.501   1.445 -0.8305 -1.2273 -1.1158
 5446TIP3   OH237828   1.221   0.026  11.615  0.3506  0.0548  0.0108
 5446TIP3    H137829   1.251   0.007  11.704  0.9166  0.6715 -0.0415
 5446TIP3    H237830   1.161  -0.046  11.594 -1.3420  0.9141  1.6063
 5447TIP3   OH237831   3.210   4.932  12.031 -0.1048 -0.1830  0.4030
 5447TIP3    H137832   3.301   4.903  12.026  0.1758  0.8105 -1.3396
 5447TIP3    H237833   3.159   4.856  12.004  0.5149  0.2984 -2.4930
 5448TIP3   OH237834   0.285   1.188  12.955  0.3963  0.1013  0.2681
 5448TIP3    H137835   0.314   1.274  12.924  1.6743 -0.8356 -1.2963
 5448TIP3    H237836   0.321   1.181  13.043  1.1642  0.7618  0.0168
 5449TIP3   OH237837   3.769   0.018  16.427  0.2752 -0.0016  0.1914
 5449TIP3    H137838   3.808  -0.046  16.367 -1.2858 -0.5115 -0.3235
 5449TIP3    H237839   3.780  -0.021  16.514  2.2069  0.5668  0.2460
 5450TIP3   OH237840   5.926   2.024   5.690 -0.2338  0.0387  0.2196
 5450TIP3    H137841   5.919   1.967   5.767  0.8071 -1.5720 -0.8069
 5450TIP3    H237842   5.847   2.006   5.640 -0.7332  0.8108  0.7140
 5451TIP3   OH237843   1.406   1.967   2.775  0.4295 -0.0438 -0.4049
 5451TIP3    H137844   1.475   2.013   2.823  0.8265 -1.2665  0.2368
 5451TIP3    H237845   1.334   1.960   2.838  0.2476 -0.0162 -0.6102
 5452TIP3   OH237846   0.396   4.406  15.887  0.8669 -0.0951  0.1471
 5452TIP3    H137847   0.473   4.350  15.879 -0.0544 -1.4472  0.4177
 5452TIP3    H237848   0.324   4.346  15.907  0.0583  1.3225  1.7879
 5453TIP3   OH237849   2.894   6.072  15.513 -0.4190 -0.5764 -0.3491
 5453TIP3    H137850   2.960   6.064  15.444 -0.3586 -1.0154 -0.2467
 5453TIP3    H237851   2.812   6.088  15.467 -0.7352 -2.7511 -0.6774
 5454TIP3   OH237852   5.401   1.307  16.724  0.5198 -0.4923 -0.0972
 5454TIP3    H137853   5.481   1.259  16.744  0.5263  0.4222  2.5535
 5454TIP3    H237854   5.429   1.377  16.665  1.3811 -1.0931 -0.4105
 5455TIP3   OH237855   5.908   2.141   3.796 -0.4964  0.1983  0.2549
 5455TIP3    H137856   5.900   2.234   3.775 -0.7814  0.0725 -0.1952
 5455TIP3    H237857   5.869   2.095   3.721  0.0074 -0.2944  0.2867
 5456TIP3   OH237858   4.451   5.469   1.141  0.5099 -0.0640  0.0682
 5456TIP3    H137859   4.370   5.419   1.134  1.0231 -1.1523  1.4523
 5456TIP3    H237860   4.423   5.560   1.153 -0.4545  0.3970 -4.1603
 5457TIP3   OH237861   2.599   1.976   4.527  0.4719 -0.5405 -1.2253
 5457TIP3    H137862   2.568   2.055   4.483  0.6278 -0.4309 -1.1404
 5457TIP3    H237863   2.546   1.971   4.607  0.8813 -0.1840 -0.9274
 5458TIP3   OH237864   0.174   1.169  12.645 -0.4569 -0.1973 -0.3586
 5458TIP3    H137865   0.227   1.089  12.648 -1.6998 -1.0841 -1.1550
 5458TIP3    H237866   0.156   1.189  12.737 -0.1723 -0.8619 -0.1531
 5459TIP3   OH237867   5.817   0.370   5.062 -0.2061  0.2131 -0.1969
 5459TIP3    H137868   5.778   0.297   5.014 -0.3601 -0.6237  1.1600
 5459TIP3    H237869   5.745   0.434   5.071 -0.2171  0.3081 -0.9272
 5460TIP3   OH237870   2.362   0.914   0.249  0.1494 -0.0752 -0.1037
 5460TIP3    H137871   2.403   0.979   0.306  0.8758 -0.3877 -0.2615
 5460TIP3    H237872   2.290   0.961   0.207  0.7047  0.6490 -0.2664
 5461TIP3   OH237873   0.729   4.420  11.308  0.0842  0.1249 -0.2030
 5461TIP3    H137874   0.764   4.380  11.388  0.1579 -0.2148 -0.4010
 5461TIP3    H237875   0.743   4.514  11.319  1.0864 -0.0080 -0.2909
 5462TIP3   OH237876   6.444   0.038   4.873  0.0859  0.0450  0.0294
 5462TIP3    H137877   6.515  -0.023   4.854  1.2638  1.6826 -1.1134
 5462TIP3    H237878   6.483   0.124   4.861 -1.7659  1.0232  0.6840
 5463TIP3   OH237879   1.854   0.492  15.226 -0.6186  0.1323 -0.4180
 5463TIP3    H137880   1.863   0.587  15.234  0.4523  0.0825 -0.8749
 5463TIP3    H237881   1.826   0.478  15.135 -2.2745  0.0768  0.0614
 5464TIP3   OH237882   4.625   3.129   0.831  0.3192 -0.6534  0.3327
 5464TIP3    H137883   4.559   3.167   0.890 -0.2686  0.8502 -1.2010
 5464TIP3    H237884   4.586   3.046   0.802 -0.2232 -0.4932  0.5921
 5465TIP3   OH237885   1.080   1.552   6.036  0.3993 -0.2287  0.1148
 5465TIP3    H137886   1.049   1.523   6.121  0.5192 -0.1023  0.2020
 5465TIP3    H237887   1.174   1.562   6.046  0.4808 -0.6958 -0.1763
 5466TIP3   OH237888   1.444   0.999  14.698  0.5349 -0.1858  0.2023
 5466TIP3    H137889   1.366   0.948  14.722 -0.9184  2.3653  1.2286
 5466TIP3    H237890   1.517   0.942  14.721 -0.9198 -3.0995 -1.6931
 5467TIP3   OH237891   2.080   2.838  10.986 -0.3865 -0.5729 -0.2504
 5467TIP3    H137892   2.004   2.886  10.952  0.5698  1.5276  0.3987
 5467TIP3    H237893   2.145   2.843  10.917  0.2522  0.4713  0.3884
 5468TIP3   OH237894   2.768   5.149  14.456 -0.4142  0.1104 -0.5007
 5468TIP3    H137895   2.700   5.083  14.463  0.6223 -0.8402  1.2490
 5468TIP3    H237896   2.778   5.184  14.544  0.2239  1.4351 -1.0589
 5469TIP3   OH237897   0.143   2.325   4.791  0.6256  0.2151  0.0950
 5469TIP3    H137898   0.198   2.400   4.817  1.6843  0.3132 -2.2329
 5469TIP3    H237899   0.085   2.361   4.724  1.4195 -1.1031 -1.3444
 5470TIP3   OH237900   4.683   3.958  11.010 -0.0658  0.5766  0.1074
 5470TIP3    H137901   4.683   4.012  11.089 -0.1020 -0.4641  0.8465
 5470TIP3    H237902   4.773   3.961  10.979 -0.0166  0.8677  0.2718
 5471TIP3   OH237903   5.012   4.248  13.582 -0.0590 -0.1041 -0.0971
 5471TIP3    H137904   5.076   4.302  13.536  0.3946  0.5774  1.2843
 5471TIP3    H237905   4.948   4.225  13.515  0.9410  0.2629 -1.2199
 5472TIP3   OH237906   2.473   2.085  12.389 -0.0054  0.8173  0.0220
 5472TIP3    H137907   2.383   2.065  12.364 -1.2029  3.2637  1.8728
 5472TIP3    H237908   2.502   2.009  12.440 -1.7445  0.7355  0.9752
 5473TIP3   OH237909   6.140   3.934   4.464 -0.2546 -0.5785  0.0325
 5473TIP3    H137910   6.211   3.989   4.495  0.3268 -0.6994 -1.0369
 5473TIP3    H237911   6.129   3.958   4.372 -1.7633 -0.3929  0.2348
 5474TIP3   OH237912   1.657   5.925   3.363 -0.0551  0.0681 -0.2621
 5474TIP3    H137913   1.648   5.999   3.422  2.2636  1.0595 -1.0419
 5474TIP3    H237914   1.586   5.865   3.387  0.1728  0.8996  2.7714
 5475TIP3   OH237915   0.042   6.320   3.151  1.2280 -0.0025 -0.3560
 5475TIP3    H137916   0.038   6.332   3.246 -1.2339 -0.4278 -0.3610
 5475TIP3    H237917   0.078   6.231   3.140 -0.9648 -1.0524  0.3235
 5476TIP3   OH237918   6.336   6.298  11.683 -0.1546  0.1785  0.1964
 5476TIP3    H137919   6.307   6.216  11.723 -1.5831  0.6911  0.2321
 5476TIP3    H237920   6.417   6.319  11.729 -0.1259 -0.8575  0.6512
 5477TIP3   OH237921   5.218   3.020   0.935  0.2663 -0.1563 -0.1353
 5477TIP3    H137922   5.248   2.992   0.849  0.5742 -1.8239  0.4755
 5477TIP3    H237923   5.246   2.950   0.994 -0.2514  0.7754  1.2686
 5478TIP3   OH237924   5.455   3.114  13.841 -0.3912  0.2679  0.0195
 5478TIP3    H137925   5.485   3.142  13.754 -1.6191 -1.4859 -1.0362
 5478TIP3    H237926   5.534   3.114  13.895  0.4276  1.2217 -1.1175
 5479TIP3   OH237927   4.448   6.255   1.827  0.5875  0.1229  0.2212
 5479TIP3    H137928   4.364   6.274   1.870  0.8840 -0.7049  1.2108
 5479TIP3    H237929   4.445   6.306   1.746 -0.4570  0.8806  0.7015
 5480TIP3   OH237930   1.599   4.243   3.808 -0.1633 -0.1723  0.2200
 5480TIP3    H137931   1.573   4.266   3.719  0.0639  0.4525  0.3084
 5480TIP3    H237932   1.595   4.148   3.811 -0.0782 -0.1998 -0.4881
 5481TIP3   OH237933   2.462   3.236   6.124 -0.4578 -0.0146  0.3892
 5481TIP3    H137934   2.409   3.157   6.134 -1.0246  0.4174  0.9294
 5481TIP3    H237935   2.475   3.245   6.030 -1.4023 -0.1064  0.2411
 5482TIP3   OH237936   5.435   5.403   3.616  0.4181 -0.1559 -0.2985
 5482TIP3    H137937   5.408   5.489   3.648  0.9429  0.2855 -1.0174
 5482TIP3    H237938   5.356   5.349   3.625  0.2061  0.2811  0.5517
 5483TIP3   OH237939   5.445   2.641   1.900  0.3630  0.0078 -0.4398
 5483TIP3    H137940   5.529   2.633   1.947  1.1369 -2.9760 -2.0761
 5483TIP3    H237941   5.448   2.729   1.863  2.8457 -0.0194 -0.5179
 5484TIP3   OH237942   0.066   4.066  13.423  0.3479  0.1108  0.2645
 5484TIP3    H137943   0.050   4.059  13.329 -1.0362  0.8965  0.4140
 5484TIP3    H237944   0.035   3.983  13.459 -0.4085  0.3464  0.1709
 5485TIP3   OH237945   4.172   4.572  14.918  0.2779  0.3003 -0.1726
 5485TIP3    H137946   4.240   4.540  14.860 -0.3370 -1.6001  0.0884
 5485TIP3    H237947   4.219   4.607  14.994  0.9984  0.4138 -0.6718
 5486TIP3   OH237948   1.334   0.855   5.519  0.2115 -0.6030 -0.1023
 5486TIP3    H137949   1.282   0.857   5.599 -1.3012 -1.1960 -1.0357
 5486TIP3    H237950   1.343   0.762   5.498  1.0666 -0.4788 -0.3399
 5487TIP3   OH237951   5.348   1.390   2.820  0.3340  0.2961 -0.3003
 5487TIP3    H137952   5.302   1.373   2.738  1.0736  1.4192 -0.9812
 5487TIP3    H237953   5.283   1.375   2.888 -0.5701  0.2910 -1.1485
 5488TIP3   OH237954   0.695   6.565   1.866 -0.4641 -0.2850  0.0316
 5488TIP3    H137955   0.613   6.614   1.861 -0.6325 -0.5086  0.6080
 5488TIP3    H237956   0.726   6.578   1.955  0.3581  0.1582 -0.3112
 5489TIP3   OH237957   0.741   0.041   0.804  0.3612 -0.3223 -0.0224
 5489TIP3    H137958   0.765   0.127   0.839 -0.0295  0.2878 -1.1962
 5489TIP3    H237959   0.656   0.054   0.763  0.2394 -1.3062 -0.1193
 5490TIP3   OH237960   0.686   4.214  16.385 -0.1508  0.3385  0.0753
 5490TIP3    H137961   0.724   4.154  16.321 -1.5713  0.7300 -1.2128
 5490TIP3    H237962   0.737   4.295  16.375 -1.6736  1.1149 -2.1788
 5491TIP3   OH237963   5.017   5.605  13.921  0.2654 -0.1436 -0.4351
 5491TIP3    H137964   5.004   5.571  13.833 -1.4550 -1.5980  0.3324
 5491TIP3    H237965   4.931   5.600  13.962  1.4230 -1.5936  2.0229
 5492TIP3   OH237966   6.522   1.673  14.283 -0.9286 -0.1824  0.5721
 5492TIP3    H137967   6.575   1.752  14.273  0.5678 -1.2930 -0.7928
 5492TIP3    H237968   6.546   1.638  14.369  0.5983 -0.6382 -0.0003
 5493TIP3   OH237969   5.865   3.357   3.149 -0.1356 -0.3409 -0.3767
 5493TIP3    H137970   5.862   3.265   3.177  0.8612 -0.1447  0.4304
 5493TIP3    H237971   5.818   3.404   3.218 -0.0314 -0.1701 -0.4216
 5494TIP3   OH237972   0.942   4.263   1.148 -0.2780  0.2136 -0.2143
 5494TIP3    H137973   0.886   4.202   1.195  0.3124  0.7719  1.2469
 5494TIP3    H237974   1.021   4.271   1.201  0.7541  0.2890 -1.6825
 5495TIP3   OH237975   6.710   2.631   2.177 -0.7323  0.3001 -0.1168
 5495TIP3    H137976   6.658   2.651   2.099  0.4569  2.8127 -0.3853
 5495TIP3    H237977   6.800   2.621   2.145 -0.3390  0.6099  0.8295
 5496TIP3   OH237978   0.349   0.705  14.470  0.3034 -0.3515 -0.2756
 5496TIP3    H137979   0.308   0.700  14.384  0.8393  2.0534 -0.7592
 5496TIP3    H237980   0.430   0.754  14.455  0.1639  0.5989  1.6539
 5497TIP3   OH237981   4.406   3.856   2.704  0.3624 -0.0032 -0.0359
 5497TIP3    H137982   4.364   3.770   2.696 -0.7283  0.3481  1.4847
 5497TIP3    H237983   4.382   3.886   2.792  4.9475 -0.3823  1.5946
 5498TIP3   OH237984   3.598   2.410  11.325  0.1462 -0.2389 -0.2108
 5498TIP3    H137985   3.546   2.334  11.300 -0.0972  0.1663 -0.9655
 5498TIP3    H237986   3.682   2.374  11.353 -0.5977 -0.9178  1.2392
 5499TIP3   OH237987   2.313   1.216  13.125  0.0506  0.0220 -0.8089
 5499TIP3    H137988   2.252   1.144  13.107  0.5387 -0.0775 -2.2882
 5499TIP3    H237989   2.270   1.269  13.192 -0.6353 -1.2605 -0.1965
 5500TIP3   OH237990   5.228   3.085   0.653  0.3873 -0.1326  0.2824
 5500TIP3    H137991   5.138   3.093   0.621  0.6608 -0.5410 -0.6458
 5500TIP3    H237992   5.282   3.083   0.573  1.1222 -1.0464  0.7695
 5501TIP3   OH237993   5.453   6.516  16.073 -0.4279 -0.4889  0.5182
 5501TIP3    H137994   5.447   6.607  16.102 -2.0935 -0.8810  1.5767
 5501TIP3    H237995   5.363   6.494  16.047  0.2810 -1.3264 -1.4106
 5502TIP3   OH237996   4.266   5.274   1.567 -0.1874  0.0400 -0.1065
 5502TIP3    H137997   4.352   5.249   1.602  1.4295  1.6842 -2.5637
 5502TIP3    H237998   4.254   5.218   1.490 -0.1971  1.3584 -1.1012
 5503TIP3   OH237999   4.931   0.254   2.221  0.2029 -0.5437 -0.5021
 5503TIP3    H138000   4.997   0.255   2.152  1.9009  1.7055  1.0042
 5503TIP3    H238001   4.885   0.337   2.211 -1.3005 -1.3515 -0.4916
 5504TIP3   OH238002   1.688   0.036  15.612 -0.0712  0.1882  0.2148
 5504TIP3    H138003   1.749  -0.029  15.647  0.5405  0.3159 -0.5854
 5504TIP3    H238004   1.611  -0.015  15.585  0.8938 -0.4032 -1.5583
 5505TIP3   OH238005   5.350   6.202  15.281 -0.0537  0.1859 -0.1110
 5505TIP3    H138006   5.266   6.194  15.327  0.4544 -1.8110  0.5918
 5505TIP3    H238007   5.415   6.211  15.352  0.4188  0.6910 -0.6018
 5506TIP3   OH238008   3.773   1.371  14.969 -0.2463  0.2996  0.1240
 5506TIP3    H138009   3.769   1.309  15.042 -2.0235  1.9467  1.5011
 5506TIP3    H238010   3.698   1.348  14.914  0.6140 -0.3973 -0.8242
 5507TIP3   OH238011   3.934   3.786   5.286 -0.1103  0.1265  0.0529
 5507TIP3    H138012   3.993   3.717   5.256 -1.3051 -1.0034  0.2216
 5507TIP3    H238013   3.862   3.740   5.328 -1.3993  1.4360 -0.6265
 5508TIP3   OH238014   3.454   3.497  16.841 -0.0094 -0.2764  0.3824
 5508TIP3    H138015   3.422   3.537  16.921 -2.1445 -1.0575  0.0043
 5508TIP3    H238016   3.444   3.564  16.774 -3.5016 -1.2081 -0.2344
 5509TIP3   OH238017   5.566   5.842   4.607  0.1472  0.1394  0.1708
 5509TIP3    H138018   5.543   5.889   4.527  1.7583 -2.3014 -1.8861
 5509TIP3    H238019   5.484   5.835   4.656 -0.8898  1.7140 -1.2481
 5510TIP3   OH238020   1.602   6.671   2.870  0.3093  0.0903  0.2284
 5510TIP3    H138021   1.623   6.591   2.917  0.1090  0.2121  0.5336
 5510TIP3    H238022   1.678   6.688   2.815  1.2133  0.7423  1.5982
 5511TIP3   OH238023   4.532   2.901  15.067  0.3157 -0.5726 -0.0341
 5511TIP3    H138024   4.520   2.943  15.152 -0.7235 -0.3785 -0.2704
 5511TIP3    H238025   4.619   2.931  15.038  1.4149 -1.9140  1.6590
 5512TIP3   OH238026   2.838   5.443  15.506  0.1842 -0.3888 -0.4028
 5512TIP3    H138027   2.926   5.458  15.540 -0.5268  0.0458  1.3988
 5512TIP3    H238028   2.844   5.461  15.413  1.9534 -0.2197 -0.2923
 5513TIP3   OH238029   0.644   5.176  13.692  0.4700 -0.5178  0.1152
 5513TIP3    H138030   0.626   5.170  13.598  1.1995 -1.1239  0.0007
 5513TIP3    H238031   0.613   5.092  13.727  2.3828 -1.3013  0.0192
 5514TIP3   OH238032   2.384   6.600  15.964  0.0035  0.2719 -0.3244
 5514TIP3    H138033   2.432   6.526  15.926  0.3596  0.1148  0.4096
 5514TIP3    H238034   2.296   6.567  15.978  0.5079 -0.5201  1.3362
 5515TIP3   OH238035   4.038   5.406  12.121 -0.6926 -0.1847 -0.6525
 5515TIP3    H138036   4.056   5.493  12.158  2.7033 -0.7694 -0.5586
 5515TIP3    H238037   4.010   5.353  12.195  0.6559  0.0154  0.0334
 5516TIP3   OH238038   2.429   1.983  15.683  0.4860  0.2732  0.3447
 5516TIP3    H138039   2.429   1.916  15.752 -1.1601  0.4788  0.5864
 5516TIP3    H238040   2.383   2.058  15.722  0.4107  0.7554 -0.6370
 5517TIP3   OH238041   5.217   0.145  10.925  0.2510  0.2771  0.3702
 5517TIP3    H138042   5.191   0.167  10.836  1.8396  0.4086 -0.0882
 5517TIP3    H238043   5.202   0.051  10.933 -0.5746  0.3940  0.2070
 5518TIP3   OH238044   2.580   2.652   3.699 -0.4332 -0.0800  0.2991
 5518TIP3    H138045   2.526   2.573   3.694 -1.6483  0.6953  0.6938
 5518TIP3    H238046   2.640   2.635   3.771 -0.2981 -0.8735  0.0076
 5519TIP3   OH238047   4.478   2.025  13.668  0.1417 -0.5297 -0.3817
 5519TIP3    H138048   4.507   2.116  13.673  0.0081 -0.4839 -0.4337
 5519TIP3    H238049   4.558   1.974  13.679  0.4514 -0.3933 -1.8702
 5520TIP3   OH238050   5.971   4.560   2.444  0.0552 -0.0524  0.5103
 5520TIP3    H138051   5.969   4.655   2.451  0.9997 -0.1408  3.1788
 5520TIP3    H238052   6.046   4.541   2.388  0.0290  0.7548  0.1957
 5521TIP3   OH238053   6.558   1.351  14.952 -0.5739 -0.2782 -0.7572
 5521TIP3    H138054   6.571   1.413  15.023 -0.6185 -0.6220 -0.4441
 5521TIP3    H238055   6.488   1.390  14.899 -2.0120 -0.9861  0.5350
 5522TIP3   OH238056   1.367   2.853  13.173  0.0883 -0.1508 -0.5902
 5522TIP3    H138057   1.311   2.782  13.141 -0.3259 -0.4269  0.7207
 5522TIP3    H238058   1.337   2.931  13.125 -1.3262 -0.3178 -0.0070
 5523TIP3   OH238059   2.619   3.628  13.373  0.0025  0.1076  0.2731
 5523TIP3    H138060   2.601   3.694  13.307  0.2074  1.1833  1.2496
 5523TIP3    H238061   2.642   3.678  13.452  1.7592 -1.1296  0.6203
 5524TIP3   OH238062   4.905   3.765  10.603 -0.4941  0.2966  0.0167
 5524TIP3    H138063   4.956   3.702  10.553 -0.3800  1.9464 -2.0607
 5524TIP3    H238064   4.971   3.825  10.640 -0.6627 -0.2466  1.2670
 5525TIP3   OH238065   5.995   0.040  12.516 -0.1368 -0.6071 -0.8017
 5525TIP3    H138066   5.909  -0.001  12.515  0.0791 -1.0853 -0.4922
 5525TIP3    H238067   6.010   0.068  12.426  0.0688 -1.9993 -1.2307
 5526TIP3   OH238068   4.253   2.718  13.532  0.9774  0.0093  0.0686
 5526TIP3    H138069   4.215   2.804  13.552  0.4707 -0.0048 -0.7645
 5526TIP3    H238070   4.327   2.710  13.591 -0.4125 -0.0299  1.9189
 5527TIP3   OH238071   4.189   3.354   2.716  0.0267  0.4710  0.1303
 5527TIP3    H138072   4.139   3.314   2.787  0.7607  0.6566  0.7581
 5527TIP3    H238073   4.127   3.359   2.643 -1.7713  3.2809  1.6824
 5528TIP3   OH238074   3.795   5.789   4.123 -0.1329  0.3289  0.3600
 5528TIP3    H138075   3.771   5.817   4.035 -2.1528 -0.0531  0.7356
 5528TIP3    H238076   3.731   5.832   4.180  0.4189 -0.3449  1.5305
 5529TIP3   OH238077   4.469   1.817   4.130  0.3853 -0.1721  0.7614
 5529TIP3    H138078   4.500   1.821   4.221 -1.0461 -0.4783  1.2937
 5529TIP3    H238079   4.486   1.904   4.095  1.1322 -0.1037  1.2517
 5530TIP3   OH238080   0.593   4.132  11.345 -0.1208  0.3707 -0.2056
 5530TIP3    H138081   0.688   4.141  11.339 -0.2279  2.5544  0.5059
 5530TIP3    H238082   0.565   4.114  11.256  0.7673  2.2005 -0.9024
 5531TIP3   OH238083   5.014   4.928  16.393 -0.0778 -0.1742 -0.5098
 5531TIP3    H138084   5.092   4.972  16.426 -0.5874  1.6547 -1.6572
 5531TIP3    H238085   4.952   4.998  16.373 -2.0051 -1.5453  0.2194
 5532TIP3   OH238086   3.295   5.978  16.125  0.4186  0.0075 -0.0816
 5532TIP3    H138087   3.203   5.955  16.137  0.5846 -3.4963 -3.5879
 5532TIP3    H238088   3.343   5.905  16.164  1.3923 -1.0891 -3.0776
 5533TIP3   OH238089   3.215   5.141   3.159  0.0741  0.3487  0.4756
 5533TIP3    H138090   3.130   5.128   3.118  0.2154 -2.2043  0.7853
 5533TIP3    H238091   3.233   5.234   3.151 -2.6258  0.9044  0.1920
 5534TIP3   OH238092   5.128   1.918  17.163 -0.2332  0.0363 -0.3535
 5534TIP3    H138093   5.179   1.951  17.089  0.1240  0.9246  0.2696
 5534TIP3    H238094   5.130   1.990  17.227 -2.7125  0.3159 -0.5108
 5535TIP3   OH238095   3.217   6.647  15.305  0.0769  0.3511 -0.0045
 5535TIP3    H138096   3.291   6.606  15.350 -1.3341 -0.7425  1.4097
 5535TIP3    H238097   3.248   6.659  15.215  1.4859 -1.3569  0.2076
 5536TIP3   OH238098   1.213   1.669   5.480 -0.6938 -0.1799  0.3493
 5536TIP3    H138099   1.259   1.744   5.518  0.4469 -0.6032 -0.1540
 5536TIP3    H238100   1.190   1.614   5.554 -2.3392  1.0622  0.8273
 5537TIP3   OH238101   1.963   1.090   2.326  0.4876  0.3672 -0.1763
 5537TIP3    H138102   1.976   1.180   2.297  0.7381  0.7310  1.0148
 5537TIP3    H238103   1.894   1.056   2.268  1.8457  0.6231 -2.0260
 5538TIP3   OH238104   4.068   4.400  14.327  0.4633 -0.3137 -0.6039
 5538TIP3    H138105   4.146   4.382  14.275  1.5512  1.2335  0.3751
 5538TIP3    H238106   4.082   4.490  14.359 -1.6163 -0.0914 -0.2039
 5539TIP3   OH238107   0.710   1.952   3.537  0.3585  0.5592 -0.1340
 5539TIP3    H138108   0.670   1.926   3.620  1.4169 -0.4974  0.0608
 5539TIP3    H238109   0.636   1.982   3.483 -0.0771  4.8882  2.3844
 5540TIP3   OH238110   2.443   6.040   3.769 -0.5056  0.0563 -0.1133
 5540TIP3    H138111   2.536   6.027   3.748 -0.4964  0.4552 -0.3437
 5540TIP3    H238112   2.398   5.970   3.722 -0.2530 -0.6700  0.6968
 5541TIP3   OH238113   5.148   6.504  11.571  0.1638 -0.3904 -0.1278
 5541TIP3    H138114   5.088   6.522  11.499 -0.4106 -0.1475  0.4044
 5541TIP3    H238115   5.148   6.409  11.579 -1.6148 -0.3392  1.0695
 5542TIP3   OH238116   5.047   1.925  13.937 -0.3957  0.6824 -0.3128
 5542TIP3    H138117   5.051   1.830  13.926 -0.2673  0.3810  1.8256
 5542TIP3    H238118   5.128   1.957  13.899 -2.0084  0.4449 -4.4389
 5543TIP3   OH238119   0.850   1.204  15.062 -0.8849 -0.0159 -0.0367
 5543TIP3    H138120   0.771   1.151  15.049 -1.9383  1.7899 -1.4264
 5543TIP3    H238121   0.835   1.283  15.011  1.4381  0.8273  0.4528
 5544TIP3   OH238122   6.448   3.522  11.292 -0.5442  0.4541  0.0523
 5544TIP3    H138123   6.536   3.521  11.329 -0.6303 -0.3592  0.2603
 5544TIP3    H238124   6.390   3.531  11.368 -0.7835 -2.4391  0.3291
 5545TIP3   OH238125   2.495   0.442  11.326 -0.1279 -0.2356 -0.5316
 5545TIP3    H138126   2.478   0.534  11.345  2.9393 -0.0769  2.2583
 5545TIP3    H238127   2.531   0.443  11.237  0.6794  1.4220 -0.2288
 5546TIP3   OH238128   6.466   3.913  15.316  0.2440 -0.0572 -0.1308
 5546TIP3    H138129   6.385   3.882  15.357 -0.0613  1.0853  0.1491
 5546TIP3    H238130   6.441   3.940  15.228  0.2924  0.4213 -0.0002
 5547TIP3   OH238131   0.299   3.042  12.545 -0.1648 -0.4109 -0.1327
 5547TIP3    H138132   0.320   2.991  12.623 -2.4806 -0.6648  0.4137
 5547TIP3    H238133   0.237   3.108  12.576 -0.3943  0.0906 -1.5888
 5548TIP3   OH238134   0.800   0.729  12.109 -0.2466 -0.0753 -0.2078
 5548TIP3    H138135   0.843   0.652  12.071  0.9720  1.2143 -1.5854
 5548TIP3    H238136   0.870   0.773  12.158 -1.2599 -0.5153  1.7365
 5549TIP3   OH238137   2.845   2.625   2.649 -0.4300 -0.2991  0.1666
 5549TIP3    H138138   2.800   2.549   2.611 -0.1161  0.8685 -2.8211
 5549TIP3    H238139   2.783   2.661   2.711 -2.3311 -0.6141 -1.4499
 5550TIP3   OH238140   5.517   0.926  16.780  0.0679 -0.2499  0.1225
 5550TIP3    H138141   5.473   0.842  16.791  3.0330 -1.8174  1.0300
 5550TIP3    H238142   5.563   0.918  16.696  1.5149 -0.1511  0.8814
 5551TIP3   OH238143   4.502   0.559   2.817  0.0272  0.0264  0.2543
 5551TIP3    H138144   4.468   0.472   2.839 -1.0417  0.2935 -0.2785
 5551TIP3    H238145   4.442   0.620   2.861 -0.0765  0.5077 -0.5389
 5552TIP3   OH238146   1.054   5.793   2.240 -0.1189 -0.0873 -0.3605
 5552TIP3    H138147   1.055   5.766   2.148 -1.6748 -0.2666 -0.3575
 5552TIP3    H238148   1.020   5.717   2.286 -1.9941  0.8880 -0.0117
 5553TIP3   OH238149   6.639   1.689   5.385  0.0444 -0.2306 -0.3387
 5553TIP3    H138150   6.710   1.648   5.435  0.6059  0.3957 -0.6060
 5553TIP3    H238151   6.559   1.664   5.432  0.5112 -0.1489  0.5239
 5554TIP3   OH238152   2.982   0.723   2.180  0.2078 -0.5456  0.2056
 5554TIP3    H138153   3.024   0.807   2.202  0.8442  0.0443 -2.8433
 5554TIP3    H238154   3.050   0.658   2.199  0.5283 -0.1536  0.4459
 5555TIP3   OH238155   1.396   0.391   3.351 -0.0990  0.2561  0.3413
 5555TIP3    H138156   1.411   0.481   3.378 -1.8966  1.6174 -2.6402
 5555TIP3    H238157   1.301   0.383   3.343  0.0784 -0.3667 -3.5443
 5556TIP3   OH238158   3.446   0.020   2.831  0.0436  0.2674 -0.4467
 5556TIP3    H138159   3.472   0.069   2.753 -1.0279  0.9259 -0.4209
 5556TIP3    H238160   3.360  -0.017   2.808  0.6724 -1.3321 -0.3379
 5557TIP3   OH238161   3.272   5.694  15.716  0.3935  0.3747 -0.4451
 5557TIP3    H138162   3.318   5.654  15.790 -1.0536  0.6123  0.6189
 5557TIP3    H238163   3.246   5.781  15.747  0.9302  1.0249 -1.7161
 5558TIP3   OH238164   6.111   1.222   2.644  0.3772 -0.1954  0.2619
 5558TIP3    H138165   6.031   1.173   2.663  0.6919 -0.8347 -0.0369
 5558TIP3    H238166   6.081   1.312   2.631 -0.2606 -0.3801  0.3926
 5559TIP3   OH238167   5.115   3.836  11.963 -0.1908  0.5789 -0.1117
 5559TIP3    H138168   5.168   3.791  12.029  2.9943  3.4022 -0.4564
 5559TIP3    H238169   5.122   3.781  11.885  1.4352  0.3328  0.1614
 5560TIP3   OH238170   6.106   6.296  10.042  0.7187  0.2277 -0.6051
 5560TIP3    H138171   6.195   6.261  10.049  1.7857  2.6665 -1.1013
 5560TIP3    H238172   6.071   6.292  10.130  1.3359 -0.6966 -0.3899
 5561TIP3   OH238173   0.977   3.368  13.345 -0.0191 -0.1489  0.3426
 5561TIP3    H138174   0.961   3.393  13.436 -1.3794 -0.9720  0.3548
 5561TIP3    H238175   0.911   3.415  13.295  0.3203 -0.1962 -0.1525
 5562TIP3   OH238176   5.891   4.145   0.870 -0.2487  0.1074  0.4859
 5562TIP3    H138177   5.827   4.096   0.818 -2.0620  4.0602 -1.3966
 5562TIP3    H238178   5.849   4.156   0.956 -0.1417 -0.9109  0.6830
 5563TIP3   OH238179   1.714   4.204  12.706 -0.1635 -0.6976 -0.7262
 5563TIP3    H138180   1.627   4.167  12.716  0.0662 -1.5819 -1.7736
 5563TIP3    H238181   1.768   4.157  12.769 -0.8287  1.3880  1.5278
 5564TIP3   OH238182   6.134   2.809   2.650 -0.6725 -0.6039  0.4963
 5564TIP3    H138183   6.220   2.849   2.661 -0.6231 -0.9943  1.6540
 5564TIP3    H238184   6.142   2.723   2.691 -1.5842 -0.6865  0.5249
 5565TIP3   OH238185   4.454   3.904   6.167 -0.1254  0.7588 -0.6431
 5565TIP3    H138186   4.430   3.814   6.147 -3.4416  1.6636 -1.3293
 5565TIP3    H238187   4.546   3.911   6.142 -0.2462 -1.9550 -2.1667
 5566TIP3   OH238188   3.880   2.817   3.082  0.0962 -0.1484 -0.6791
 5566TIP3    H138189   3.863   2.773   3.165  0.5633 -0.3484 -0.6823
 5566TIP3    H238190   3.974   2.838   3.084  0.3223 -0.9633 -1.5177
 5567TIP3   OH238191   1.044   5.680  11.426 -0.5867  0.7502 -0.1816
 5567TIP3    H138192   1.110   5.743  11.399 -0.9408  1.1880 -0.0541
 5567TIP3    H238193   1.064   5.601  11.377  0.2511  0.7571  0.1385
 5568TIP3   OH238194   1.528   3.731   5.971 -0.6325  0.3770 -0.0235
 5568TIP3    H138195   1.609   3.778   5.950 -1.3179  1.7455  0.2558
 5568TIP3    H238196   1.508   3.758   6.061  0.5145 -2.8118  1.3115
 5569TIP3   OH238197   1.680   3.547   1.790 -0.2349 -0.5328 -0.0049
 5569TIP3    H138198   1.771   3.527   1.770  0.2491  1.3427  0.1318
 5569TIP3    H238199   1.662   3.497   1.870  0.7054 -0.8319  0.0327
 5570TIP3   OH238200   0.681   5.898   3.728  0.1618 -0.1894  0.1412
 5570TIP3    H138201   0.622   5.916   3.655  0.5014  0.3812  0.0018
 5570TIP3    H238202   0.708   5.984   3.760 -0.5957 -0.4047  1.4545
 5571TIP3   OH238203   4.382   5.570  16.948 -0.0118 -0.0404 -0.0600
 5571TIP3    H138204   4.404   5.620  17.026 -0.6033  0.1370 -0.0005
 5571TIP3    H238205   4.433   5.611  16.878  2.1148 -1.4704  0.5510
 5572TIP3   OH238206   0.428   3.949  17.143  0.0172 -0.2478 -0.2010
 5572TIP3    H138207   0.425   3.922  17.051 -0.5898  0.0407 -0.2659
 5572TIP3    H238208   0.339   3.935  17.175 -0.1154  0.9280 -0.0229
 5573TIP3   OH238209   3.325   6.555   2.413  0.0071  0.1280  0.2976
 5573TIP3    H138210   3.369   6.497   2.350 -0.1205 -1.2874  1.4647
 5573TIP3    H238211   3.370   6.538   2.496 -0.4588  1.2596  0.7960
 5574TIP3   OH238212   2.461   0.347   1.175 -0.0787 -0.1113 -0.5238
 5574TIP3    H138213   2.421   0.358   1.089  0.2996  1.5429 -0.5130
 5574TIP3    H238214   2.537   0.405   1.175  0.0160 -0.1844  0.8793
 5575TIP3   OH238215   4.805   1.369   5.768 -0.2904  0.5002  0.1779
 5575TIP3    H138216   4.867   1.329   5.829 -1.1960 -0.6923  0.3445
 5575TIP3    H238217   4.787   1.455   5.805  0.1974  0.3095  0.8703
 5576TIP3   OH238218   0.052   0.744   0.435  0.3102  0.4130 -0.2318
 5576TIP3    H138219   0.007   0.800   0.372 -2.8453 -3.0793 -1.4980
 5576TIP3    H238220   0.104   0.684   0.381 -1.5108 -1.8737  0.3548
 5577TIP3   OH238221   3.216   3.544  12.330 -0.5091 -0.1138  0.3792
 5577TIP3    H138222   3.157   3.487  12.381 -0.1463 -0.3244  0.5680
 5577TIP3    H238223   3.220   3.625  12.381 -0.3961 -0.2105  0.5271
 5578TIP3   OH238224   2.427   4.995  17.070  0.1007  0.5355 -0.2428
 5578TIP3    H138225   2.382   5.065  17.023 -0.8841  1.0680  1.3802
 5578TIP3    H238226   2.509   4.982  17.023  0.7761  3.4936 -0.0356
 5579TIP3   OH238227   0.384   4.696  12.707 -0.6281 -0.4710  0.1229
 5579TIP3    H138228   0.320   4.686  12.778  0.6427 -1.7621  1.1330
 5579TIP3    H238229   0.404   4.607  12.679  1.1801 -0.1427  0.2547
 5580TIP3   OH238230   6.619   5.585  14.596  0.3578 -0.0530  0.4092
 5580TIP3    H138231   6.680   5.581  14.522 -0.0748 -1.4719  0.1070
 5580TIP3    H238232   6.583   5.497  14.602  1.0003 -0.2080  2.8511
 5581TIP3   OH238233   2.346   4.290   0.444  0.0536 -0.0976 -0.2096
 5581TIP3    H138234   2.361   4.196   0.446 -3.2547 -0.7407  1.3596
 5581TIP3    H238235   2.338   4.312   0.351  3.2785 -0.7803 -0.7568
 5582TIP3   OH238236   2.615   0.769   1.542  0.1195  0.0279  0.4057
 5582TIP3    H138237   2.672   0.701   1.578 -0.4808 -2.3718 -2.6942
 5582TIP3    H238238   2.527   0.731   1.548 -0.1622  0.2037 -1.9209
 5583TIP3   OH238239   3.862   5.974   5.590  0.0958  0.0741  0.3494
 5583TIP3    H138240   3.869   5.942   5.679  0.4995 -3.1435 -0.7312
 5583TIP3    H238241   3.768   5.990   5.578 -0.0602 -0.2273  1.0953
 5584TIP3   OH238242   2.998   2.618   0.414  0.2879  0.1995 -0.7091
 5584TIP3    H138243   3.009   2.541   0.471  0.4446  2.7825  3.1492
 5584TIP3    H238244   2.921   2.599   0.362 -1.2815 -1.5959  2.0100
 5585TIP3   OH238245   4.460   4.977   1.077  0.1142  0.3605 -0.0861
 5585TIP3    H138246   4.512   4.899   1.059 -0.5064 -0.7568  2.5408
 5585TIP3    H238247   4.520   5.036   1.123  0.3941  1.1830 -1.4698
 5586TIP3   OH238248   2.047   3.431  15.741  0.2324 -0.1237 -0.2020
 5586TIP3    H138249   2.121   3.478  15.703  0.2992  1.6711  1.9749
 5586TIP3    H238250   2.044   3.458  15.832 -1.2721 -2.5102  0.5840
 5587TIP3   OH238251   5.685   1.274   2.192 -0.4001 -0.0679  0.4600
 5587TIP3    H138252   5.599   1.299   2.158  0.7459  0.9670 -1.8706
 5587TIP3    H238253   5.723   1.219   2.123  1.3292  0.5857  0.8411
 5588TIP3   OH238254   1.998   5.505   3.957 -0.4126  0.5963  0.5955
 5588TIP3    H138255   1.994   5.600   3.945 -2.4223  0.8662  2.8871
 5588TIP3    H238256   1.932   5.471   3.897  0.2034  0.6115 -0.1162
 5589TIP3   OH238257   5.418   0.345  10.945  0.2604 -0.3133 -0.1706
 5589TIP3    H138258   5.395   0.393  11.024  0.2030  0.4625 -0.6499
 5589TIP3    H238259   5.354   0.274  10.940  0.7457 -0.8450  0.8924
 5590TIP3   OH238260   4.297   6.134   0.145  0.7945 -0.1379 -0.2003
 5590TIP3    H138261   4.289   6.225   0.175  0.6912 -0.3261  0.3383
 5590TIP3    H238262   4.324   6.085   0.222  2.2034 -0.3485 -0.8053
 5591TIP3   OH238263   4.416   3.505  15.559  0.3909  0.3645 -0.1588
 5591TIP3    H138264   4.424   3.484  15.652 -1.0866 -0.4970 -0.1928
 5591TIP3    H238265   4.348   3.573  15.556 -0.6198 -0.6300 -0.6895
 5592TIP3   OH238266   1.980   5.057   6.388  0.1609 -0.1815 -0.0491
 5592TIP3    H138267   2.001   5.102   6.470  2.3400 -1.5035  0.2047
 5592TIP3    H238268   2.034   5.102   6.322  2.7315 -2.5203  0.2874
 5593TIP3   OH238269   4.544   0.377   2.289  0.2265 -0.6647 -0.0324
 5593TIP3    H138270   4.620   0.318   2.284  0.3029 -0.5035 -0.8329
 5593TIP3    H238271   4.500   0.367   2.205 -0.2202 -0.1846  0.1399
 5594TIP3   OH238272   1.027   0.980   3.386 -0.4507  0.2374 -0.5206
 5594TIP3    H138273   1.040   0.888   3.410  0.2025  0.3758 -0.3076
 5594TIP3    H238274   0.934   0.986   3.364 -0.1520 -0.8692 -2.3221
 5595TIP3   OH238275   3.897   0.418  13.685 -0.7184 -0.1843  0.1547
 5595TIP3    H138276   3.935   0.337  13.718  0.5240  0.0036 -0.7159
 5595TIP3    H238277   3.973   0.470  13.658 -1.4052  1.7431  1.7133
 5596TIP3   OH238278   3.703   4.017  16.238 -0.3345 -0.0100  0.1639
 5596TIP3    H138279   3.710   4.077  16.312  1.7952  0.0226  0.0025
 5596TIP3    H238280   3.758   3.942  16.262 -0.0074 -0.2234 -1.1405
 5597TIP3   OH238281   0.826   2.922   4.622  0.5150  0.4470 -0.3184
 5597TIP3    H138282   0.917   2.894   4.622  1.2497  2.6593 -0.4523
 5597TIP3    H238283   0.778   2.849   4.660  1.9925 -1.7378 -2.4179
 5598TIP3   OH238284   1.133   0.578  16.737  0.5615  0.1048 -0.1319
 5598TIP3    H138285   1.164   0.669  16.741  2.6529 -0.5265 -0.7685
 5598TIP3    H238286   1.194   0.530  16.792 -0.1051 -1.0444 -0.3698
 5599TIP3   OH238287   3.915   0.008  14.603 -0.3005  0.6543 -0.2769
 5599TIP3    H138288   3.831  -0.039  14.599  0.0608 -0.1027  0.6316
 5599TIP3    H238289   3.910   0.071  14.532 -1.1754 -0.1636 -0.9727
 5600TIP3   OH238290   6.767   6.753  11.479 -0.1309  0.1538  0.1913
 5600TIP3    H138291   6.692   6.791  11.525 -0.2684 -0.9433  0.9150
 5600TIP3    H238292   6.840   6.763  11.540  0.1182  0.4487 -0.1571
 5601TIP3   OH238293   1.224   5.090   1.806 -0.2385 -0.1974 -0.1773
 5601TIP3    H138294   1.167   5.089   1.729 -0.2263 -1.7210 -0.2028
 5601TIP3    H238295   1.310   5.113   1.772  0.1462 -2.5341 -0.9693
 5602TIP3   OH238296   0.198   0.192  14.615 -0.1040  0.5258 -0.1335
 5602TIP3    H138297   0.113   0.173  14.575  0.8765 -1.0501 -1.6099
 5602TIP3    H238298   0.239   0.107  14.625  2.8626  1.4007 -3.1585
 5603TIP3   OH238299   6.453   0.494  13.813  0.1092 -0.1816  0.6735
 5603TIP3    H138300   6.534   0.444  13.809  1.5965  2.1430 -0.5951
 5603TIP3    H238301   6.481   0.585  13.817 -2.4379  0.6680  3.0664
 5604TIP3   OH238302   1.090   5.800   2.881 -0.2191 -0.5047 -0.2327
 5604TIP3    H138303   1.018   5.837   2.932 -0.0497 -0.7233  0.1690
 5604TIP3    H238304   1.168   5.825   2.929  0.0578  0.6213 -1.2131
 5605TIP3   OH238305   0.018   4.975  16.852  0.4197  0.2086  0.6780
 5605TIP3    H138306  -0.051   4.972  16.786  1.0476  2.2592 -0.1563
 5605TIP3    H238307  -0.002   4.903  16.911 -0.7009 -1.1290 -1.2141
 5606TIP3   OH238308   4.324   4.312   3.104 -0.4903  0.4059  0.1018
 5606TIP3    H138309   4.375   4.255   3.045 -0.4137 -0.4178  0.9380
 5606TIP3    H238310   4.235   4.310   3.068 -0.1724  1.0259 -0.7712
 5607TIP3   OH238311   2.346   5.074  16.433  0.0367  0.4264  0.5724
 5607TIP3    H138312   2.407   5.148  16.439  1.1045 -0.4589  0.8460
 5607TIP3    H238313   2.400   4.997  16.449 -0.5139 -0.6607 -2.2495
 5608TIP3   OH238314   3.994   3.918  16.230 -0.2083 -0.0162  0.4271
 5608TIP3    H138315   3.967   3.876  16.148  0.1110  0.1878  0.2155
 5608TIP3    H238316   3.950   3.867  16.298  0.5236 -0.9734  0.1962
 5609TIP3   OH238317   2.497   1.142  12.922 -0.4207  0.1701  0.0727
 5609TIP3    H138318   2.429   1.182  12.976 -1.0435  1.5531 -1.6554
 5609TIP3    H238319   2.501   1.051  12.952 -2.1837  0.3686  1.0320
 5610TIP3   OH238320   0.989   5.196  16.527  0.1398 -0.5743 -0.0750
 5610TIP3    H138321   1.043   5.253  16.473  0.1807 -0.3347  0.2186
 5610TIP3    H238322   0.903   5.239  16.530  0.2879 -0.3151  0.4865
 5611TIP3   OH238323   4.853   0.648   5.330 -0.2556 -0.4305 -0.4858
 5611TIP3    H138324   4.784   0.658   5.396 -0.3189 -0.0072 -0.6131
 5611TIP3    H238325   4.805   0.638   5.248 -0.1659 -0.1810 -0.5681
 5612TIP3   OH238326   0.054   3.404   2.432 -0.5434 -0.3109 -0.2416
 5612TIP3    H138327   0.027   3.495   2.433  0.2570 -0.0439 -1.0591
 5612TIP3    H238328  -0.011   3.358   2.486 -1.5733  0.5563 -0.7148
 5613TIP3   OH238329   5.586   2.113  13.316  0.2310  0.0664 -0.6789
 5613TIP3    H138330   5.642   2.123  13.240  0.2104  2.3522 -0.4722
 5613TIP3    H238331   5.497   2.122  13.282  0.1067 -0.9570 -0.6474
 5614TIP3   OH238332   5.121   0.942  17.275 -0.1660 -0.6520  0.3116
 5614TIP3    H138333   5.199   0.891  17.250  0.3248 -0.2348  0.9538
 5614TIP3    H238334   5.135   0.963  17.367 -0.9056 -0.3171  0.3525
 5615TIP3   OH238335   2.747   1.370  16.774  0.1970 -0.2534 -0.0649
 5615TIP3    H138336   2.661   1.384  16.814  0.0190  0.0049 -0.5336
 5615TIP3    H238337   2.808   1.413  16.834 -0.0405 -0.1066  0.0725
 5616TIP3   OH238338   0.016   5.161  12.284 -0.3019  1.0625 -0.6402
 5616TIP3    H138339   0.087   5.171  12.347 -0.0874  0.8232 -0.8416
 5616TIP3    H238340   0.030   5.075  12.246 -0.6131  1.0778 -0.7911
 5617TIP3   OH238341   3.833   3.201  15.253  0.1145 -0.0870 -0.0731
 5617TIP3    H138342   3.859   3.170  15.340  1.0191 -0.7219 -0.5591
 5617TIP3    H238343   3.745   3.164  15.240  0.4686 -0.9966  0.0828
 5618TIP3   OH238344   2.188   3.335   5.557  0.1327  0.1355  0.1559
 5618TIP3    H138345   2.167   3.411   5.503  0.5492  0.5441  0.5646
 5618TIP3    H238346   2.249   3.284   5.503  0.3981  0.4435  0.1616
 5619TIP3   OH238347   0.001   5.645  15.605  0.0347  0.2806  0.5445
 5619TIP3    H138348   0.075   5.652  15.665  0.6210  2.1424 -0.3043
 5619TIP3    H238349  -0.045   5.729  15.614 -1.0641 -0.2264 -0.0976
 5620TIP3   OH238350   5.611   0.936  17.290 -0.2038  0.2348 -0.1097
 5620TIP3    H138351   5.574   0.897  17.369  3.0259 -0.0229  1.4491
 5620TIP3    H238352   5.617   1.029  17.309  0.4187  0.1964 -0.0901
 5621TIP3   OH238353   2.818   4.799   3.637 -0.1089  0.0971 -0.2009
 5621TIP3    H138354   2.870   4.743   3.580  0.1127  0.1664 -0.0675
 5621TIP3    H238355   2.798   4.746   3.714  1.4008  0.6810  0.6272
 5622TIP3   OH238356   1.073   5.121  11.571  0.0464 -1.2274 -0.2917
 5622TIP3    H138357   1.049   5.212  11.558 -1.0297 -1.4315  0.2198
 5622TIP3    H238358   1.168   5.123  11.588  0.1734 -0.3000 -1.0492
 5623TIP3   OH238359   5.568   5.188   0.890 -0.7906 -1.0543 -0.1998
 5623TIP3    H138360   5.614   5.261   0.849 -2.3917 -0.3817 -0.8800
 5623TIP3    H238361   5.556   5.125   0.818  0.0759 -1.7711  0.2520
 5624TIP3   OH238362   2.228   6.394   4.948  0.1106 -0.5500  1.0306
 5624TIP3    H138363   2.254   6.462   4.886  0.7860 -0.2806  1.5892
 5624TIP3    H238364   2.215   6.316   4.894 -0.8290  0.0542  0.3625
 5625TIP3   OH238365   3.926   0.032  12.458 -0.1561 -0.4268  0.6781
 5625TIP3    H138366   3.954   0.102  12.516  0.4950 -1.0472  1.1367
 5625TIP3    H238367   3.871   0.075  12.392  0.8022  0.6310  0.5344
 5626TIP3   OH238368   4.208   5.232  12.852  0.9246  0.1153  0.1512
 5626TIP3    H138369   4.165   5.316  12.835  0.6733  0.0680  0.5247
 5626TIP3    H238370   4.148   5.166  12.817  0.1390 -0.0135  1.6234
 5627TIP3   OH238371   3.493   2.612  12.867 -0.0095  0.0606  0.5963
 5627TIP3    H138372   3.542   2.585  12.790  1.2446  0.2009  1.3029
 5627TIP3    H238373   3.433   2.540  12.885  2.3207 -1.7477  1.6557
 5628TIP3   OH238374   2.985   5.100  13.596  0.2543  0.1962  0.5042
 5628TIP3    H138375   3.061   5.054  13.630  0.3320  1.4178  2.1395
 5628TIP3    H238376   2.991   5.188  13.634 -2.0132  0.2956  0.8108
 5629TIP3   OH238377   0.464   0.161   3.673 -0.7229  0.3962  0.1166
 5629TIP3    H138378   0.558   0.146   3.684 -0.7464  0.9961  1.2759
 5629TIP3    H238379   0.423   0.103   3.737 -1.0665  1.1659  0.6106
 5630TIP3   OH238380   2.097   1.390   6.584  0.6428 -0.0123  0.4245
 5630TIP3    H138381   2.137   1.355   6.663 -0.0596 -0.7894  0.4441
 5630TIP3    H238382   2.015   1.342   6.574  0.5748  0.2815 -0.6116
 5631TIP3   OH238383   5.214   5.849  11.467 -0.0381  0.3930  0.1098
 5631TIP3    H138384   5.222   5.784  11.398  0.3240  0.8247 -0.2585
 5631TIP3    H238385   5.205   5.933  11.421 -1.6080  0.5078  0.5467
 5632TIP3   OH238386   4.357   4.197  11.822  0.7100 -0.1901  0.0858
 5632TIP3    H138387   4.277   4.152  11.795 -0.0572  1.5768 -0.7476
 5632TIP3    H238388   4.372   4.262  11.753  2.1760  0.3354  0.8624
 5633TIP3   OH238389   2.693   3.729  17.058 -0.0523  0.0799  0.2198
 5633TIP3    H138390   2.642   3.776  17.124 -0.6735  1.0733 -0.9084
 5633TIP3    H238391   2.784   3.746  17.081 -0.2582  0.4591  0.7847
 5634TIP3   OH238392   3.300   0.184   0.517 -0.3904  0.4392  0.4675
 5634TIP3    H138393   3.317   0.220   0.604 -0.8311  1.8875 -0.0296
 5634TIP3    H238394   3.386   0.169   0.480 -0.1829 -0.7432  1.3446
 5635TIP3   OH238395   2.831   3.878   0.299 -0.0947  0.1445  0.6888
 5635TIP3    H138396   2.799   3.800   0.254 -0.2019  0.3230  0.4500
 5635TIP3    H238397   2.755   3.910   0.348  0.7248 -1.6298  3.3086
 5636TIP3   OH238398   2.160   0.830  16.579 -0.0456 -0.6300  0.0148
 5636TIP3    H138399   2.102   0.887  16.528 -0.2139  0.4108  1.3266
 5636TIP3    H238400   2.156   0.745  16.534  0.0830  0.3201 -1.8864
 5637TIP3   OH238401   3.895   2.960   3.763  0.9403 -0.4917  0.8723
 5637TIP3    H138402   3.866   3.049   3.745  2.1237  0.1097  1.7843
 5637TIP3    H238403   3.842   2.905   3.705 -1.2019  0.5956  1.6922
 5638TIP3   OH238404   0.642   0.963   4.144  0.6198  0.3500  0.0345
 5638TIP3    H138405   0.594   0.921   4.073 -3.4335  3.6271  0.5016
 5638TIP3    H238406   0.613   0.918   4.223  0.0230  0.9255  0.1435
 5639TIP3   OH238407   2.527   0.085  11.766  0.4258  0.1585 -0.4612
 5639TIP3    H138408   2.490   0.069  11.679 -0.1251  0.8120 -0.3555
 5639TIP3    H238409   2.556   0.176  11.764 -0.1847  0.3805  0.2459
 5640TIP3   OH238410   0.203   3.027   6.221 -0.1707  0.1429  0.0124
 5640TIP3    H138411   0.232   2.944   6.259 -0.8833  1.0118  2.6667
 5640TIP3    H238412   0.281   3.081   6.217 -0.4811  1.0214  3.1567
 5641TIP3   OH238413   3.088   2.651  17.044 -0.0488  0.4216  0.4662
 5641TIP3    H138414   3.133   2.658  17.129 -0.2517 -0.7494  0.6851
 5641TIP3    H238415   3.047   2.737  17.032  3.3442  2.0640 -0.4168
 5642TIP3   OH238416   4.976   0.366  13.995 -0.0684 -0.2660 -0.4797
 5642TIP3    H138417   4.999   0.273  13.998  0.8222 -0.0324  1.0510
 5642TIP3    H238418   4.952   0.388  14.085 -2.2403  0.5453 -1.2028
 5643TIP3   OH238419   0.845   6.663   4.441  0.7135 -0.0126 -0.3162
 5643TIP3    H138420   0.915   6.714   4.400  0.2985  1.1757  0.3957
 5643TIP3    H238421   0.854   6.681   4.535 -0.0702 -0.4541 -0.1451
 5644TIP3   OH238422   5.723   1.148   6.731 -0.4586  0.4259 -0.3890
 5644TIP3    H138423   5.747   1.064   6.691 -2.6812 -1.5136  2.0332
 5644TIP3    H238424   5.807   1.192   6.744  1.4254 -3.4006  2.3104
 5645TIP3   OH238425   3.192   4.839   6.155  0.4645  0.3737  0.0751
 5645TIP3    H138426   3.165   4.779   6.224 -0.5902  2.2426  1.3755
 5645TIP3    H238427   3.126   4.908   6.155  0.2998  0.3549 -2.9838
 5646TIP3   OH238428   5.206   3.351  16.421 -0.1776 -0.4519  0.0879
 5646TIP3    H138429   5.243   3.263  16.416  0.5271 -0.1865  0.4778
 5646TIP3    H238430   5.144   3.348  16.494 -1.9847 -1.2619 -1.3934
 5647TIP3   OH238431   0.682   5.153   5.382 -0.0994  0.5843  0.2397
 5647TIP3    H138432   0.607   5.211   5.366  0.4872  0.8161 -2.0674
 5647TIP3    H238433   0.674   5.085   5.315  1.1784  0.0074  0.6401
 5648TIP3   OH238434   2.917   5.267  16.676  1.0318 -0.1595  0.1362
 5648TIP3    H138435   2.975   5.275  16.752  0.0977  0.9319  0.7480
 5648TIP3    H238436   2.870   5.350  16.672  1.4321  0.0221 -1.9637
 5649TIP3   OH238437   5.954   2.632   4.874  0.0033 -0.2722  0.6512
 5649TIP3    H138438   5.970   2.566   4.807  0.0982 -0.5522  0.9526
 5649TIP3    H238439   5.887   2.689   4.835 -1.1586 -1.3918  0.9570
 5650TIP3   OH238440   3.523   6.475   6.267 -0.3954  0.0202 -0.0468
 5650TIP3    H138441   3.592   6.455   6.331  0.6402 -0.2158 -1.1818
 5650TIP3    H238442   3.442   6.447   6.308  0.3285 -0.7496  0.8886
 5651TIP3   OH238443   3.694   2.996   5.006 -0.4809 -0.5993  0.2458
 5651TIP3    H138444   3.680   3.090   5.004 -0.6658 -0.6024  0.9359
 5651TIP3    H238445   3.777   2.982   4.960 -0.9876 -0.2134 -0.7999
 5652TIP3   OH238446   1.902   5.632  16.583 -0.5188 -0.4149  0.0359
 5652TIP3    H138447   1.980   5.687  16.584 -0.7361 -0.0805 -0.9314
 5652TIP3    H238448   1.833   5.688  16.617 -0.6139 -0.2784 -0.3778
 5653TIP3   OH238449   0.461   3.695   2.290  0.4875 -0.3796 -0.2093
 5653TIP3    H138450   0.402   3.687   2.215 -0.1625 -2.4836  0.4411
 5653TIP3    H238451   0.403   3.718   2.363  0.8915  0.1956 -0.0645
 5654TIP3   OH238452   6.570   3.880  14.691  0.2373  0.0651  0.9066
 5654TIP3    H138453   6.545   3.820  14.760 -0.5599 -1.9339 -1.0120
 5654TIP3    H238454   6.538   3.965  14.720  0.0267 -0.6771  2.9937
 5655TIP3   OH238455   0.439   6.302   0.755  0.2150 -0.4790 -0.2867
 5655TIP3    H138456   0.455   6.294   0.661 -1.8741 -1.9906 -0.5971
 5655TIP3    H238457   0.457   6.394   0.775  1.4282 -0.2940 -1.9743
 5656TIP3   OH238458   2.447   6.820   5.274 -0.0538  0.3533  0.3374
 5656TIP3    H138459   2.449   6.728   5.247  1.9860 -0.1728  1.9786
 5656TIP3    H238460   2.506   6.864   5.212 -0.3769  0.3983  0.0602
 5657TIP3   OH238461   5.673   3.120  11.850  0.3037  0.1363 -0.3392
 5657TIP3    H138462   5.634   3.119  11.937  0.6695  0.7075 -0.1640
 5657TIP3    H238463   5.761   3.083  11.863 -0.4030 -1.8552 -0.8583
 5658TIP3   OH238464   1.803   4.092  16.163  0.2030  0.4095 -0.1177
 5658TIP3    H138465   1.876   4.151  16.181  0.7954  0.2719 -1.9494
 5658TIP3    H238466   1.781   4.107  16.071 -1.1657 -0.5637  0.0109
 5659TIP3   OH238467   3.119   2.721   3.202  0.4427 -0.1013 -0.2994
 5659TIP3    H138468   3.058   2.766   3.260  0.4480  0.5412 -0.7898
 5659TIP3    H238469   3.203   2.765   3.215 -0.0437  1.6270 -2.4933
 5660TIP3   OH238470   4.303   5.993  12.418  0.1672  0.8520 -0.0003
 5660TIP3    H138471   4.306   6.077  12.463  0.1267  1.5628 -1.2881
 5660TIP3    H238472   4.344   6.009  12.333 -0.0747 -0.3583 -0.3695
 5661TIP3   OH238473   2.173   5.231  12.181 -0.2369  0.3708  0.2783
 5661TIP3    H138474   2.191   5.282  12.102  1.6319  0.5491  0.7751
 5661TIP3    H238475   2.210   5.145  12.163  0.7302  0.5871  1.1503
 5662TIP3   OH238476   4.509   0.419  12.297  0.2326  0.6769  0.0186
 5662TIP3    H138477   4.459   0.460  12.368  1.4687 -0.2678  1.4906
 5662TIP3    H238478   4.555   0.492  12.255 -1.6535  1.4501 -0.8406
 5663TIP3   OH238479   6.007   2.478  11.730  0.2327 -0.6865 -0.1893
 5663TIP3    H138480   5.963   2.417  11.789 -0.2789 -0.8224 -0.6979
 5663TIP3    H238481   6.091   2.497  11.773 -0.9604  0.8704  1.6055
 5664TIP3   OH238482   5.874   4.862   1.529 -0.5455 -0.3789 -0.1228
 5664TIP3    H138483   5.877   4.956   1.510 -0.7757 -0.5412 -1.0435
 5664TIP3    H238484   5.843   4.857   1.619  2.2974  0.5084  0.9977
 5665TIP3   OH238485   3.225   4.039  15.093  0.2061 -0.5487  0.7877
 5665TIP3    H138486   3.310   4.040  15.050 -0.6982  0.2748 -1.0829
 5665TIP3    H238487   3.169   3.988  15.035 -0.7892 -0.4131  1.6016
 5666TIP3   OH238488   3.875   4.027   0.517  0.3612 -0.1546  1.1617
 5666TIP3    H138489   3.891   4.039   0.423  0.4097  1.0973  1.3086
 5666TIP3    H238490   3.782   4.047   0.529  0.6058  0.8194  1.5343
 5667TIP3   OH238491   0.108   0.280  13.248 -0.6053  0.0323 -0.8319
 5667TIP3    H138492   0.043   0.269  13.318 -0.6133  0.3131 -0.7934
 5667TIP3    H238493   0.115   0.194  13.208  1.4315 -0.8718  1.2726
 5668TIP3   OH238494   3.096   3.827   0.796 -0.7453 -0.1526 -0.3741
 5668TIP3    H138495   3.191   3.828   0.807 -0.8073  0.8937  0.1846
 5668TIP3    H238496   3.080   3.885   0.723 -0.9891  0.0330 -0.1723
 5669TIP3   OH238497   5.778   5.835   5.988  0.0684 -0.6070 -0.0085
 5669TIP3    H138498   5.805   5.765   6.047 -0.1073  0.2446  1.1189
 5669TIP3    H238499   5.697   5.803   5.948  1.1776 -1.9893 -1.2807
 5670TIP3   OH238500   0.936   6.398  13.175 -0.2886  0.3280  0.6417
 5670TIP3    H138501   0.955   6.423  13.265 -0.5383  0.0656  0.7683
 5670TIP3    H238502   0.977   6.466  13.122 -0.3080  0.5894  0.9596
 5671TIP3   OH238503   0.024   3.075   1.162  0.0167  0.5397  0.0784
 5671TIP3    H138504  -0.046   3.107   1.105 -0.2914 -0.0361  0.1244
 5671TIP3    H238505   0.086   3.032   1.103 -1.2713 -1.8209  0.3177
 5672TIP3   OH238506   0.753   3.846  10.528 -0.1156  0.0067  0.0980
 5672TIP3    H138507   0.840   3.843  10.489 -0.1843  2.3808 -0.3993
 5672TIP3    H238508   0.724   3.937  10.515 -1.9387 -0.2569  1.8265
 5673TIP3   OH238509   6.302   2.925  15.964  0.4517  0.1988 -0.2596
 5673TIP3    H138510   6.367   2.872  16.009 -1.1407 -1.2376  0.4534
 5673TIP3    H238511   6.292   3.003  16.019  0.4769 -0.2817  0.4420
 5674TIP3   OH238512   1.166   5.508   3.670 -0.3918  0.2292 -0.3447
 5674TIP3    H138513   1.140   5.591   3.630  0.9480  0.6284 -0.4348
 5674TIP3    H238514   1.232   5.472   3.610 -0.6546 -0.7092 -0.0949
 5675TIP3   OH238515   0.171   4.369  14.610  0.0640 -0.0667 -0.3082
 5675TIP3    H138516   0.108   4.431  14.573  1.4230  0.6399 -1.5548
 5675TIP3    H238517   0.129   4.284  14.604 -0.5499  0.3146 -1.6676
 5676TIP3   OH238518   1.020   5.349   3.284  0.3561 -0.5468 -0.2028
 5676TIP3    H138519   1.050   5.393   3.364  1.4521  0.5228 -1.1455
 5676TIP3    H238520   0.936   5.391   3.265  1.2471  1.0055 -0.9236
 5677TIP3   OH238521   5.243   6.177   1.461  0.7025  0.0960  0.2807
 5677TIP3    H138522   5.171   6.184   1.522  0.1668  0.0616 -0.3341
 5677TIP3    H238523   5.322   6.195   1.513  0.1065  2.1954  0.5525
 5678TIP3   OH238524   1.148   3.191  13.925  0.0757 -1.0037 -0.4399
 5678TIP3    H138525   1.239   3.166  13.938  0.3450  0.7997  1.8513
 5678TIP3    H238526   1.144   3.225  13.836  0.9422 -3.5504 -1.5639
 5679TIP3   OH238527   4.728   1.875  13.699 -0.0387  0.2960  0.5325
 5679TIP3    H138528   4.722   1.896  13.792 -0.4865 -0.1623  0.6141
 5679TIP3    H238529   4.791   1.938  13.664 -0.8781  1.3673  0.8779
 5680TIP3   OH238530   1.229   4.569  15.017  0.5694 -0.2886  0.3105
 5680TIP3    H138531   1.191   4.489  15.053 -0.9547 -0.2766 -1.1796
 5680TIP3    H238532   1.226   4.558  14.922  0.8470  1.3037  0.0835
 5681TIP3   OH238533   2.815   2.830  11.624  0.4493  0.5548 -0.0783
 5681TIP3    H138534   2.790   2.741  11.648  2.0526  0.9204  3.6468
 5681TIP3    H238535   2.886   2.819  11.561 -0.7786 -0.6534 -1.3344
 5682TIP3   OH238536   4.319   5.925   3.139 -0.3240 -0.2987  0.0750
 5682TIP3    H138537   4.333   5.918   3.233 -1.9279  0.3139  0.3909
 5682TIP3    H238538   4.245   5.866   3.121 -1.4341  1.1698 -0.4024
 5683TIP3   OH238539   4.723   2.533  11.513  0.6326  0.5579 -0.2327
 5683TIP3    H138540   4.816   2.514  11.521  0.5960  0.9540  1.6197
 5683TIP3    H238541   4.680   2.467  11.567 -0.2492 -0.0191 -1.5647
 5684TIP3   OH238542   6.248   6.383  12.602 -0.1387 -0.7196  0.5020
 5684TIP3    H138543   6.332   6.358  12.563  0.6846  0.2196  1.5892
 5684TIP3    H238544   6.268   6.462  12.653 -1.4611 -1.0496  1.5894
 5685TIP3   OH238545   0.439   2.749  13.520 -0.2615 -0.0016 -0.7268
 5685TIP3    H138546   0.527   2.720  13.541 -0.6341  0.2915  1.4787
 5685TIP3    H238547   0.398   2.673  13.478  0.3937 -0.8597  0.1477
 5686TIP3   OH238548   0.545   4.914   5.950 -0.5930 -0.6249  0.0966
 5686TIP3    H138549   0.509   4.858   5.881 -1.1139 -2.5047  1.7755
 5686TIP3    H238550   0.537   4.861   6.030  3.8202 -0.2627  1.0020
 5687TIP3   OH238551   6.550   2.334   1.847 -0.1447 -0.1679  0.6896
 5687TIP3    H138552   6.583   2.249   1.817 -0.4856 -0.5793  1.4710
 5687TIP3    H238553   6.605   2.356   1.922 -1.6991 -0.9297  2.1040
 5688TIP3   OH238554   5.823   3.546  11.933  0.7567  0.0605 -0.1127
 5688TIP3    H138555   5.752   3.501  11.978 -0.7151  1.3384 -1.0516
 5688TIP3    H238556   5.865   3.478  11.880 -0.5443 -0.4828 -0.4676
 5689TIP3   OH238557   5.945   4.872   0.806 -0.6233 -0.5112  0.2020
 5689TIP3    H138558   5.918   4.780   0.805  1.6502 -1.2636  0.9624
 5689TIP3    H238559   6.030   4.871   0.849 -0.7362  2.0402  0.6089
 5690TIP3   OH238560   6.734   2.856  10.272  0.2605  0.2585  0.2911
 5690TIP3    H138561   6.812   2.860  10.216  2.2092  0.6971  2.8748
 5690TIP3    H238562   6.758   2.799  10.344 -1.6298  0.8289  1.4672
 5691TIP3   OH238563   5.105   1.672   5.817  0.0780  0.1109  0.1267
 5691TIP3    H138564   5.105   1.754   5.767 -0.0958  1.1030  1.7140
 5691TIP3    H238565   5.139   1.695   5.903 -0.0695 -1.4777  0.6546
 5692TIP3   OH238566   4.100   3.300  12.514 -0.2861 -0.3404 -0.1078
 5692TIP3    H138567   4.141   3.214  12.515  0.6814  0.1055  0.2709
 5692TIP3    H238568   4.006   3.283  12.524 -0.2001 -1.3872 -0.9878
 5693TIP3   OH238569   1.027   5.628   4.136 -0.2661  0.4703 -0.3260
 5693TIP3    H138570   1.119   5.627   4.162 -0.4880  0.2935  0.4830
 5693TIP3    H238571   1.002   5.535   4.135 -0.1919  0.4402 -1.4883
 5694TIP3   OH238572   5.972   0.968  14.826  0.2254  0.1870  0.3364
 5694TIP3    H138573   5.995   1.039  14.886  1.6937 -0.1504  0.2041
 5694TIP3    H238574   6.006   0.889  14.868 -1.2108 -0.4431  0.3853
 5695TIP3   OH238575   6.018   1.119   1.324 -0.0962  0.1896  0.4863
 5695TIP3    H138576   6.008   1.025   1.307 -0.7620  0.4525 -0.6849
 5695TIP3    H238577   6.098   1.125   1.376 -0.5165 -1.0948  1.3526
 5696TIP3   OH238578   5.206   4.531   3.046  0.1844 -0.1209  0.0230
 5696TIP3    H138579   5.268   4.535   2.973 -0.3063  1.2458 -0.3445
 5696TIP3    H238580   5.260   4.514   3.123  0.8947  0.0574 -0.4343
 5697TIP3   OH238581   5.468   6.212   3.006  0.6021  0.0897 -0.8972
 5697TIP3    H138582   5.406   6.283   2.987  0.2132 -0.3599 -1.3179
 5697TIP3    H238583   5.549   6.239   2.965  0.1213 -0.2742 -2.1432
 5698TIP3   OH238584   4.493   5.241  11.383 -0.3423 -0.2957 -0.6176
 5698TIP3    H138585   4.578   5.283  11.397  1.1908 -2.7748 -1.8438
 5698TIP3    H238586   4.510   5.147  11.394 -2.7061 -0.9679 -1.9368
 5699TIP3   OH238587   4.839   6.398  13.648  0.3272 -0.2904 -0.6027
 5699TIP3    H138588   4.774   6.342  13.606  1.5131  0.2061 -3.2707
 5699TIP3    H238589   4.908   6.338  13.677  0.8430 -0.4146 -2.0160
 5700TIP3   OH238590   3.119   0.539   0.826  0.3359 -0.3894 -0.2656
 5700TIP3    H138591   3.213   0.532   0.813  0.4727  1.7658 -0.7241
 5700TIP3    H238592   3.104   0.497   0.911  2.0697  1.1965  0.9143
 5701TIP3   OH238593   5.517   1.704  12.531 -0.0696  0.2046  0.3926
 5701TIP3    H138594   5.528   1.626  12.478  1.6305 -0.1703  1.2313
 5701TIP3    H238595   5.541   1.776  12.473 -1.5643  0.1250 -0.3580
 5702TIP3   OH238596   2.551   1.426  12.563 -0.3090 -0.0908 -0.0726
 5702TIP3    H138597   2.499   1.348  12.547  0.3011 -0.2933 -1.0909
 5702TIP3    H238598   2.568   1.424  12.657 -0.5574 -1.0065 -0.0394
 5703TIP3   OH238599   2.037   5.394   1.559 -0.3906 -0.2441  0.4078
 5703TIP3    H138600   2.071   5.404   1.470 -0.5968 -0.3854  0.3141
 5703TIP3    H238601   2.049   5.481   1.599  1.0268 -0.5515  0.7041
 5704TIP3   OH238602   6.112   1.267  16.964 -0.3643 -0.9579 -0.6611
 5704TIP3    H138603   6.018   1.249  16.971 -0.5724 -0.1349 -1.2417
 5704TIP3    H238604   6.132   1.317  17.043 -0.6744 -0.0928 -1.1207
 5705TIP3   OH238605   5.987   0.823   4.022  0.4049  1.0002  0.2241
 5705TIP3    H138606   5.950   0.812   3.934  0.0382  2.7322  0.1336
 5705TIP3    H238607   5.952   0.906   4.053  2.9947  1.9944  0.7513
 5706TIP3   OH238608   6.062   6.149   3.473 -0.4472 -0.8263 -0.1959
 5706TIP3    H138609   6.099   6.108   3.395 -1.0026 -0.2285 -0.7875
 5706TIP3    H238610   6.110   6.231   3.482  0.6721 -1.5824  0.9948
 5707TIP3   OH238611   6.657   3.125   6.544  0.4486 -0.4638 -0.1332
 5707TIP3    H138612   6.680   3.176   6.622  0.0542 -0.5950  0.0716
 5707TIP3    H238613   6.722   3.151   6.479  0.4412  0.0741  0.0640
 5708TIP3   OH238614   0.709   2.007  11.632 -0.1144  0.4278  1.1877
 5708TIP3    H138615   0.691   1.941  11.698 -0.8826  0.2292  0.7979
 5708TIP3    H238616   0.684   2.090  11.673 -1.0324  0.2549  0.9903
 5709TIP3   OH238617   2.377   2.101  17.015 -0.6916 -0.3651  0.6214
 5709TIP3    H138618   2.411   2.181  16.974  0.4650  0.0348  2.2761
 5709TIP3    H238619   2.284   2.119  17.028 -0.9173 -0.1686 -0.9579
 5710TIP3   OH238620   0.523   6.754   5.240 -0.2857  0.3385 -0.2664
 5710TIP3    H138621   0.529   6.841   5.279 -1.0373  0.4958 -0.4865
 5710TIP3    H238622   0.483   6.700   5.308  1.1769 -0.1070  0.2747
 5711TIP3   OH238623   0.817   5.134   4.016  0.2945  0.4008 -0.4844
 5711TIP3    H138624   0.826   5.148   3.922 -2.7124  3.0242 -0.5540
 5711TIP3    H238625   0.750   5.065   4.023  0.6579  0.0701 -0.2605
 5712TIP3   OH238626   2.554   1.423  14.739  0.3615  0.3203  0.2658
 5712TIP3    H138627   2.541   1.498  14.681  3.3054  0.2773 -0.6563
 5712TIP3    H238628   2.608   1.458  14.811 -1.2134 -0.1826  1.7699
 5713TIP3   OH238629   2.996   2.911   1.402  0.2479  0.1208 -0.2608
 5713TIP3    H138630   2.960   2.916   1.313 -0.2787  0.8234 -0.0194
 5713TIP3    H238631   3.091   2.910   1.389  0.2079  1.2124 -0.8142
 5714TIP3   OH238632   6.007   3.169   1.605 -0.0478 -0.0352  0.1765
 5714TIP3    H138633   6.033   3.166   1.513  0.7490  0.5176  0.3735
 5714TIP3    H238634   5.946   3.096   1.616  1.4410 -1.3936 -0.2943
 5715TIP3   OH238635   2.511   1.013   5.178 -0.0169  0.7513  0.1165
 5715TIP3    H138636   2.456   0.966   5.115  1.2087 -0.6925  0.0616
 5715TIP3    H238637   2.498   0.965   5.260  0.7879  0.6801  0.2089
 5716TIP3   OH238638   6.354   0.576   1.676  0.0615  0.4957  0.4245
 5716TIP3    H138639   6.348   0.546   1.767  0.8436 -0.7331  0.0953
 5716TIP3    H238640   6.314   0.663   1.677  2.0524  1.4946  2.4006
 5717TIP3   OH238641   4.008   5.659  11.425 -0.5497 -0.0894 -0.1533
 5717TIP3    H138642   3.931   5.614  11.390 -0.9313  0.3934  0.0570
 5717TIP3    H238643   3.994   5.751  11.402  0.0778 -0.0355 -0.3196
 5718TIP3   OH238644   4.915   1.685  14.168  0.5753 -0.7796  0.1902
 5718TIP3    H138645   4.929   1.594  14.142  2.2474 -0.5598  0.2373
 5718TIP3    H238646   4.990   1.706  14.223 -0.3477  0.3100  1.0734
 5719TIP3   OH238647   0.072   1.829   2.328  0.2093 -0.2437  0.5164
 5719TIP3    H138648  -0.021   1.820   2.349 -0.1803  0.8035 -0.6229
 5719TIP3    H238649   0.112   1.749   2.361 -1.0737 -0.6583  1.1357
 5720TIP3   OH238650   4.765   0.815   3.038 -0.2259  0.0619  0.3030
 5720TIP3    H138651   4.726   0.849   3.118 -0.2430 -1.3499  0.9286
 5720TIP3    H238652   4.800   0.729   3.063  0.3260 -0.1359 -1.0521
 5721TIP3   OH238653   3.532   4.664   0.684  0.1976 -0.0598  0.0623
 5721TIP3    H138654   3.443   4.642   0.657  0.4484 -0.4761 -0.4423
 5721TIP3    H238655   3.530   4.657   0.780 -1.0624  2.8314  0.3430
 5722TIP3   OH238656   0.333   1.765   0.862  0.1164  0.2648  0.0617
 5722TIP3    H138657   0.290   1.851   0.853 -0.2322  0.3763  2.3190
 5722TIP3    H238658   0.412   1.773   0.810 -0.3994  1.6160 -0.5815
 5723TIP3   OH238659   5.549   5.445   2.724  0.6017  0.0890 -0.6707
 5723TIP3    H138660   5.589   5.506   2.786 -0.5488  0.3477 -0.1485
 5723TIP3    H238661   5.580   5.474   2.638  4.1460 -1.7049 -0.1662
 5724TIP3   OH238662   4.724   6.018   3.707 -0.1965  0.0427 -0.8727
 5724TIP3    H138663   4.737   5.975   3.622  0.7265 -1.4280 -0.0382
 5724TIP3    H238664   4.811   6.049   3.732 -0.0551 -1.2614  0.3842
 5725TIP3   OH238665   0.606   4.953   1.965 -0.0827  0.3558  0.4168
 5725TIP3    H138666   0.686   4.902   1.975 -0.3738 -0.0883  0.5096
 5725TIP3    H238667   0.573   4.964   2.054 -1.9148 -2.3805  0.1971
 5726TIP3   OH238668   0.206   2.878   0.671  0.2584 -0.6063 -0.5251
 5726TIP3    H138669   0.112   2.862   0.659  0.2996 -0.0469 -1.8269
 5726TIP3    H238670   0.245   2.855   0.586  0.9281  1.6186 -0.8926
 5727TIP3   OH238671   5.834   3.855   1.314 -0.8332 -0.2143 -0.5399
 5727TIP3    H138672   5.750   3.872   1.356 -0.0574  2.3683  0.0819
 5727TIP3    H238673   5.890   3.822   1.384 -0.4169  1.1885 -0.1914
 5728TIP3   OH238674   5.285   6.602   1.605 -0.1265 -0.6256  0.0645
 5728TIP3    H138675   5.325   6.688   1.591 -2.5472  0.5301 -0.1580
 5728TIP3    H238676   5.205   6.620   1.654 -0.5221 -2.8135  0.3265
 5729TIP3   OH238677   3.970   1.592  13.644  0.8522 -0.4686 -0.0610
 5729TIP3    H138678   4.000   1.670  13.690  0.7842 -0.0086 -0.7701
 5729TIP3    H238679   4.040   1.572  13.582 -0.3535  0.8094 -1.9696
 5730TIP3   OH238680   0.130   2.012  16.858 -0.2075 -0.1795 -0.4864
 5730TIP3    H138681   0.224   1.999  16.855  0.0779  1.4436  0.0123
 5730TIP3    H238682   0.094   1.926  16.879  1.1597 -0.8157 -0.6537
 5731TIP3   OH238683   1.495   6.026  15.970 -0.3298  0.0800 -0.3313
 5731TIP3    H138684   1.563   6.078  16.014 -1.0925 -0.3969  1.5129
 5731TIP3    H238685   1.520   5.935  15.987 -2.4567 -0.1514  2.2709
 5732TIP3   OH238686   6.472   3.320   5.736  0.6645 -0.8289 -0.1834
 5732TIP3    H138687   6.497   3.230   5.714  0.6280 -0.9324  0.1968
 5732TIP3    H238688   6.379   3.325   5.716  0.0874 -1.5974  2.0434
 5733TIP3   OH238689   5.764   1.584  13.855 -0.2597  0.3231 -0.8558
 5733TIP3    H138690   5.840   1.553  13.806 -0.1377 -0.4461 -0.1967
 5733TIP3    H238691   5.793   1.666  13.895  1.7500 -1.9181  2.8485
 5734TIP3   OH238692   4.826   2.772   1.295 -0.5813  0.2603  0.4565
 5734TIP3    H138693   4.777   2.707   1.244  0.0482  0.8832 -0.9837
 5734TIP3    H238694   4.770   2.791   1.370 -1.8513 -0.1525 -0.3681
 5735TIP3   OH238695   5.070   1.791  12.130 -0.1381  0.4375  0.3798
 5735TIP3    H138696   5.091   1.706  12.091 -1.0753  0.0088  0.7790
 5735TIP3    H238697   5.109   1.787  12.217 -0.6363  0.1975  0.5964
 5736TIP3   OH238698   5.109   1.716   2.967 -0.1032  0.5103  0.4074
 5736TIP3    H138699   5.096   1.626   2.934  0.7825  0.5757 -0.1584
 5736TIP3    H238700   5.059   1.719   3.048 -2.0590  0.2159 -0.7255
 5737TIP3   OH238701   0.371   6.498   6.054 -0.4927 -0.0337 -0.2782
 5737TIP3    H138702   0.356   6.591   6.071  0.4739  0.0458  0.1883
 5737TIP3    H238703   0.466   6.488   6.055 -0.5987 -1.1845  0.5286
 5738TIP3   OH238704   1.901   0.322  11.767  0.4992  0.6521  0.2140
 5738TIP3    H138705   1.806   0.322  11.781  0.1640  2.9078 -1.5187
 5738TIP3    H238706   1.934   0.390  11.825  1.5408 -1.9036  2.8435
 5739TIP3   OH238707   1.189   1.168   4.955 -0.1934 -0.6728  0.8877
 5739TIP3    H138708   1.175   1.076   4.979  0.8384 -1.7633 -2.1072
 5739TIP3    H238709   1.103   1.198   4.925 -0.2010 -1.2200  0.3366
 5740TIP3   OH238710   2.289   0.387   4.606 -0.1396 -0.1382  0.4150
 5740TIP3    H138711   2.345   0.431   4.542  0.9866 -0.0716  1.4305
 5740TIP3    H238712   2.203   0.384   4.563  0.1532  1.4918 -0.3841
 5741TIP3   OH238713   3.037   5.784   1.587 -0.3996  0.0358 -0.0650
 5741TIP3    H138714   3.087   5.707   1.559 -1.5969 -0.0254 -2.2940
 5741TIP3    H238715   3.102   5.854   1.591  0.3447 -0.6361 -0.0350
 5742TIP3   OH238716   3.416   1.919   0.012  0.2297  0.2467  0.2130
 5742TIP3    H138717   3.477   1.969   0.067  0.5904  1.5678 -1.3338
 5742TIP3    H238718   3.462   1.837  -0.006  0.2706 -0.0425  1.5110
 5743TIP3   OH238719   5.426   4.291  16.741 -0.0613 -0.1348  0.5409
 5743TIP3    H138720   5.408   4.273  16.833 -0.5372 -1.3215  0.2337
 5743TIP3    H238721   5.454   4.207  16.704 -2.1422 -0.2616 -0.9202
 5744TIP3   OH238722   0.441   1.635  17.274 -0.3390 -0.4428  0.4429
 5744TIP3    H138723   0.362   1.591  17.241  0.9319 -2.8478  0.3952
 5744TIP3    H238724   0.423   1.649  17.366 -0.6616 -1.4554  0.5535
 5745TIP3   OH238725   0.870   1.593   3.038  0.5225  0.1137 -0.1749
 5745TIP3    H138726   0.912   1.508   3.054  0.1516  0.2011  1.4012
 5745TIP3    H238727   0.939   1.657   3.055  0.9198  0.1541 -1.7586
 5746TIP3   OH238728   0.010   4.578  12.950 -0.2968 -0.0943  0.4858
 5746TIP3    H138729   0.088   4.627  12.924 -0.0955 -0.5506  0.1975
 5746TIP3    H238730   0.018   4.569  13.045 -0.0804  0.0063  0.4777
 5747TIP3   OH238731   6.236   0.649   2.953  0.5249  0.3776  0.6348
 5747TIP3    H138732   6.148   0.627   2.986  0.2157  0.0108 -0.4119
 5747TIP3    H238733   6.241   0.744   2.961 -0.3330  0.5018 -0.1685
 5748TIP3   OH238734   6.654   1.683  15.708  0.0524  0.3085  0.4910
 5748TIP3    H138735   6.681   1.716  15.794 -0.0814  1.2280  0.1893
 5748TIP3    H238736   6.705   1.603  15.696  0.9180  0.7829  0.9402
 5749TIP3   OH238737   4.085   1.373  15.819  0.1277  0.2159 -0.3867
 5749TIP3    H138738   4.074   1.296  15.763  1.8048  1.0977 -2.0610
 5749TIP3    H238739   4.179   1.393  15.813  0.2898  0.6578  2.4094
 5750TIP3   OH238740   6.715   2.318   5.481 -0.6324  0.2912  0.1563
 5750TIP3    H138741   6.671   2.354   5.558 -2.6750  0.6184 -1.0671
 5750TIP3    H238742   6.645   2.275   5.432  0.8266 -0.9182 -0.9599
 5751TIP3   OH238743   3.623   1.394  17.280 -0.1350  0.0862  0.2521
 5751TIP3    H138744   3.631   1.304  17.251 -1.1517 -0.4907  1.6498
 5751TIP3    H238745   3.700   1.438  17.244 -0.0633 -1.1197 -1.1610
 5752TIP3   OH238746   1.153   3.165  16.090 -0.2367  0.5875  0.1059
 5752TIP3    H138747   1.237   3.127  16.116 -0.8606 -0.8785  0.0790
 5752TIP3    H238748   1.113   3.099  16.033 -1.9342  0.6847  1.1043
 5753TIP3   OH238749   4.506   5.093  14.645 -0.3683 -0.5770  0.1551
 5753TIP3    H138750   4.473   5.006  14.670 -0.2174 -0.4197  0.9377
 5753TIP3    H238751   4.444   5.154  14.685  1.1270 -0.2595  2.1164
 5754TIP3   OH238752   5.424   6.802  15.412  0.0810 -0.5643 -0.0532
 5754TIP3    H138753   5.446   6.895  15.424  1.9639 -1.0131  0.2327
 5754TIP3    H238754   5.372   6.800  15.332 -1.1423  0.8768  0.6400
 5755TIP3   OH238755   4.600   1.498   5.293 -0.3980  0.3189  0.2872
 5755TIP3    H138756   4.676   1.522   5.347 -1.4807  1.6622  1.2954
 5755TIP3    H238757   4.531   1.478   5.357 -0.4662 -2.6344 -0.5611
 5756TIP3   OH238758   2.841   4.760  12.248 -0.3352  0.0187 -0.0013
 5756TIP3    H138759   2.789   4.740  12.326  1.4410  0.3542  1.3157
 5756TIP3    H238760   2.891   4.680  12.231  1.3261  0.8168  0.8975
 5757TIP3   OH238761   4.171   2.490   4.593  0.1737 -0.4419 -0.2117
 5757TIP3    H138762   4.150   2.425   4.527 -0.0318  1.5672 -2.2293
 5757TIP3    H238763   4.134   2.572   4.560  1.6591  1.0213  1.5036
 5758TIP3   OH238764   4.611   2.397   0.560  0.1967  0.8663  0.8276
 5758TIP3    H138765   4.601   2.312   0.603  2.2423  1.6667  3.0820
 5758TIP3    H238766   4.641   2.456   0.629 -1.2914  3.5161 -0.6272
 5759TIP3   OH238767   5.603   4.779   0.337  0.0146 -0.0057 -0.2884
 5759TIP3    H138768   5.659   4.855   0.323  0.0096 -0.1940 -1.4179
 5759TIP3    H238769   5.571   4.789   0.426  2.1118 -0.0605  0.5368
 5760TIP3   OH238770   4.333   0.479   4.507 -0.1146 -0.1069  0.6943
 5760TIP3    H138771   4.401   0.534   4.547  0.1150  1.2624 -1.4170
 5760TIP3    H238772   4.251   0.524   4.525  0.1039  1.2066 -1.3184
 5761TIP3   OH238773   5.974   1.293  13.847 -0.0914  0.0022  0.1014
 5761TIP3    H138774   5.924   1.306  13.767 -0.0032 -0.1578  0.0177
 5761TIP3    H238775   6.028   1.371  13.856 -1.0753  0.6227  0.7276
 5762TIP3   OH238776   5.398   1.473   1.365  0.4081 -0.2965 -0.5325
 5762TIP3    H138777   5.357   1.444   1.447  1.5267  0.6728  0.4148
 5762TIP3    H238778   5.338   1.444   1.296 -2.0909  1.4213  0.7713
 5763TIP3   OH238779   0.857   5.638   4.587  0.3923 -0.1914  0.0213
 5763TIP3    H138780   0.927   5.683   4.539  0.4161 -0.2309  0.0182
 5763TIP3    H238781   0.878   5.653   4.679 -0.7503  1.5942  0.0353
 5764TIP3   OH238782   0.651   4.953  14.106  0.3066  0.1816 -0.2875
 5764TIP3    H138783   0.675   4.897  14.180  0.0436  0.5216  0.0570
 5764TIP3    H238784   0.563   4.983  14.126  0.4241  0.6779 -0.4949
 5765TIP3   OH238785   2.821   0.429  11.453 -0.5681 -0.5398  0.7779
 5765TIP3    H138786   2.777   0.365  11.508 -1.1273 -0.9168 -0.0797
 5765TIP3    H238787   2.782   0.513  11.476 -2.2709 -0.9373 -0.4238
 5766TIP3   OH238788   5.765   1.028  16.159 -0.4750 -0.4660  0.0740
 5766TIP3    H138789   5.823   1.037  16.235  0.0984  0.8434 -0.4854
 5766TIP3    H238790   5.806   0.960  16.106  1.3403  1.2936 -0.9332
 5767TIP3   OH238791   1.108   4.272   3.240 -0.2200  0.0825  0.1090
 5767TIP3    H138792   1.098   4.367   3.238  1.6181  0.3150  0.4451
 5767TIP3    H238793   1.021   4.240   3.264 -0.6427  1.7220  0.9329
 5768TIP3   OH238794   1.911   1.323  11.542  0.3770  0.1119  0.8885
 5768TIP3    H138795   1.915   1.291  11.632  3.4736 -1.3850  0.3602
 5768TIP3    H238796   1.978   1.273  11.496 -0.1889  1.7577 -1.9736
 5769TIP3   OH238797   5.261   3.706  12.158 -0.3840  0.0966  0.1243
 5769TIP3    H138798   5.282   3.627  12.109  2.8334  0.4453  0.7152
 5769TIP3    H238799   5.239   3.675  12.246  0.2321 -0.1988  0.1789
 5770TIP3   OH238800   4.890   5.637   6.416  0.4768  0.1803  0.1060
 5770TIP3    H138801   4.964   5.577   6.410  0.4786 -0.2143  2.7964
 5770TIP3    H238802   4.842   5.608   6.494 -0.2223  2.8473  0.7684
 5771TIP3   OH238803   5.850   3.527  13.924  0.1951 -0.1167  0.0299
 5771TIP3    H138804   5.902   3.546  14.002 -1.8901  0.1412  1.4768
 5771TIP3    H238805   5.795   3.605  13.913 -0.1807 -0.5330 -1.1633
 5772TIP3   OH238806   0.222   2.315  11.639 -0.0733 -0.4477 -0.1336
 5772TIP3    H138807   0.219   2.323  11.735 -0.3913  2.1368 -0.2860
 5772TIP3    H238808   0.305   2.355  11.615 -0.6670  0.2600 -1.0263
 5773TIP3   OH238809   5.238   5.701  11.239 -0.4783 -0.1032 -0.1973
 5773TIP3    H138810   5.316   5.674  11.191 -0.0079 -0.4149  0.7283
 5773TIP3    H238811   5.185   5.622  11.246  0.9453 -0.9253  2.6013
 5774TIP3   OH238812   0.405   2.323  12.140  0.4597 -0.4043 -0.2077
 5774TIP3    H138813   0.435   2.413  12.149 -1.7117  0.2895  0.8112
 5774TIP3    H238814   0.453   2.275  12.207  0.5963  0.2838  0.2026
 5775TIP3   OH238815   6.685   3.483  16.460 -0.7672  0.2773  0.4820
 5775TIP3    H138816   6.751   3.524  16.517 -0.1829  0.3328 -0.2137
 5775TIP3    H238817   6.679   3.542  16.385  0.3794 -1.0624 -0.7253
 5776TIP3   OH238818   5.473   1.025   4.037  0.0838 -0.0994  0.2782
 5776TIP3    H138819   5.395   1.080   4.025  0.8043  0.8781  0.0324
 5776TIP3    H238820   5.475   1.007   4.131  1.3540  2.6337  0.8762
 5777TIP3   OH238821   5.480   0.242  15.459 -0.4949  0.2406 -0.7782
 5777TIP3    H138822   5.485   0.283  15.546  3.7625  0.8756 -1.1300
 5777TIP3    H238823   5.449   0.313  15.402 -3.7996 -0.3063  0.0786
 5778TIP3   OH238824   3.809   2.198  11.338  0.4368 -0.7166 -0.0309
 5778TIP3    H138825   3.891   2.226  11.380 -0.1361 -0.1073  0.7051
 5778TIP3    H238826   3.838   2.151  11.259  1.5177 -1.2507  0.6484
 5779TIP3   OH238827   0.920   6.654   1.665  0.3107 -0.2355 -0.5356
 5779TIP3    H138828   0.863   6.689   1.596 -0.2743  1.4436  0.7438
 5779TIP3    H238829   0.860   6.634   1.737  1.1887  0.4889  0.4166
 5780TIP3   OH238830   5.510   1.551  11.199  0.3649  0.2254 -0.4551
 5780TIP3    H138831   5.480   1.533  11.289 -0.8055 -1.1743 -1.0712
 5780TIP3    H238832   5.593   1.505  11.192  0.0512 -0.3798 -0.3217
 5781TIP3   OH238833   0.975   2.479  11.870 -0.5431 -0.2922  0.2812
 5781TIP3    H138834   0.996   2.386  11.860  1.6210  0.3120 -1.6380
 5781TIP3    H238835   1.009   2.502  11.957  0.6218 -0.9307  0.0181
 5782TIP3   OH238836   0.717   1.816  11.810 -0.3276 -0.1374  0.0295
 5782TIP3    H138837   0.788   1.859  11.858 -0.6530 -0.3399  0.7004
 5782TIP3    H238838   0.706   1.732  11.853 -0.4158 -0.4616 -0.6071
 5783TIP3   OH238839   6.811   6.297  11.548  0.0044  0.2897 -0.7939
 5783TIP3    H138840   6.767   6.346  11.478  1.2642  0.8258 -1.2321
 5783TIP3    H238841   6.840   6.217  11.505  0.7363  0.5976 -0.8842
 5784TIP3   OH238842   0.669   4.210  13.587  0.2988 -0.0946  0.3629
 5784TIP3    H138843   0.717   4.271  13.531  0.6594 -0.2689  0.4780
 5784TIP3    H238844   0.718   4.210  13.670 -0.0194 -0.1169  0.5525
 5785TIP3   OH238845   3.669   3.214  10.921  0.0452  0.1611  0.5897
 5785TIP3    H138846   3.615   3.187  10.996 -0.4058  0.3190  0.3297
 5785TIP3    H238847   3.658   3.309  10.917 -0.5668  0.0712 -0.1474
 5786TIP3   OH238848   1.402   0.945  17.039 -0.4531 -0.0256  0.3313
 5786TIP3    H138849   1.421   1.011  17.106 -0.6555  0.2465  0.1277
 5786TIP3    H238850   1.346   0.991  16.976 -0.7526 -0.4503  0.2840
 5787TIP3   OH238851   4.384   1.848   0.670  0.3673  0.3276 -0.6591
 5787TIP3    H138852   4.334   1.916   0.717  1.5096  1.5760 -1.2034
 5787TIP3    H238853   4.322   1.816   0.604 -0.3463  0.5011 -0.0975
 5788TIP3   OH238854   0.643   5.248   4.727 -0.3767  0.0638  0.1701
 5788TIP3    H138855   0.718   5.273   4.673  0.4308  0.1509  1.3032
 5788TIP3    H238856   0.591   5.328   4.735  1.0758  0.8787  1.9977
 5789TIP3   OH238857   2.961   0.544  13.793 -0.2465  0.4436  0.7087
 5789TIP3    H138858   3.037   0.600  13.811 -0.5150  0.6266  1.2744
 5789TIP3    H238859   2.998   0.468  13.749  0.1708  0.8873  0.2798
 5790TIP3   OH238860   6.532   0.045  14.275  0.4648 -0.6407  0.2825
 5790TIP3    H138861   6.519   0.120  14.218  1.0745 -0.6288  0.1544
 5790TIP3    H238862   6.534   0.082  14.363  1.4700 -0.4123  0.1696
 5791TIP3   OH238863   6.027   0.346   4.002 -0.8543 -0.3432  0.0390
 5791TIP3    H138864   6.067   0.329   3.916 -0.7481 -0.3150  0.0834
 5791TIP3    H238865   6.010   0.259   4.038  0.3062 -0.3725  0.5576
 5792TIP3   OH238866   2.430   5.288   0.817 -0.2841  0.5107 -0.4841
 5792TIP3    H138867   2.395   5.259   0.732 -0.9925 -1.1697  0.3348
 5792TIP3    H238868   2.386   5.232   0.881  1.7072  0.3933  0.8510
 5793TIP3   OH238869   5.395   3.329   5.373 -0.1136 -0.0844  0.1640
 5793TIP3    H138870   5.314   3.282   5.391 -0.3654  0.3848  0.2898
 5793TIP3    H238871   5.414   3.312   5.281 -0.9514  0.6894 -0.1671
 5794TIP3   OH238872   5.909   4.911  16.608  0.4691  0.1694  0.2370
 5794TIP3    H138873   5.904   4.825  16.650  1.3904 -0.2715 -0.5258
 5794TIP3    H238874   5.986   4.952  16.648 -0.0544  0.7176  0.7092
 5795TIP3   OH238875   5.619   3.740   3.232  0.3967 -0.1290 -0.6532
 5795TIP3    H138876   5.581   3.653   3.248  2.1718 -1.0847 -1.3760
 5795TIP3    H238877   5.596   3.759   3.141  1.3971 -0.6125 -1.0230
 5796TIP3   OH238878   0.928   2.498  16.455 -0.2966 -0.4360 -0.1956
 5796TIP3    H138879   0.835   2.519  16.449  0.1153  1.2803 -1.3282
 5796TIP3    H238880   0.944   2.436  16.384 -0.2017  0.9420 -1.4266
 5797TIP3   OH238881   0.186   4.224   5.576 -0.1851  0.2010 -0.3138
 5797TIP3    H138882   0.263   4.168   5.573 -0.0922  0.3650 -2.0964
 5797TIP3    H238883   0.158   4.232   5.485  1.3166  5.0977 -0.6620
 5798TIP3   OH238884   2.880   4.014   5.418  0.4465 -0.2439  0.0316
 5798TIP3    H138885   2.915   4.008   5.329 -1.9875  1.7164 -1.1816
 5798TIP3    H238886   2.888   4.106   5.441  1.2151 -0.7536  1.9832
 5799TIP3   OH238887   0.747   6.436   3.676  0.4112 -0.2885  0.5611
 5799TIP3    H138888   0.731   6.369   3.609 -0.9741  1.4162 -0.9064
 5799TIP3    H238889   0.662   6.448   3.718  0.7929  0.1365  1.2176
 5800TIP3   OH238890   1.744   6.359   5.093  0.0296  0.1715 -0.1501
 5800TIP3    H138891   1.737   6.438   5.041  1.2622  1.5269  1.6181
 5800TIP3    H238892   1.835   6.331   5.083 -0.3910 -1.0614 -0.7703
 5801TIP3   OH238893   2.021   3.564   5.763 -0.4996  0.3927 -0.4152
 5801TIP3    H138894   2.061   3.523   5.686 -0.7586  0.2983 -0.4995
 5801TIP3    H238895   1.928   3.546   5.754 -0.3927 -0.7810  0.6200
 5802TIP3   OH238896   2.648   4.249  15.934 -0.5416  0.0326  0.0493
 5802TIP3    H138897   2.619   4.339  15.945 -1.8399 -0.2234 -1.1006
 5802TIP3    H238898   2.723   4.255  15.874  1.0311  0.5591  1.9796
 5803TIP3   OH238899   1.576   3.470  13.093  0.1111 -0.1415  0.0937
 5803TIP3    H138900   1.599   3.382  13.064 -0.0878 -1.9884  4.6364
 5803TIP3    H238901   1.498   3.459  13.147  0.1451  2.7863  0.9723
 5804TIP3   OH238902   0.487   2.636   0.697 -0.0945  0.1405  0.0869
 5804TIP3    H138903   0.570   2.670   0.730 -1.4278  2.1979  1.5825
 5804TIP3    H238904   0.490   2.652   0.603  1.4759 -0.4701  0.0195
 5805TIP3   OH238905   3.837   3.550  12.779 -0.1896  0.0322 -0.0191
 5805TIP3    H138906   3.868   3.640  12.789 -2.1291  0.9251 -1.4418
 5805TIP3    H238907   3.858   3.528  12.688  2.5587 -1.9716  0.9427
 5806TIP3   OH238908   0.404   3.322   2.062 -0.2910  0.6234 -0.2586
 5806TIP3    H138909   0.377   3.362   2.145  0.0586 -1.9003  1.1891
 5806TIP3    H238910   0.453   3.391   2.017  1.0485  1.5912  2.4631
 5807TIP3   OH238911   1.542   5.061   0.990 -0.2662 -0.5325 -0.2448
 5807TIP3    H138912   1.518   4.983   1.041 -1.2466 -1.1943 -1.6369
 5807TIP3    H238913   1.637   5.059   0.987 -0.1180 -0.1352  2.0031
 5808TIP3   OH238914   4.905   3.636  16.721 -0.0786  0.5443  0.2034
 5808TIP3    H138915   4.905   3.581  16.800  1.1825 -1.7091 -1.2799
 5808TIP3    H238916   4.814   3.664  16.712 -0.3896  0.2732  2.0406
 5809TIP3   OH238917   4.693   0.118   2.575 -0.0969 -0.3287 -0.3125
 5809TIP3    H138918   4.617   0.162   2.538 -0.3598 -1.6524 -1.4589
 5809TIP3    H238919   4.762   0.132   2.510  0.2177 -0.3470  0.0199
 5810TIP3   OH238920   2.702   5.626  11.303 -0.2978 -0.9826 -0.4512
 5810TIP3    H138921   2.633   5.594  11.362 -0.4094 -1.3899 -0.7963
 5810TIP3    H238922   2.662   5.699  11.256 -0.3259 -0.8884 -0.2816
 5811TIP3   OH238923   2.715   3.313   0.803 -0.1906 -0.5010 -0.0200
 5811TIP3    H138924   2.732   3.219   0.814 -1.2518 -0.7868 -0.6463
 5811TIP3    H238925   2.693   3.322   0.710  0.1916  0.4307 -0.0318
 5812TIP3   OH238926   5.744   0.033   1.987  0.0825 -0.5923 -0.1297
 5812TIP3    H138927   5.828   0.017   1.944 -0.2892  0.6949 -1.4488
 5812TIP3    H238928   5.756   0.117   2.032 -1.2062  0.9794 -2.5157
 5813TIP3   OH238929   5.964   0.400  15.325 -0.3143  0.1101 -0.3950
 5813TIP3    H138930   6.014   0.329  15.366 -1.0168 -0.5844 -0.6976
 5813TIP3    H238931   5.880   0.399  15.371 -0.6351  0.1840 -0.9733
 5814TIP3   OH238932   5.880   2.308  14.324  0.4304 -0.3923  0.1344
 5814TIP3    H138933   5.859   2.323  14.416  1.0058  0.6151  0.1172
 5814TIP3    H238934   5.805   2.260  14.290 -0.3615  0.3022  0.8443
 5815TIP3   OH238935   4.744   5.065   1.025 -0.6909  0.1185  0.3241
 5815TIP3    H138936   4.780   5.052   0.937 -2.1226  0.4586 -0.3429
 5815TIP3    H238937   4.772   4.987   1.073 -0.1982 -0.2600 -0.5388
 5816TIP3   OH238938   5.634   6.255   3.438 -0.4045  0.5243 -0.2907
 5816TIP3    H138939   5.666   6.181   3.386 -0.0177  0.9058 -0.6053
 5816TIP3    H238940   5.568   6.296   3.383 -0.6690  0.3757 -0.0870
 5817TIP3   OH238941   3.094   2.110  15.445 -0.0350  0.3165 -0.3209
 5817TIP3    H138942   3.083   2.142  15.534 -0.4646 -0.7648  0.0373
 5817TIP3    H238943   3.149   2.032  15.454 -0.4203 -0.0391 -0.9397
 5818TIP3   OH238944   1.849   3.768  11.450 -0.3489  0.0029 -0.7462
 5818TIP3    H138945   1.836   3.674  11.459  1.6158 -0.3044 -0.5688
 5818TIP3    H238946   1.766   3.807  11.476 -1.2952 -1.6854 -1.1210
 5819TIP3   OH238947   6.753   4.327  15.954 -0.0039 -0.1389  0.2344
 5819TIP3    H138948   6.754   4.314  15.860  0.1234 -1.5490  0.4171
 5819TIP3    H238949   6.672   4.286  15.984 -1.2205  2.2725  0.5136
 5820TIP3   OH238950   0.615   6.347  14.217  0.6936 -0.1290  0.3203
 5820TIP3    H138951   0.598   6.259  14.248  0.3869 -0.7221 -1.4298
 5820TIP3    H238952   0.529   6.387  14.209  0.2722 -1.4288 -3.6753
 5821TIP3   OH238953   5.003   6.110   2.465  0.2321  0.2417 -0.1132
 5821TIP3    H138954   4.970   6.115   2.555  1.2015  0.4588  0.2431
 5821TIP3    H238955   5.097   6.130   2.473  0.8783 -2.1804 -0.8271
 5822TIP3   OH238956   1.806   5.334   4.500  0.2791  0.3300  0.1649
 5822TIP3    H138957   1.836   5.283   4.576  0.6788  0.6837  0.2447
 5822TIP3    H238958   1.831   5.424   4.520 -0.4602  0.5693  0.0396
 5823TIP3   OH238959   3.940   1.253   1.527 -0.3240  0.7655  0.2355
 5823TIP3    H138960   3.982   1.336   1.502  1.1309 -0.0340 -0.1004
 5823TIP3    H238961   3.860   1.250   1.474  1.3437  0.3764 -2.5010
 5824TIP3   OH238962   1.624   2.392  10.937 -0.3481  0.5077 -0.1191
 5824TIP3    H138963   1.708   2.348  10.942 -0.2092  0.7137 -0.6175
 5824TIP3    H238964   1.645   2.483  10.919 -0.6171  0.8715  1.2720
 5825TIP3   OH238965   0.643   3.925  16.013  0.1042 -0.7038  0.5721
 5825TIP3    H138966   0.738   3.920  16.021  0.1875  0.2478  0.2927
 5825TIP3    H238967   0.610   3.883  16.092  0.7347 -1.8294  0.2654
 5826TIP3   OH238968   6.399   5.258   5.006  0.1702  0.1641 -0.6490
 5826TIP3    H138969   6.361   5.345   5.018  0.4984  0.7082 -3.0358
 5826TIP3    H238970   6.326   5.198   5.016  0.1539  0.5288  2.2998
 5827TIP3   OH238971   5.795   0.849   4.679 -0.3117  0.0791  0.5640
 5827TIP3    H138972   5.711   0.833   4.636  0.8564 -3.3479 -0.8650
 5827TIP3    H238973   5.859   0.804   4.623  2.5500  2.5496  1.5381
 5828TIP3   OH238974   5.193   4.525  16.304  0.1212 -0.6074 -0.4035
 5828TIP3    H138975   5.173   4.457  16.369  0.6215 -1.9777 -1.6300
 5828TIP3    H238976   5.108   4.563  16.282 -0.2245 -1.1025  0.0299
 5829TIP3   OH238977   3.823   1.364  11.639 -0.3904 -0.1659  0.4078
 5829TIP3    H138978   3.793   1.379  11.729 -0.1908 -0.5401  0.5379
 5829TIP3    H238979   3.762   1.414  11.585 -0.9619 -0.5378  0.7026
 5830TIP3   OH238980   2.888   5.631   1.199  0.4143 -0.0666 -0.2450
 5830TIP3    H138981   2.867   5.695   1.267 -1.0944  0.1270 -0.8446
 5830TIP3    H238982   2.930   5.681   1.130 -0.2082  0.1900 -0.4492
 5831TIP3   OH238983   3.153   3.855   4.899 -0.2036 -0.0946  0.0847
 5831TIP3    H138984   3.248   3.845   4.901 -0.4095 -2.4715  0.4356
 5831TIP3    H238985   3.139   3.945   4.869  2.1569  0.9320  1.7750
 5832TIP3   OH238986   4.742   3.833  11.525 -0.2173 -0.0938 -0.3938
 5832TIP3    H138987   4.702   3.782  11.595 -1.2372  0.9523 -0.1896
 5832TIP3    H238988   4.685   3.819  11.449  0.2572 -0.3338 -0.7085
 5833TIP3   OH238989   0.641   6.760  16.517 -0.2397  0.5718 -0.4825
 5833TIP3    H138990   0.689   6.684  16.550 -1.6100 -0.5088 -0.9162
 5833TIP3    H238991   0.612   6.735  16.429  0.1727  2.0035 -1.0605
 5834TIP3   OH238992   6.171   4.714  13.155 -0.3337  0.2259  0.7086
 5834TIP3    H138993   6.226   4.792  13.160  0.7826 -0.5572  1.1257
 5834TIP3    H238994   6.096   4.733  13.211  0.2705  0.7310  1.3576
 5835TIP3   OH238995   5.353   2.496  13.384  0.5821 -0.3234 -0.4767
 5835TIP3    H138996   5.275   2.545  13.359  0.0544 -1.7964 -1.9229
 5835TIP3    H238997   5.408   2.499  13.305  0.4180 -2.2130 -0.7049
 5836TIP3   OH238998   2.435   5.080   3.148  0.1816  0.6447  0.5260
 5836TIP3    H138999   2.430   5.056   3.241 -0.1843  0.2810  0.4153
 5836TIP3    H239000   2.439   4.996   3.102 -0.1967  0.8088  0.1852
 5837TIP3   OH239001   2.975   2.208  17.143  0.4809 -0.4630  0.6646
 5837TIP3    H139002   2.922   2.142  17.189  0.5316 -0.6959  0.3887
 5837TIP3    H239003   2.911   2.260  17.094  0.6359 -1.7528 -0.9598
 5838TIP3   OH239004   5.195   4.386   3.915  0.6090 -0.1706  0.0014
 5838TIP3    H139005   5.193   4.291   3.908  2.1126 -0.3913  1.7176
 5838TIP3    H239006   5.287   4.410   3.905  0.6020  0.8422  1.7893
 5839TIP3   OH239007   2.850   5.476   2.785  0.1329  0.1235 -0.4004
 5839TIP3    H139008   2.888   5.559   2.816 -0.7940  0.8813 -1.2370
 5839TIP3    H239009   2.760   5.498   2.762  0.1583 -0.8934 -1.5651
 5840TIP3   OH239010   5.639   2.549   5.868 -0.0098  0.2753  0.4239
 5840TIP3    H139011   5.555   2.591   5.886  0.4760  1.0944  0.8548
 5840TIP3    H239012   5.700   2.622   5.853  0.9797 -0.2449  1.7147
 5841TIP3   OH239013   1.691   4.940  14.130  0.3222  0.4073  0.5947
 5841TIP3    H139014   1.670   4.982  14.214 -0.6584  0.5310  0.2922
 5841TIP3    H239015   1.631   4.979  14.067 -0.3851 -1.1760  0.2305
 5842TIP3   OH239016   2.865   3.207   5.643  0.4470  0.5493 -0.3943
 5842TIP3    H139017   2.958   3.184   5.640 -0.2792 -2.8509 -0.2145
 5842TIP3    H239018   2.822   3.141   5.589 -2.1370  0.1774  1.9147
 5843TIP3   OH239019   6.596   3.326  13.203 -0.0041 -0.6144 -0.4656
 5843TIP3    H139020   6.688   3.299  13.206  0.1914  0.1078  0.6733
 5843TIP3    H239021   6.555   3.279  13.275 -0.1294  0.4045  0.1510
 5844TIP3   OH239022   4.047   4.047   4.453  0.3289 -0.3909 -0.6704
 5844TIP3    H139023   4.038   4.011   4.364 -1.2814  0.2121 -0.7814
 5844TIP3    H239024   3.958   4.045   4.488  0.7685  0.4373  0.5214
 5845TIP3   OH239025   0.470   1.090   5.971 -0.7133 -0.0730  0.6799
 5845TIP3    H139026   0.544   1.074   6.031  1.8373  2.3006 -1.5464
 5845TIP3    H239027   0.401   1.124   6.028  1.0440  0.6479  2.5353
 5846TIP3   OH239028   1.961   6.604   5.744  0.1640  0.1845 -0.1255
 5846TIP3    H139029   2.005   6.519   5.746 -0.2657 -0.0847 -1.1973
 5846TIP3    H239030   1.888   6.594   5.805  1.1913  0.4283  1.1894
 5847TIP3   OH239031   0.605   2.824   1.240  0.0013  0.4249 -0.2456
 5847TIP3    H139032   0.701   2.819   1.237  0.0877  0.8643  1.0782
 5847TIP3    H239033   0.580   2.763   1.309 -0.6968  0.0899 -0.7936
 5848TIP3   OH239034   0.412   1.463   1.072  0.5835 -0.6916  0.2170
 5848TIP3    H139035   0.348   1.476   1.143  1.3146 -3.9276  1.6269
 5848TIP3    H239036   0.476   1.534   1.085 -0.7318  0.3959  1.0605
 5849TIP3   OH239037   1.060   2.923  16.418 -0.0788  0.1769 -0.1778
 5849TIP3    H139038   0.992   2.990  16.423  0.1279  0.3477  0.4755
 5849TIP3    H239039   1.043   2.877  16.336 -0.0240  1.2435 -0.8080
 5850TIP3   OH239040   2.188   4.922   3.780 -0.0593 -0.8587 -0.2325
 5850TIP3    H139041   2.250   4.990   3.757 -0.5840 -0.5125 -0.6689
 5850TIP3    H239042   2.156   4.946   3.867  1.4449 -1.8091  0.6228
 5851TIP3   OH239043   2.382   4.006   0.508 -0.6097  0.6994 -0.1234
 5851TIP3    H139044   2.434   4.013   0.588 -1.5069  0.6294  0.4804
 5851TIP3    H239045   2.420   3.931   0.461 -0.7931  0.0283  0.7795
 5852TIP3   OH239046   3.806   3.480   3.852 -0.5541 -0.3120 -0.4711
 5852TIP3    H139047   3.810   3.510   3.943  1.1590  2.9920 -1.4632
 5852TIP3    H239048   3.765   3.552   3.805  1.2869 -0.6361 -2.7202
 5853TIP3   OH239049   2.384   0.473   4.073 -0.4752  0.1290 -0.3546
 5853TIP3    H139050   2.363   0.484   4.166  0.9589 -0.7255  0.1125
 5853TIP3    H239051   2.322   0.529   4.027 -0.9358  0.9031  1.1455
 5854TIP3   OH239052   1.598   4.062   2.013 -0.1001  0.1215  0.2469
 5854TIP3    H139053   1.638   4.148   2.003 -0.7717  0.7487  2.3286
 5854TIP3    H239054   1.648   4.020   2.083 -0.6787 -0.5811  0.2506
 5855TIP3   OH239055   1.181   2.537   4.352 -0.2598  0.0806  0.1544
 5855TIP3    H139056   1.110   2.601   4.346 -0.0439  0.1943 -1.6091
 5855TIP3    H239057   1.246   2.567   4.289 -0.5217 -2.2994 -1.3807
 5856TIP3   OH239058   3.829   0.493   0.574 -0.4675  0.7683 -0.0102
 5856TIP3    H139059   3.739   0.520   0.556 -0.0135  1.1235 -1.9954
 5856TIP3    H239060   3.871   0.572   0.607 -0.4422  1.1413 -0.8879
 5857TIP3   OH239061   2.707   6.582  11.218 -0.5955  0.4419  0.2836
 5857TIP3    H139062   2.626   6.624  11.247 -1.1426  0.3947 -1.0782
 5857TIP3    H239063   2.680   6.495  11.190 -0.3264  0.8501 -1.3594
 5858TIP3   OH239064   1.254   2.475  14.937 -0.5954  0.2920  0.2524
 5858TIP3    H139065   1.168   2.491  14.896  0.6185  1.5678 -2.0027
 5858TIP3    H239066   1.253   2.528  15.016 -1.4024  1.4275 -0.4826
 5859TIP3   OH239067   6.418   1.766  14.751 -0.0171 -0.0984  0.0049
 5859TIP3    H139068   6.420   1.693  14.813  0.5036 -0.3325 -0.2806
 5859TIP3    H239069   6.348   1.743  14.689  0.1116 -0.3317 -0.0548
 5860TIP3   OH239070   6.574   4.815  15.268  0.4474  0.0554  0.4469
 5860TIP3    H139071   6.640   4.825  15.199  0.7720 -1.9038  0.4175
 5860TIP3    H239072   6.589   4.890  15.326  0.8521  1.1692 -1.0278
 5861TIP3   OH239073   3.377   0.557  12.774 -0.2261 -0.1548 -0.7571
 5861TIP3    H139074   3.383   0.596  12.861  1.5847  1.6703 -1.6185
 5861TIP3    H239075   3.351   0.630  12.717  1.9231 -0.4310 -2.2298
 5862TIP3   OH239076   1.015   3.903  13.717 -0.1292  0.2138  0.7121
 5862TIP3    H139077   0.955   3.907  13.643 -0.0369 -1.5909  0.5014
 5862TIP3    H239078   1.074   3.978  13.705 -1.9227  1.6887  0.6122
 5863TIP3   OH239079   4.439   3.335   2.597 -1.0932  0.3092 -0.3032
 5863TIP3    H139080   4.494   3.267   2.636 -1.0391 -0.1672 -1.2017
 5863TIP3    H239081   4.356   3.329   2.645 -0.8342  0.1132  0.1237
 5864TIP3   OH239082   0.191   0.634   6.034  0.7149  0.1539  0.7091
 5864TIP3    H139083   0.103   0.636   6.072  1.0426  1.2671  1.4486
 5864TIP3    H239084   0.232   0.715   6.064  2.4321 -0.9302  1.4357
 5865TIP3   OH239085   4.735   1.497  11.197  0.3135  0.5107  0.3406
 5865TIP3    H139086   4.703   1.517  11.284 -3.6070  0.0156 -0.8190
 5865TIP3    H239087   4.687   1.419  11.170  0.6340  1.2048 -2.6271
 5866TIP3   OH239088   2.984   5.868  12.044  0.0746 -0.2705 -0.5127
 5866TIP3    H139089   3.079   5.880  12.046 -0.0289  0.5275  0.0778
 5866TIP3    H239090   2.961   5.845  12.134 -0.5032  1.3736 -0.2143
 5867TIP3   OH239091   3.658   0.886   5.245  0.4187 -0.7495  0.2347
 5867TIP3    H139092   3.627   0.840   5.324 -0.2815 -1.4251 -0.4160
 5867TIP3    H239093   3.745   0.849   5.228 -0.0629 -1.7299 -0.1772
 5868TIP3   OH239094   2.396   5.228  16.940 -0.3989 -0.2350 -0.3386
 5868TIP3    H139095   2.479   5.245  16.895 -0.6680 -1.3684 -1.3198
 5868TIP3    H239096   2.377   5.309  16.986  1.8409 -0.3124  0.8706
 5869TIP3   OH239097   0.934   4.673   1.634  0.8521 -0.3566 -0.1844
 5869TIP3    H139098   0.962   4.604   1.695 -0.1333 -1.0070 -0.4587
 5869TIP3    H239099   1.011   4.688   1.579  2.0113  0.7501  1.6388
 5870TIP3   OH239100   2.713   2.069  15.684  0.3649 -0.2814  0.0786
 5870TIP3    H139101   2.698   2.163  15.673 -1.7795 -0.5182  0.5802
 5870TIP3    H239102   2.631   2.028  15.656  0.6096 -1.8836  1.5611
 5871TIP3   OH239103   0.271   5.800  11.767 -0.4147 -0.0881 -0.5193
 5871TIP3    H139104   0.283   5.828  11.677  0.9666  1.2762  0.0413
 5871TIP3    H239105   0.192   5.846  11.796  0.2221  1.0353 -0.4869
 5872TIP3   OH239106   3.914   2.202  17.190  0.0957 -0.4762  0.6574
 5872TIP3    H139107   3.965   2.133  17.149 -1.2590 -1.1548  0.0577
 5872TIP3    H239108   3.825   2.190  17.156 -0.2804  1.2611  0.9008
 5873TIP3   OH239109   1.902   5.336  14.414 -0.4850  0.4498  0.0706
 5873TIP3    H139110   1.981   5.283  14.404 -1.3815 -1.0312  0.5083
 5873TIP3    H239111   1.930   5.410  14.468  0.5849 -0.0900  0.2844
 5874TIP3   OH239112   2.216   4.037   4.944  0.1182  0.0234 -0.1182
 5874TIP3    H139113   2.311   4.040   4.950  0.4219 -3.0682 -1.1954
 5874TIP3    H239114   2.190   3.976   5.013 -1.1618  1.2634  0.5253
 5875TIP3   OH239115   6.371   3.547   3.039  0.2197 -0.0260  0.0714
 5875TIP3    H139116   6.424   3.616   3.077 -0.9239 -0.4419  2.6497
 5875TIP3    H239117   6.434   3.483   3.005  1.3248  0.5473  1.0063
 5876TIP3   OH239118   0.536   2.982   3.085 -0.3577  0.0601 -0.6716
 5876TIP3    H139119   0.532   3.060   3.140  0.1840 -1.6816  2.0386
 5876TIP3    H239120   0.450   2.940   3.097  0.3115 -1.1230  0.1465
 5877TIP3   OH239121   3.805   5.997   1.358  0.1496  0.1331 -0.4736
 5877TIP3    H139122   3.877   6.015   1.418 -0.0209 -1.5081  0.2824
 5877TIP3    H239123   3.816   6.060   1.288  1.0880  1.2930  0.6682
 5878TIP3   OH239124   3.756   3.894  11.288 -0.0263  0.4372 -0.3324
 5878TIP3    H139125   3.824   3.827  11.287  1.2055  1.6580 -1.3002
 5878TIP3    H239126   3.673   3.844  11.287  0.7379 -1.1319  2.4192
 5879TIP3   OH239127   1.420   5.390   0.769  0.2913  0.0258 -0.3077
 5879TIP3    H139128   1.408   5.305   0.725 -0.1965 -0.6998  1.1487
 5879TIP3    H239129   1.502   5.381   0.817  0.9442  0.8954 -1.2365
 5880TIP3   OH239130   3.975   2.707  12.174 -0.4948  0.6861  0.2353
 5880TIP3    H139131   3.945   2.692  12.084  1.3719 -0.4487 -0.2657
 5880TIP3    H239132   3.895   2.715  12.225 -1.6088  0.8917 -1.4517
 5881TIP3   OH239133   5.008   3.616   1.707 -0.0591 -0.4025 -0.4893
 5881TIP3    H139134   5.100   3.605   1.682 -0.1057  1.8365 -1.9766
 5881TIP3    H239135   4.992   3.710   1.698 -2.1508 -0.5445  1.0769
 5882TIP3   OH239136   6.266   0.222   1.354  0.3339 -0.1332 -0.8241
 5882TIP3    H139137   6.327   0.282   1.397 -2.1821  2.0706 -0.0206
 5882TIP3    H239138   6.277   0.239   1.260  1.7147 -0.6045 -0.7558
 5883TIP3   OH239139   3.869   0.967   3.864  0.5264 -0.7202  0.4127
 5883TIP3    H139140   3.908   0.882   3.842  1.8266 -0.0616  0.0452
 5883TIP3    H239141   3.778   0.947   3.884  0.6235 -2.0977 -0.3797
 5884TIP3   OH239142   1.278   4.232   1.636  0.2455 -0.5495 -0.2930
 5884TIP3    H139143   1.336   4.169   1.679  2.0594 -1.4071 -3.6229
 5884TIP3    H239144   1.336   4.302   1.607 -0.8739  0.0222 -1.2373
 5885TIP3   OH239145   5.220   4.966  13.589 -0.3496 -0.1830 -0.7087
 5885TIP3    H139146   5.220   4.907  13.664 -0.8757 -2.0567 -2.0989
 5885TIP3    H239147   5.203   5.052  13.627  0.8321 -0.8204  1.4446
 5886TIP3   OH239148   0.214   3.105  16.480 -0.4100  0.3237 -0.4397
 5886TIP3    H139149   0.176   3.162  16.413 -0.8949  2.3076  1.4220
 5886TIP3    H239150   0.198   3.016  16.447 -2.1334  1.1818 -2.1274
 5887TIP3   OH239151   0.357   0.945   0.437  0.5723 -0.7130  0.3882
 5887TIP3    H139152   0.388   0.995   0.361  0.8994 -0.4324  0.6990
 5887TIP3    H239153   0.344   0.857   0.404 -0.5093 -0.3118 -0.2939
 5888TIP3   OH239154   6.245   4.183   6.752  0.4796 -0.1711  0.1643
 5888TIP3    H139155   6.211   4.217   6.669  1.3438 -0.2327 -0.2294
 5888TIP3    H239156   6.183   4.214   6.818  0.2133  0.5631 -0.4114
 5889TIP3   OH239157   1.951   5.964   4.827  0.5634  0.6071  0.1131
 5889TIP3    H139158   1.881   5.924   4.775  0.1374  0.6559  0.6478
 5889TIP3    H239159   2.031   5.945   4.777  0.1077  1.0633 -0.8042
 5890TIP3   OH239160   4.531   6.420   5.246 -0.4054  0.2023  0.5342
 5890TIP3    H139161   4.470   6.363   5.198  0.5724 -0.1286 -0.3552
 5890TIP3    H239162   4.584   6.360   5.298 -1.1896  0.5323  1.7685
 5891TIP3   OH239163   6.680   3.422  10.632  0.0404 -0.2900  0.0283
 5891TIP3    H139164   6.697   3.343  10.683 -0.0317  0.2594  0.9103
 5891TIP3    H239165   6.763   3.469  10.631  0.6061 -1.2206 -2.0360
 5892TIP3   OH239166   1.747   3.365  11.709 -0.1467 -0.5195  0.2996
 5892TIP3    H139167   1.818   3.369  11.645  0.3028 -2.3032  0.6437
 5892TIP3    H239168   1.684   3.304  11.670 -1.0073  0.2375  0.4797
 5893TIP3   OH239169   0.612   1.535  14.050  0.3410 -0.0020 -0.2450
 5893TIP3    H139170   0.531   1.484  14.047  0.7079 -0.5956 -0.3182
 5893TIP3    H239171   0.587   1.622  14.020 -0.0602 -0.4658 -1.3121
 5894TIP3   OH239172   0.197   0.850  14.274 -0.1064 -0.6779 -0.1446
 5894TIP3    H139173   0.197   0.939  14.240  1.6727 -0.9293 -0.9543
 5894TIP3    H239174   0.200   0.794  14.196 -0.3106 -1.4197  0.3649
 5895TIP3   OH239175   5.077   2.174  14.111 -0.2071 -0.1462 -0.1141
 5895TIP3    H139176   5.104   2.128  14.190  1.2326  0.7214 -0.0682
 5895TIP3    H239177   5.077   2.108  14.042  1.6621 -0.2710 -0.0199
 5896TIP3   OH239178   5.541   3.327   5.106 -0.2342  0.0740  0.7549
 5896TIP3    H139179   5.531   3.233   5.093 -0.1416  0.0867  0.5850
 5896TIP3    H239180   5.632   3.338   5.133  0.1771  0.2526 -0.6256
 5897TIP3   OH239181   5.422   0.904   1.476 -0.2022 -0.3106 -0.8162
 5897TIP3    H139182   5.359   0.904   1.404 -0.2649 -2.2563 -0.7997
 5897TIP3    H239183   5.497   0.954   1.443 -0.8673  0.1627 -1.6300
 5898TIP3   OH239184   6.125   0.283   0.643 -0.2532 -1.1082 -0.3391
 5898TIP3    H139185   6.169   0.367   0.635 -2.8418  0.6150  1.8296
 5898TIP3    H239186   6.178   0.235   0.708 -0.1389 -0.1148  0.3236
 5899TIP3   OH239187   2.865   5.975   2.176 -0.0404  0.2172 -0.6005
 5899TIP3    H139188   2.828   6.054   2.136 -2.6854 -0.8665 -0.4942
 5899TIP3    H239189   2.870   5.996   2.269  1.8158  1.1405 -0.8627
 5900TIP3   OH239190   5.480   5.011  14.957 -0.1663  0.4524  0.0170
 5900TIP3    H139191   5.457   5.019  15.049 -1.9203  0.5064 -0.4071
 5900TIP3    H239192   5.575   4.996  14.958 -0.2808 -0.4122  1.8571
 5901TIP3   OH239193   2.958   1.913  15.081  0.6345  0.4256 -0.0417
 5901TIP3    H139194   2.913   1.930  15.164 -0.9336 -0.3443 -0.6897
 5901TIP3    H239195   3.050   1.928  15.100  0.0676  2.7852  1.1615
 5902TIP3   OH239196   1.808   4.947   1.098 -0.1195  0.3290 -0.1628
 5902TIP3    H139197   1.863   4.928   1.174  1.1082 -0.7454 -1.2867
 5902TIP3    H239198   1.864   4.996   1.038 -1.2113  1.5750 -0.2283
 5903TIP3   OH239199   0.775   0.271   5.051  0.4410 -0.5539 -0.1242
 5903TIP3    H139200   0.766   0.340   5.117  0.7000 -1.6670  1.1246
 5903TIP3    H239201   0.763   0.189   5.100  1.4498 -1.4499 -1.2979
 5904TIP3   OH239202   0.876   5.759   5.107  0.7644  0.4324  0.1529
 5904TIP3    H139203   0.867   5.808   5.188  2.1556 -0.4898  0.9023
 5904TIP3    H239204   0.938   5.689   5.127 -0.5026 -1.1467 -1.1088
 5905TIP3   OH239205   1.178   4.818   5.456  0.5983 -0.4736 -0.0568
 5905TIP3    H139206   1.089   4.797   5.484  0.1762  1.8129  0.5149
 5905TIP3    H239207   1.167   4.858   5.369  0.5401  2.9449  1.3379
 5906TIP3   OH239208   1.890   0.791  16.052 -0.4162 -0.3191  0.0299
 5906TIP3    H139209   1.813   0.819  16.101 -0.8623  0.5785 -1.1622
 5906TIP3    H239210   1.927   0.872  16.017  1.6531 -0.5847  1.3553
 5907TIP3   OH239211   1.985   5.451  13.642  0.1144 -0.1769  1.2439
 5907TIP3    H139212   1.976   5.418  13.732 -0.7132  2.5235  2.2803
 5907TIP3    H239213   1.926   5.527  13.640  0.0621 -0.2106 -1.6488
 5908TIP3   OH239214   1.370   3.854   0.507  0.2038 -0.1841  0.3672
 5908TIP3    H139215   1.403   3.925   0.563 -0.4037  0.2462  0.1890
 5908TIP3    H239216   1.414   3.776   0.540  0.3048  0.1573  1.0708
 5909TIP3   OH239217   0.525   5.907  16.374  0.1060  0.7187  0.3315
 5909TIP3    H139218   0.516   5.988  16.425  0.7249  1.2405 -0.3689
 5909TIP3    H239219   0.507   5.933  16.284  0.1683  0.0443  0.1156
 5910TIP3   OH239220   5.319   4.725   3.308 -1.1042 -0.5631 -0.3307
 5910TIP3    H139221   5.328   4.820   3.302 -2.2256 -0.3039  1.2105
 5910TIP3    H239222   5.374   4.691   3.239 -1.3499  1.2417 -1.4877
 5911TIP3   OH239223   1.251   5.770   3.882  0.1202 -0.3047 -0.0003
 5911TIP3    H139224   1.303   5.695   3.912  0.4805 -0.7153 -1.5644
 5911TIP3    H239225   1.160   5.746   3.902  0.1984 -1.3335 -0.8250
 5912TIP3   OH239226   6.296   6.396  15.499 -0.2560 -0.3434 -0.2965
 5912TIP3    H139227   6.259   6.363  15.417 -1.2321  0.6243 -0.2594
 5912TIP3    H239228   6.287   6.491  15.493 -1.5995 -0.3164  1.4927
 5913TIP3   OH239229   3.084   1.527  12.605  0.2810  0.2426 -0.7852
 5913TIP3    H139230   2.989   1.534  12.596  0.0700  0.2732  1.0729
 5913TIP3    H239231   3.101   1.433  12.606  0.5683  0.1946 -3.2691
 5914TIP3   OH239232   0.855   4.963  16.394 -0.3355  0.0220 -0.1536
 5914TIP3    H139233   0.771   4.971  16.438 -0.4190 -0.0512 -0.2998
 5914TIP3    H239234   0.894   4.884  16.433 -0.4837 -0.1402 -0.3358
 5915TIP3   OH239235   4.696   2.993   2.091 -0.3451  0.1550  0.5702
 5915TIP3    H139236   4.636   3.017   2.020 -1.0317 -0.1882  1.0122
 5915TIP3    H239237   4.764   3.060   2.089 -0.9850  0.8144  0.3348
 5916TIP3   OH239238   5.996   4.813   1.941  0.0010  0.0755 -0.5196
 5916TIP3    H139239   5.926   4.758   1.907  0.4671 -2.4274  2.2462
 5916TIP3    H239240   6.073   4.786   1.891 -0.0511 -0.7935 -0.1449
 5917TIP3   OH239241   4.738   2.374   0.206  0.1352  0.1010  0.3075
 5917TIP3    H139242   4.689   2.455   0.195 -0.2659  0.1881  2.2831
 5917TIP3    H239243   4.772   2.379   0.296  0.8575 -1.5073  0.1616
 5918TIP3   OH239244   4.750   5.911   5.924 -0.4318 -0.5344 -0.0698
 5918TIP3    H139245   4.842   5.890   5.939 -0.9064 -1.8085  1.1981
 5918TIP3    H239246   4.705   5.827   5.926 -1.5260 -0.0451 -1.7103
 5919TIP3   OH239247   1.087   1.084  12.830 -0.1575  0.1804  0.0367
 5919TIP3    H139248   1.003   1.130  12.823 -1.1004 -1.7048 -2.3677
 5919TIP3    H239249   1.152   1.153  12.840 -1.9193  1.7155  1.6667
 5920TIP3   OH239250   0.687   0.338   5.788  0.3274  0.2319 -0.2763
 5920TIP3    H139251   0.721   0.388   5.714 -0.3244  1.2814  0.1193
 5920TIP3    H239252   0.599   0.312   5.761  0.3120  0.1022 -0.1039
 5921TIP3   OH239253   4.928   5.136  13.905 -0.2432 -0.0539 -0.5846
 5921TIP3    H139254   4.860   5.192  13.867 -1.0004 -0.9950 -0.6608
 5921TIP3    H239255   4.932   5.060  13.847  1.2682  0.2176 -0.8887
 5922TIP3   OH239256   2.166   5.891   2.607 -0.0928 -0.7419  0.3802
 5922TIP3    H139257   2.153   5.884   2.512  4.1368 -0.5721 -0.3776
 5922TIP3    H239258   2.137   5.980   2.628 -2.1639 -1.1628 -0.4535
 5923TIP3   OH239259   3.750   0.162   0.016  0.2979 -0.2180  0.3584
 5923TIP3    H139260   3.757   0.206   0.101  1.0809 -0.0131  0.1989
 5923TIP3    H239261   3.670   0.196  -0.023 -1.0911 -1.6681  1.7708
 5924TIP3   OH239262   3.524   2.297  15.177 -0.6057  0.1083 -0.0269
 5924TIP3    H139263   3.498   2.356  15.247 -0.2722 -0.4003  0.5334
 5924TIP3    H239264   3.497   2.210  15.207  3.0075 -0.7209  1.3458
 5925TIP3   OH239265   4.242   4.653  16.477 -1.3635  0.1901 -0.7590
 5925TIP3    H139266   4.281   4.647  16.390 -1.0042 -0.7298 -0.5396
 5925TIP3    H239267   4.198   4.739  16.478 -1.1224  0.3297 -1.7343
 5926TIP3   OH239268   5.183   1.348   4.874  0.4149 -0.4223  0.9319
 5926TIP3    H139269   5.102   1.361   4.924 -0.7351 -0.0462 -0.9205
 5926TIP3    H239270   5.247   1.320   4.939 -0.4386  1.9683  2.9744
 5927TIP3   OH239271   4.849   2.174   6.004 -0.5897  0.0854  0.3803
 5927TIP3    H139272   4.817   2.170   6.094  4.1329 -0.7481  2.3043
 5927TIP3    H239273   4.883   2.263   5.995  1.5695 -0.6667  0.5783
 5928TIP3   OH239274   4.337   4.116   4.308 -0.3197 -0.1231 -0.5324
 5928TIP3    H139275   4.301   4.111   4.219  0.2265 -1.2763 -0.6942
 5928TIP3    H239276   4.260   4.123   4.364 -0.6493  1.8554 -1.1471
 5929TIP3   OH239277   0.053   4.431   0.783  0.3091 -0.2323 -0.1708
 5929TIP3    H139278   0.023   4.518   0.757  2.2403 -0.2629 -2.9814
 5929TIP3    H239279   0.140   4.447   0.820  2.6310 -1.1124 -4.6302
 5930TIP3   OH239280   1.297   3.183  14.642 -0.2335 -0.5593  0.0469
 5930TIP3    H139281   1.324   3.139  14.722  0.4079 -2.1598 -0.9874
 5930TIP3    H239282   1.342   3.135  14.572  1.7020  2.6230 -1.1162
 5931TIP3   OH239283   4.289   5.831   2.504  0.5647 -0.4188  0.1789
 5931TIP3    H139284   4.254   5.742   2.503  0.3416 -0.3313 -0.1948
 5931TIP3    H239285   4.211   5.887   2.513  0.6627 -0.2435 -0.0579
 5932TIP3   OH239286   2.092   4.746  14.922 -0.5106 -0.0172 -0.0548
 5932TIP3    H139287   2.057   4.759  14.834 -0.7302 -2.4092 -0.3886
 5932TIP3    H239288   2.025   4.783  14.980 -0.1235  2.0768 -0.8246
 5933TIP3   OH239289   1.757   0.799   1.870  0.4316 -0.4619 -0.3417
 5933TIP3    H139290   1.663   0.810   1.887  0.1995  0.4000 -1.9627
 5933TIP3    H239291   1.766   0.706   1.849  0.0561 -0.6708  0.3599
 5934TIP3   OH239292   4.492   0.837  14.963 -0.5674 -0.0789  0.3895
 5934TIP3    H139293   4.463   0.828  14.873 -0.1809  0.2710  0.2228
 5934TIP3    H239294   4.417   0.810  15.016 -3.3440  5.6639  0.1381
 5935TIP3   OH239295   5.364   2.937  17.133  0.3798  0.6993 -0.5279
 5935TIP3    H139296   5.442   2.992  17.145  0.3622  0.6070  0.0131
 5935TIP3    H239297   5.290   2.998  17.137  0.1957  0.4135  2.2891
 5936TIP3   OH239298   2.897   5.699   5.195  0.5083 -0.0238  0.2845
 5936TIP3    H139299   2.958   5.696   5.122  1.8579  0.8350  1.3169
 5936TIP3    H239300   2.905   5.788   5.229 -1.1378  0.0280  0.6334
 5937TIP3   OH239301   5.570   5.864   2.767  0.1731  0.3798 -1.1469
 5937TIP3    H139302   5.615   5.781   2.784  0.3246  1.1103  2.9959
 5937TIP3    H239303   5.492   5.839   2.717 -0.2307 -2.4550  0.6680
 5938TIP3   OH239304   1.284   3.708  15.793 -0.0842 -0.1777  0.1208
 5938TIP3    H139305   1.354   3.717  15.728 -1.7689 -0.1790 -1.8110
 5938TIP3    H239306   1.237   3.791  15.789  0.6131  0.4079  2.4864
 5939TIP3   OH239307   4.910   0.431  13.136 -0.1659 -0.0494  0.3796
 5939TIP3    H139308   4.925   0.489  13.210 -2.2673  0.1956  0.6993
 5939TIP3    H239309   4.968   0.357  13.150 -0.8002 -0.2005  2.5239
 5940TIP3   OH239310   5.427   1.743   5.350 -0.6309 -0.0546  0.6969
 5940TIP3    H139311   5.366   1.816   5.359 -1.2027 -0.4010 -0.1979
 5940TIP3    H239312   5.444   1.739   5.255  0.0322 -0.5682  0.8330
 5941TIP3   OH239313   6.681   3.904   6.121  0.5574  0.2785 -0.0700
 5941TIP3    H139314   6.669   3.909   6.215 -0.2099  0.4324 -0.1738
 5941TIP3    H239315   6.713   3.815   6.105 -1.0785 -0.3713  0.1465
 5942TIP3   OH239316   5.733   0.786   1.134  0.3225  0.2349  0.4241
 5942TIP3    H139317   5.779   0.763   1.215 -1.5513  1.3773  1.8966
 5942TIP3    H239318   5.672   0.855   1.160 -1.8280 -0.7919 -1.5227
 5943TIP3   OH239319   0.783   5.702   6.017  1.2572  0.6286 -0.4323
 5943TIP3    H139320   0.876   5.690   6.037  1.0174 -0.3446  0.1731
 5943TIP3    H239321   0.769   5.655   5.935  0.8552 -1.1941  0.6263
 5944TIP3   OH239322   0.587   0.727   3.603 -0.4732 -0.0157  0.3926
 5944TIP3    H139323   0.572   0.687   3.689 -0.3598 -2.7122 -0.7499
 5944TIP3    H239324   0.646   0.666   3.558  0.1625  1.7639 -1.3227
 5945TIP3   OH239325   3.016   5.035   1.302 -0.3150 -0.2378  0.2294
 5945TIP3    H139326   3.055   5.117   1.273 -0.2819 -0.5857 -0.7815
 5945TIP3    H239327   2.921   5.048   1.292 -0.2631 -0.7437 -1.2224
 5946TIP3   OH239328   5.180   0.638  16.965  0.1195  0.4233 -0.1361
 5946TIP3    H139329   5.233   0.714  16.989 -0.8127  1.0803 -0.0589
 5946TIP3    H239330   5.128   0.669  16.890 -0.6327  0.0356  0.2161
 5947TIP3   OH239331   5.277   3.024  12.548 -0.3248  0.3630  0.4587
 5947TIP3    H139332   5.200   2.972  12.527 -0.7642  2.2443 -3.6056
 5947TIP3    H239333   5.350   2.977  12.507 -0.3340  1.5527 -0.9933
 5948TIP3   OH239334   3.776   2.126   2.526  0.0470  0.6344 -0.4696
 5948TIP3    H139335   3.717   2.199   2.545 -1.5335 -0.4883 -0.8382
 5948TIP3    H239336   3.785   2.127   2.431  1.5943  1.4998 -0.3319
 5949TIP3   OH239337   0.390   3.756  13.512 -0.1854 -0.3463  0.3750
 5949TIP3    H139338   0.296   3.762  13.494 -0.1744 -0.7789  0.1695
 5949TIP3    H239339   0.416   3.846  13.531 -1.0693 -0.5145  2.6284
 5950TIP3   OH239340   5.754   1.363  14.345  0.2763 -0.1284  0.0599
 5950TIP3    H139341   5.793   1.353  14.258  0.7772  0.0419  0.2620
 5950TIP3    H239342   5.751   1.274  14.380  0.9112 -0.0914  0.2213
 5951TIP3   OH239343   0.631   0.791   4.368  0.0705 -0.0187  0.1641
 5951TIP3    H139344   0.611   0.803   4.461  0.4879 -1.4874  0.4688
 5951TIP3    H239345   0.725   0.772   4.367  0.4502  1.7404 -0.7466
 5952TIP3   OH239346   4.572   3.309   1.648 -0.0625 -0.5175 -0.1197
 5952TIP3    H139347   4.558   3.302   1.554  0.0181 -1.7283 -0.0608
 5952TIP3    H239348   4.656   3.353   1.657  0.6724 -1.7479 -0.6683
 5953TIP3   OH239349   5.254   1.970   3.660  0.5807  0.4636 -0.0011
 5953TIP3    H139350   5.342   2.004   3.675  0.9153 -0.2385 -0.3664
 5953TIP3    H239351   5.208   1.987   3.742  0.8614  1.4059 -0.0202
 5954TIP3   OH239352   5.845   1.438  12.402 -0.9316  0.6855  0.4891
 5954TIP3    H139353   5.802   1.400  12.479 -0.0908 -1.2357  0.0711
 5954TIP3    H239354   5.932   1.463  12.434 -0.1245 -1.2727 -0.0773
 5955TIP3   OH239355   4.056   5.501   1.247  0.4139 -0.4261 -0.0103
 5955TIP3    H139356   4.088   5.561   1.179  0.2965 -1.7061 -1.2497
 5955TIP3    H239357   4.108   5.523   1.324  0.8905  0.7650 -0.6365
 5956TIP3   OH239358   3.811   1.058  14.367  0.5923  0.4836 -0.2671
 5956TIP3    H139359   3.880   1.042  14.431 -0.3590 -1.5501  0.3293
 5956TIP3    H239360   3.821   0.988  14.302 -1.6674 -0.7488  0.5761
 5957TIP3   OH239361   2.719   1.084  13.534 -0.1963 -0.0481 -0.8372
 5957TIP3    H139362   2.633   1.110  13.565 -0.2793  0.2269 -1.2921
 5957TIP3    H239363   2.719   1.106  13.441  1.2596  2.3255 -0.3648
 5958TIP3   OH239364   6.421   4.621  11.645  0.1066  0.1730 -0.1052
 5958TIP3    H139365   6.491   4.644  11.584  0.0899 -0.7443 -0.4908
 5958TIP3    H239366   6.374   4.702  11.659 -0.4495  0.2434 -2.0409
 5959TIP3   OH239367   3.472   2.653  10.763 -0.3495 -0.3204 -0.7089
 5959TIP3    H139368   3.449   2.742  10.736 -2.4497 -0.4284  0.5181
 5959TIP3    H239369   3.482   2.659  10.858  0.3071 -1.2333 -0.7126
 5960TIP3   OH239370   4.744   3.455  14.295  0.5439  0.1015  0.9058
 5960TIP3    H139371   4.818   3.500  14.256 -0.5784  0.5371 -0.8257
 5960TIP3    H239372   4.704   3.406  14.223 -1.4831  0.7728  1.5018
 5961TIP3   OH239373   2.180   0.144   1.337 -0.6354 -0.4353  0.0003
 5961TIP3    H139374   2.113   0.101   1.390 -0.3694 -0.6297  0.1815
 5961TIP3    H239375   2.211   0.216   1.392 -0.4251 -0.5803  0.0733
 5962TIP3   OH239376   1.863   2.152  12.481 -0.0032 -0.5852  0.4669
 5962TIP3    H139377   1.867   2.058  12.498 -0.9613 -0.1992  3.5258
 5962TIP3    H239378   1.799   2.161  12.411 -0.8477 -2.1381  0.9910
 5963TIP3   OH239379   1.057   6.554  12.196 -0.0374  0.5506  0.0004
 5963TIP3    H139380   0.984   6.617  12.193  1.5384  2.5301 -3.2604
 5963TIP3    H239381   1.110   6.582  12.270 -1.3871  0.5233  1.0047
 5964TIP3   OH239382   0.717   6.128   0.782 -0.1809  0.0398  0.3079
 5964TIP3    H139383   0.777   6.071   0.831  0.9472  1.3717  0.5118
 5964TIP3    H239384   0.693   6.197   0.844  0.3276  1.0884 -0.6259
 5965TIP3   OH239385   2.945   2.105   2.119 -0.3939  0.1671 -1.0542
 5965TIP3    H139386   2.959   2.056   2.199  2.9839 -0.7437 -2.0507
 5965TIP3    H239387   3.029   2.149   2.102 -1.1154  0.6819 -3.8408
 5966TIP3   OH239388   0.086   2.956   2.297  0.4110  0.0152 -0.8218
 5966TIP3    H139389   0.047   2.973   2.211 -0.8328  0.8776 -0.1248
 5966TIP3    H239390   0.130   3.038   2.320  0.1546  0.0260 -0.3543
 5967TIP3   OH239391   1.204   3.735   3.982 -0.2775  0.5022  0.5226
 5967TIP3    H139392   1.243   3.823   3.987 -0.9319  0.7121  2.4558
 5967TIP3    H239393   1.264   3.679   4.031  0.2712 -0.2322 -0.9093
 5968TIP3   OH239394   5.225   4.874   2.802  0.1900 -0.3167  0.3093
 5968TIP3    H139395   5.159   4.916   2.747 -0.0165 -0.9698  0.0609
 5968TIP3    H239396   5.308   4.891   2.757  0.0101 -0.9521 -0.2657
 5969TIP3   OH239397   5.766   2.440  17.021 -0.4159  0.4913  0.2245
 5969TIP3    H139398   5.694   2.378  17.023 -2.2180  2.4661  0.8268
 5969TIP3    H239399   5.723   2.526  17.011  1.9694  1.5998 -1.6057
 5970TIP3   OH239400   1.307   1.480  14.505  0.1546  0.6505 -0.0896
 5970TIP3    H139401   1.298   1.390  14.474 -1.0131  0.4083  0.8835
 5970TIP3    H239402   1.323   1.471  14.599 -2.7648  1.4577  0.5828
 5971TIP3   OH239403   1.690   6.811   0.815 -0.4756  0.6336 -0.1820
 5971TIP3    H139404   1.614   6.772   0.772  0.2145 -0.8341 -0.1237
 5971TIP3    H239405   1.760   6.805   0.750 -0.2920  1.5804 -0.0811
 5972TIP3   OH239406   4.319   4.745   1.180  0.0518  0.3739 -0.1909
 5972TIP3    H139407   4.347   4.837   1.187  1.9559 -0.1567 -0.2492
 5972TIP3    H239408   4.229   4.750   1.149 -0.0643  2.2384  0.3186
 5973TIP3   OH239409   0.927   0.419  14.971  0.1330  0.8508  1.0786
 5973TIP3    H139410   0.903   0.407  15.063 -0.6709 -0.6956  0.6888
 5973TIP3    H239411   0.857   0.473  14.935 -0.9527 -0.6830  0.7934
 5974TIP3   OH239412   1.855   0.340  10.634  0.6672  0.2202 -0.3019
 5974TIP3    H139413   1.899   0.406  10.687  2.2324 -0.7530 -0.3194
 5974TIP3    H239414   1.806   0.287  10.697 -2.0663  2.3591 -0.4450
 5975TIP3   OH239415   0.789   3.495   5.230 -0.8896  0.5836  0.5708
 5975TIP3    H139416   0.761   3.404   5.217 -1.4452  0.9064 -0.7140
 5975TIP3    H239417   0.845   3.514   5.155 -1.1710  1.4501  0.5666
 5976TIP3   OH239418   4.937   6.599   0.530  0.2282  0.2723 -0.1151
 5976TIP3    H139419   4.961   6.658   0.601 -1.8306  0.9419  0.0895
 5976TIP3    H239420   4.944   6.511   0.569  0.9512  0.5107  0.3120
 5977TIP3   OH239421   6.136   2.654  16.598 -0.2244 -0.0225 -0.0629
 5977TIP3    H139422   6.219   2.652  16.645 -0.8620 -1.9695  1.0927
 5977TIP3    H239423   6.153   2.609  16.516 -0.1920 -0.7014  0.3097
 5978TIP3   OH239424   5.533   2.106  12.952  0.1248  0.0589  0.0838
 5978TIP3    H139425   5.479   2.027  12.954 -0.0351  0.1691  0.2100
 5978TIP3    H239426   5.471   2.176  12.934  0.2837  0.1421 -0.1464
 5979TIP3   OH239427   0.773   2.326  13.126  0.1673 -0.1496  0.0799
 5979TIP3    H139428   0.770   2.268  13.202  0.4697 -0.2010  0.0507
 5979TIP3    H239429   0.845   2.293  13.073 -0.0984 -0.1706 -0.2764
 5980TIP3   OH239430   4.643   1.826  17.044 -0.4129 -0.1147  0.3977
 5980TIP3    H139431   4.578   1.857  17.107 -0.5846  1.3102 -0.4329
 5980TIP3    H239432   4.705   1.899  17.036 -0.5836 -0.1333 -1.3228
 5981TIP3   OH239433   1.142   5.233  14.101 -0.7455  0.3511  0.0173
 5981TIP3    H139434   1.157   5.191  14.016  0.7652  1.6883 -0.4119
 5981TIP3    H239435   1.176   5.170  14.165 -1.3153 -0.3854 -0.3814
 5982TIP3   OH239436   4.259   0.166  16.441 -0.4879 -0.4615  0.3506
 5982TIP3    H139437   4.193   0.144  16.507  1.1077 -0.7633  1.9054
 5982TIP3    H239438   4.306   0.240  16.479 -0.5057  0.3581 -1.1655
 5983TIP3   OH239439   0.896   3.960  14.681 -0.2355  0.2211 -0.3345
 5983TIP3    H139440   0.976   3.965  14.734 -0.4370  1.0335 -0.0930
 5983TIP3    H239441   0.825   3.956  14.745 -0.4041 -0.2443 -0.5508
 5984TIP3   OH239442   6.344   1.617   4.070  0.2989  0.1668 -0.5452
 5984TIP3    H139443   6.298   1.648   4.148 -2.1220 -0.5593 -1.5968
 5984TIP3    H239444   6.416   1.564   4.104  1.5223  2.7093  1.2018
 5985TIP3   OH239445   6.188   5.256  16.219  0.1968 -0.0102  0.4033
 5985TIP3    H139446   6.162   5.197  16.148 -2.3355  0.6918  0.6421
 5985TIP3    H239447   6.140   5.223  16.296  0.7135  0.8847  1.1259
 5986TIP3   OH239448   0.986   5.945  13.142  0.3226  0.3467 -0.3891
 5986TIP3    H139449   1.000   6.028  13.097  1.1998  0.3219 -0.1891
 5986TIP3    H239450   0.965   5.969  13.232 -0.7558  0.3786 -0.6393
 5987TIP3   OH239451   0.195   0.496   0.074  0.2334  0.4161  0.1576
 5987TIP3    H139452   0.271   0.441   0.092 -0.0192  0.0907  0.2348
 5987TIP3    H239453   0.132   0.473   0.143 -0.2201  0.1446 -0.3382
 5988TIP3   OH239454   3.154   0.193  13.515  1.1412  0.1514  0.6870
 5988TIP3    H139455   3.225   0.131  13.529  2.0509  0.8692 -0.5292
 5988TIP3    H239456   3.193   0.262  13.461 -1.0536 -0.6936 -2.2971
 5989TIP3   OH239457   1.101   5.610  13.236 -0.0233 -0.4889 -0.1519
 5989TIP3    H139458   1.087   5.607  13.141  1.8732  2.4847 -0.6624
 5989TIP3    H239459   1.020   5.648  13.270 -0.0372  0.1246 -0.8352
 5990TIP3   OH239460   2.453   3.640   3.568 -0.0303  0.4163 -0.8684
 5990TIP3    H139461   2.415   3.553   3.580 -1.6199  1.3728  1.9808
 5990TIP3    H239462   2.531   3.639   3.623 -0.5197  1.0116 -0.1422
 5991TIP3   OH239463   0.690   4.502   4.775 -0.4602 -0.7339 -0.1312
 5991TIP3    H139464   0.711   4.420   4.729  0.7106 -1.0039  0.8414
 5991TIP3    H239465   0.633   4.475   4.846 -0.1042 -0.7085  0.1673
 5992TIP3   OH239466   6.132   3.434  16.293  0.5042 -0.2061 -0.1898
 5992TIP3    H139467   6.129   3.421  16.388 -0.3877 -0.4180 -0.2398
 5992TIP3    H239468   6.219   3.404  16.268  0.6140 -0.5003  0.5160
 5993TIP3   OH239469   0.408   1.969   4.023  0.4676  0.0226 -0.3132
 5993TIP3    H139470   0.322   1.985   4.061  0.5392  2.1297 -0.9371
 5993TIP3    H239471   0.462   2.043   4.050  1.4232 -0.0619 -1.8385
 5994TIP3   OH239472   4.482   6.336  12.984  0.2732 -0.0906  0.3675
 5994TIP3    H139473   4.502   6.423  13.019  0.7577  0.3591 -0.9705
 5994TIP3    H239474   4.514   6.339  12.894  1.0248 -1.9336  0.5436
 5995TIP3   OH239475   4.120   2.958  13.634 -0.1505  0.3235 -0.4110
 5995TIP3    H139476   4.055   3.005  13.686 -0.1973  1.4641 -1.4576
 5995TIP3    H239477   4.127   3.008  13.553  1.3358 -0.3206 -0.7187
 5996TIP3   OH239478   4.625   6.712  11.751  0.6847 -0.7927 -0.2172
 5996TIP3    H139479   4.636   6.668  11.835 -1.9689 -1.8168 -0.2990
 5996TIP3    H239480   4.546   6.765  11.762  1.0897  0.1584 -1.6262
 5997TIP3   OH239481   3.299   6.323   5.653  0.0653 -0.2208  0.3760
 5997TIP3    H139482   3.360   6.253   5.673  0.5691  0.6283  1.9549
 5997TIP3    H239483   3.353   6.393   5.616 -0.4432 -0.6285 -1.2601
 5998TIP3   OH239484   5.691   2.677   4.700  0.2000  0.4431  0.0199
 5998TIP3    H139485   5.737   2.598   4.675 -0.5160  0.4119 -1.2704
 5998TIP3    H239486   5.631   2.649   4.769  0.8314  0.1290  0.4494
 5999TIP3   OH239487   2.634   3.549  17.281 -0.6846 -0.0833 -0.5263
 5999TIP3    H139488   2.633   3.490  17.205 -1.8428 -0.0652 -0.5520
 5999TIP3    H239489   2.584   3.626  17.253  0.5166  0.7756 -0.3737
 6000TIP3   OH239490   3.847   5.654   5.085  0.2200  0.3458  0.2060
 6000TIP3    H139491   3.794   5.726   5.050 -1.0199 -0.5748  0.1331
 6000TIP3    H239492   3.923   5.649   5.026 -2.0373 -1.5079 -2.8285
 6001TIP3   OH239493   4.249   6.590  11.274 -0.1241 -0.3815 -0.0634
 6001TIP3    H139494   4.287   6.676  11.287  0.0730 -0.3148 -1.0064
 6001TIP3    H239495   4.324   6.530  11.275 -0.1812 -0.4548 -0.1082
 6002TIP3   OH239496   4.801   5.050  15.904  0.3509 -0.3068  0.5182
 6002TIP3    H139497   4.714   5.015  15.884  0.2484 -0.7471  1.6211
 6002TIP3    H239498   4.787   5.108  15.978  0.8177  0.6277 -0.1122
 6003TIP3   OH239499   0.294   2.023  13.583 -0.0075 -0.3315 -0.4221
 6003TIP3    H139500   0.307   1.935  13.547 -1.2187 -0.5479 -0.3891
 6003TIP3    H239501   0.199   2.037  13.578 -0.2963 -0.4101  2.7683
 6004TIP3   OH239502   2.418   2.775  12.066 -0.4221  0.4100  0.2001
 6004TIP3    H139503   2.476   2.744  12.136 -1.6547  1.1633  1.6015
 6004TIP3    H239504   2.471   2.768  11.986  2.0080  2.1211  1.5341
 6005TIP3   OH239505   1.873   5.010  12.047  0.5550  0.2104  0.3184
 6005TIP3    H139506   1.957   4.973  12.074  0.7896  1.2183  1.0377
 6005TIP3    H239507   1.816   5.000  12.123  1.2768  3.2319  1.3969
 6006TIP3   OH239508   5.415   5.132  11.822  0.6756  0.1947  0.0175
 6006TIP3    H139509   5.443   5.193  11.753  0.2576  0.3360 -0.0312
 6006TIP3    H239510   5.393   5.187  11.896  2.5467 -0.0392  0.8041
 6007TIP3   OH239511   0.110   0.805   1.474 -0.2695  0.0951  0.2532
 6007TIP3    H139512   0.198   0.843   1.470 -0.0382 -0.5675 -2.8125
 6007TIP3    H239513   0.074   0.839   1.556  2.5627  0.9270  1.2954
 6008TIP3   OH239514   4.547   4.392  11.910  0.6762 -0.3145  0.6544
 6008TIP3    H139515   4.548   4.301  11.939 -1.6789 -0.4462  0.4774
 6008TIP3    H239516   4.572   4.388  11.818  2.2200 -0.5572  1.0564
 6009TIP3   OH239517   1.492   0.852   2.858 -0.4428  0.3593 -0.2895
 6009TIP3    H139518   1.471   0.859   2.951 -1.1631 -0.4618 -0.3694
 6009TIP3    H239519   1.510   0.941   2.830 -0.5978  0.6654  0.5564
 6010TIP3   OH239520   4.210   1.591  15.223  0.2942 -0.3919 -0.1167
 6010TIP3    H139521   4.222   1.617  15.132 -0.8268  0.3760 -0.0679
 6010TIP3    H239522   4.115   1.588  15.235  0.3836 -2.5104  0.4865
 6011TIP3   OH239523   5.995   1.250   5.611 -0.1751 -0.7475  0.1022
 6011TIP3    H139524   6.059   1.182   5.633  1.0051  0.0446 -0.7018
 6011TIP3    H239525   6.047   1.317   5.566 -1.4958  0.1837 -0.0908
 6012TIP3   OH239526   1.929   3.189  16.906  0.2046  0.1318  0.2214
 6012TIP3    H139527   1.993   3.260  16.917  0.1387  0.2125  0.0795
 6012TIP3    H239528   1.856   3.213  16.963  0.1740  0.1860  0.1587
 6013TIP3   OH239529   5.784   2.291  17.270 -0.0903  0.2385 -0.6780
 6013TIP3    H139530   5.805   2.358  17.336 -0.4866 -0.0257 -0.2813
 6013TIP3    H239531   5.860   2.291  17.211  1.1009 -0.7670  0.7865
 6014TIP3   OH239532   1.447   0.905   1.139  0.3169  0.2776  0.7606
 6014TIP3    H139533   1.372   0.948   1.178 -0.8155 -0.8166 -0.1108
 6014TIP3    H239534   1.464   0.830   1.195 -2.4740 -2.3782 -1.5683
 6015TIP3   OH239535   6.700   2.691  13.812 -0.1196  0.5007 -0.1625
 6015TIP3    H139536   6.714   2.651  13.898  2.0397  0.6095 -0.4113
 6015TIP3    H239537   6.738   2.779  13.821 -0.6484  0.8156 -0.9761
 6016TIP3   OH239538   1.275   2.969  17.217  0.2431 -0.2451 -0.2558
 6016TIP3    H139539   1.311   3.057  17.207  1.4020 -0.6712 -0.0021
 6016TIP3    H239540   1.249   2.963  17.309 -0.7069  0.1356 -0.4882
 6017TIP3   OH239541   5.063   6.640   2.710 -0.1884 -0.6114  0.0851
 6017TIP3    H139542   5.113   6.560   2.693 -0.0950 -0.4303 -0.4974
 6017TIP3    H239543   5.117   6.689   2.773  1.3919  0.5215 -2.0309
 6018TIP3   OH239544   1.633   4.872   0.344  0.6688 -0.0405 -0.2819
 6018TIP3    H139545   1.603   4.847   0.431 -3.8105  2.0223 -0.9322
 6018TIP3    H239546   1.711   4.925   0.359  0.2240 -0.0080  2.4540
 6019TIP3   OH239547   0.853   2.616   1.798 -0.2336 -0.3488 -0.3756
 6019TIP3    H139548   0.857   2.705   1.760 -0.4381 -0.4527 -0.6443
 6019TIP3    H239549   0.931   2.572   1.763 -0.8328 -0.6929 -1.3241
 6020TIP3   OH239550   6.810   6.818   0.688  0.2738 -0.1430 -0.2661
 6020TIP3    H139551   6.838   6.816   0.597  0.6123 -0.4361 -0.1609
 6020TIP3    H239552   6.804   6.911   0.710 -0.5550 -0.0591 -0.8083
 6021TIP3   OH239553   5.736   6.318   0.245 -0.2157 -0.2002 -0.7569
 6021TIP3    H139554   5.773   6.253   0.306 -0.5883 -0.6468 -1.0012
 6021TIP3    H239555   5.761   6.403   0.282 -0.1435 -0.4753 -0.1668
 6022TIP3   OH239556   6.293   0.093   2.913  0.0447 -0.3024  0.2263
 6022TIP3    H139557   6.321   0.185   2.911 -0.9764  0.0372 -1.6889
 6022TIP3    H239558   6.338   0.055   2.988  1.8185  1.3435  0.0610
 6023TIP3   OH239559   4.098   0.704  13.159  0.2192 -0.5569 -0.1156
 6023TIP3    H139560   4.040   0.736  13.228  0.2416 -0.9245  0.0796
 6023TIP3    H239561   4.045   0.641  13.110  0.1236 -0.1152 -0.5936
 6024TIP3   OH239562   3.519   5.665   3.336  0.0447  0.2498  0.4166
 6024TIP3    H139563   3.574   5.616   3.397 -0.1047  0.4931  0.7502
 6024TIP3    H239564   3.544   5.633   3.249  0.3041 -0.0505  0.6028
 6025TIP3   OH239565   3.069   6.483   6.890  0.0408 -0.5756  0.1165
 6025TIP3    H139566   3.007   6.542   6.848  0.9322 -1.2579 -2.3009
 6025TIP3    H239567   3.122   6.539   6.946  0.6170  0.9195 -1.8211
 6026TIP3   OH239568   0.940   4.914  11.698 -0.2285 -0.4973 -0.3959
 6026TIP3    H139569   1.003   4.980  11.669  0.7004 -1.8014 -1.4783
 6026TIP3    H239570   0.901   4.881  11.617 -1.0737 -0.9058  0.1624
 6027TIP3   OH239571   5.995   2.527  12.354  0.4032 -0.2669  0.5967
 6027TIP3    H139572   5.965   2.509  12.443  1.1195 -0.2623  0.8471
 6027TIP3    H239573   6.070   2.585  12.365  1.7254 -1.8151  0.1236
 6028TIP3   OH239574   5.859   4.136  13.616 -0.0109  0.1859  0.2772
 6028TIP3    H139575   5.827   4.085  13.541 -2.3091  0.7445  0.8050
 6028TIP3    H239576   5.907   4.209  13.576 -1.0713  0.3929 -0.6658
 6029TIP3   OH239577   1.193   3.556  11.728  0.2573  0.3899 -0.5166
 6029TIP3    H139578   1.141   3.504  11.666  2.1441 -0.7726 -1.2098
 6029TIP3    H239579   1.281   3.520  11.721  0.8765  1.3180  1.6979
 6030TIP3   OH239580   1.653   5.525   2.097  0.4396 -0.0042  0.1103
 6030TIP3    H139581   1.593   5.486   2.160 -0.6328  1.2636 -0.1033
 6030TIP3    H239582   1.710   5.581   2.150 -0.6905  1.3437 -0.0296
 6031TIP3   OH239583   0.623   4.840  12.671  0.4403  0.2636  0.5380
 6031TIP3    H139584   0.554   4.780  12.698  0.0812 -0.6391 -2.1338
 6031TIP3    H239585   0.705   4.793  12.689  0.2346 -0.0709  0.5969
 6032TIP3   OH239586   2.962   6.568  13.788  0.0643 -0.2308  0.2974
 6032TIP3    H139587   3.041   6.579  13.736 -0.2127  0.0953 -0.0615
 6032TIP3    H239588   2.901   6.522  13.731 -0.3802  0.4800  0.1793
 6033TIP3   OH239589   6.001   1.756  13.552 -0.2967  0.1391  0.4041
 6033TIP3    H139590   5.953   1.689  13.504  0.0900 -0.5605  0.9671
 6033TIP3    H239591   6.028   1.712  13.633  0.3912  0.8236  0.5593
 6034TIP3   OH239592   5.596   5.035  16.390  0.0773  0.1702  0.6083
 6034TIP3    H139593   5.533   4.967  16.416 -0.0619 -0.0911 -0.3624
 6034TIP3    H239594   5.670   4.986  16.354 -0.5946  0.5192 -1.3807
 6035TIP3   OH239595   1.123   5.331   1.890 -0.4620 -0.3913  0.0276
 6035TIP3    H139596   1.074   5.363   1.815 -0.7567  0.7892  0.6914
 6035TIP3    H239597   1.144   5.240   1.869 -0.1331  0.0496 -1.6675
 6036TIP3   OH239598   4.512   0.541   3.883 -0.1514  0.1573  0.0690
 6036TIP3    H139599   4.451   0.472   3.908 -0.1812  0.5010  0.9781
 6036TIP3    H239600   4.535   0.584   3.965 -0.5789  1.5891 -0.5312
 6037TIP3   OH239601   2.691   2.937  17.261 -0.5375 -0.7002  0.1991
 6037TIP3    H139602   2.683   3.030  17.240 -1.0354 -0.6570  0.5755
 6037TIP3    H239603   2.670   2.893  17.178 -0.4365 -0.4849  0.0564
 6038TIP3   OH239604   2.711   3.318  16.963 -0.1404 -0.1620 -0.1036
 6038TIP3    H139605   2.750   3.272  16.889 -1.8866 -0.3866 -0.9437
 6038TIP3    H239606   2.786   3.353  17.012  1.0860 -0.6187 -1.5667
 6039TIP3   OH239607   2.001   3.305   0.974 -0.0622 -0.8197 -0.2770
 6039TIP3    H139608   1.910   3.301   0.947  0.3630 -0.4939 -1.8340
 6039TIP3    H239609   2.049   3.259   0.905  1.0202 -0.4142  0.1795
 6040TIP3   OH239610   2.460   2.540  12.896  0.0927  0.7508  0.3241
 6040TIP3    H139611   2.405   2.601  12.945 -0.7467  1.6901 -1.6990
 6040TIP3    H239612   2.400   2.475  12.861  0.8118 -0.4847  1.2644
 6041TIP3   OH239613   3.557   2.751  11.079 -0.2362 -0.4316  0.5352
 6041TIP3    H139614   3.492   2.821  11.081  0.4649  0.3247 -1.2715
 6041TIP3    H239615   3.562   2.720  11.170  0.5970  2.9146  1.7489
 6042TIP3   OH239616   5.614   5.945  11.766  0.4087 -0.3075  0.1697
 6042TIP3    H139617   5.555   5.956  11.691 -1.7209 -1.2572  1.5999
 6042TIP3    H239618   5.681   5.884  11.735 -1.0253 -1.5142 -0.6940
 6043TIP3   OH239619   1.805   5.102  13.068  0.1031  0.2652 -0.1464
 6043TIP3    H139620   1.859   5.119  13.145 -2.4479  1.3386  1.5443
 6043TIP3    H239621   1.784   5.009  13.074 -0.3429  0.4060  0.6870
 6044TIP3   OH239622   2.381   3.804  10.716  0.0696  0.6119  0.2156
 6044TIP3    H139623   2.325   3.876  10.746 -1.3552 -0.5204  0.3631
 6044TIP3    H239624   2.336   3.725  10.744  1.2551 -0.3758 -0.5556
 6045TIP3   OH239625   1.478   4.898   6.342 -0.0700  0.1214 -0.2408
 6045TIP3    H139626   1.456   4.809   6.368 -2.0578  1.2657  2.5190
 6045TIP3    H239627   1.517   4.937   6.420 -1.1109  2.2255 -0.6871
 6046TIP3   OH239628   3.742   1.082   0.174 -0.7203 -0.2225  0.7160
 6046TIP3    H139629   3.755   0.987   0.180 -1.8702 -0.9500 -4.1278
 6046TIP3    H239630   3.650   1.096   0.198 -1.2228 -0.7816 -0.7635
 6047TIP3   OH239631   6.690   2.238  15.527  0.1880 -0.2506 -0.5558
 6047TIP3    H139632   6.772   2.215  15.483  0.5716 -0.1302  0.0877
 6047TIP3    H239633   6.658   2.314  15.478  0.3838 -0.3823 -0.8962
 6048TIP3   OH239634   5.019   1.347   2.580  0.3947 -0.1367 -0.1050
 6048TIP3    H139635   4.957   1.277   2.557  0.0723  0.1795 -0.2062
 6048TIP3    H239636   4.969   1.405   2.638  0.6704 -0.0062  0.0026
 6049TIP3   OH239637   6.605   3.459  11.992  0.3231  0.4841 -0.6806
 6049TIP3    H139638   6.578   3.482  12.081 -0.6258 -0.2032 -0.7750
 6049TIP3    H239639   6.592   3.540  11.941  0.2701  0.7012 -0.3244
 6050TIP3   OH239640   3.170   0.531   5.084  0.1361  0.2130 -0.1814
 6050TIP3    H139641   3.190   0.493   5.169  1.2554 -1.7763 -1.2631
 6050TIP3    H239642   3.250   0.578   5.058 -0.3904  1.2790  0.0825
 6051TIP3   OH239643   2.161   6.641   2.615  0.9300  0.0421 -0.7751
 6051TIP3    H139644   2.117   6.649   2.531  0.3098 -0.9661 -0.5596
 6051TIP3    H239645   2.202   6.554   2.613  1.0211  0.0591 -0.0997
 6052TIP3   OH239646   2.168   0.605  14.622 -0.0207 -0.2319 -0.0571
 6052TIP3    H139647   2.151   0.551  14.700  0.2571 -0.3612 -0.0840
 6052TIP3    H239648   2.086   0.652  14.607 -0.3727 -0.8816 -0.2124
 6053TIP3   OH239649   1.932   2.955   0.889 -0.4316  0.0132  0.0288
 6053TIP3    H139650   1.875   2.879   0.889 -2.0617  1.1562  1.4334
 6053TIP3    H239651   1.914   2.999   0.972  1.8937  0.9093  0.1480
 6054TIP3   OH239652   5.944   6.637   0.839 -0.1385  0.0829 -0.2744
 6054TIP3    H139653   5.944   6.556   0.788 -1.1895  0.7520 -1.3806
 6054TIP3    H239654   5.852   6.652   0.859 -0.0188  1.3052 -0.5687
 6055TIP3   OH239655   5.903   2.867   5.206 -0.1685 -0.0736 -0.1095
 6055TIP3    H139656   5.907   2.962   5.221  0.4946  0.0106 -0.7813
 6055TIP3    H239657   5.901   2.857   5.111  2.2676 -0.7862 -0.1511
 6056TIP3   OH239658   3.755   6.706   5.105  0.0285 -0.1161  0.1312
 6056TIP3    H139659   3.781   6.614   5.105  0.6548  0.0451  1.2851
 6056TIP3    H239660   3.837   6.754   5.092 -0.2626  0.2909 -0.2308
 6057TIP3   OH239661   1.892   5.166   4.724 -0.2279 -0.1857 -0.0646
 6057TIP3    H139662   1.924   5.188   4.811  2.2424  1.3121 -1.2204
 6057TIP3    H239663   1.963   5.115   4.684 -1.1804 -0.6126 -1.3163
 6058TIP3   OH239664   6.276   3.270  12.429 -0.3553 -0.3499 -0.2560
 6058TIP3    H139665   6.274   3.276  12.333 -2.2592  0.9581 -0.2036
 6058TIP3    H239666   6.213   3.201  12.450 -1.4513  0.6882  0.0513
 6059TIP3   OH239667   6.156   5.336   1.886 -0.3264  0.7056  0.5136
 6059TIP3    H139668   6.166   5.251   1.928  1.6481  0.9083  0.5570
 6059TIP3    H239669   6.223   5.337   1.818 -2.4076  0.9976 -1.6975
 6060TIP3   OH239670   5.200   2.810   5.225  0.1854  0.6016 -0.0043
 6060TIP3    H139671   5.202   2.903   5.246  1.1806  0.4405  0.6522
 6060TIP3    H239672   5.239   2.767   5.301  1.0098 -0.2372 -0.8708
 6061TIP3   OH239673   5.422   0.006  15.775 -0.3039  0.3008  0.1101
 6061TIP3    H139674   5.426  -0.052  15.852 -2.4777 -2.7948 -1.8831
 6061TIP3    H239675   5.413   0.094  15.812 -2.5419 -1.1402  3.4678
 6062TIP3   OH239676   3.156   6.707  14.588  0.0016  0.1609  0.4752
 6062TIP3    H139677   3.143   6.673  14.499  1.6783  0.4328  0.0849
 6062TIP3    H239678   3.100   6.784  14.592 -1.8795 -1.1470  0.4931
 6063TIP3   OH239679   2.109   4.789   1.196  0.8665  0.0789 -0.4109
 6063TIP3    H139680   2.185   4.796   1.254  0.1633 -1.6901  0.8098
 6063TIP3    H239681   2.141   4.819   1.111  2.9019 -0.4984  0.0921
 6064TIP3   OH239682   1.889   5.118   4.274 -0.1453 -0.1165  0.2303
 6064TIP3    H139683   1.822   5.050   4.275  1.3266 -1.6499  0.6077
 6064TIP3    H239684   1.878   5.165   4.357 -0.7956 -0.3080  0.2520
 6065TIP3   OH239685   3.435   0.547   2.848 -0.0627 -0.3182 -0.5266
 6065TIP3    H139686   3.437   0.485   2.775  0.6425  1.0092 -1.6720
 6065TIP3    H239687   3.525   0.579   2.856 -0.5102  0.9463 -0.3088
 6066TIP3   OH239688   5.857   6.534  14.415  0.4610  0.3417  0.3297
 6066TIP3    H139689   5.888   6.566  14.500 -2.1501 -0.6259  1.7668
 6066TIP3    H239690   5.859   6.610  14.358  3.5639  0.7221  0.7800
 6067TIP3   OH239691   4.869   2.148   5.375  0.5354 -0.3697  0.4955
 6067TIP3    H139692   4.883   2.215   5.308  1.5269 -0.4521  0.6002
 6067TIP3    H239693   4.785   2.108   5.352  0.3187  0.3630 -0.0325
 6068TIP3   OH239694   5.421   6.513  14.898  0.4411 -0.2910 -0.5505
 6068TIP3    H139695   5.413   6.606  14.921 -1.6876 -0.6273  0.2561
 6068TIP3    H239696   5.491   6.480  14.954  0.3741  0.5578  0.0506
 6069TIP3   OH239697   2.887   1.262  12.739  0.0064 -0.4834 -0.4331
 6069TIP3    H139698   2.885   1.353  12.710  2.5045  0.2666  1.3504
 6069TIP3    H239699   2.977   1.234  12.723  0.2622 -1.4608  2.2178
 6070TIP3   OH239700   5.445   5.068   3.997  0.3862  0.2645  0.2842
 6070TIP3    H139701   5.394   5.018   3.933 -0.9024  0.5744  1.0361
 6070TIP3    H239702   5.535   5.038   3.984 -0.0629 -0.7625 -0.6580
 6071TIP3   OH239703   3.609   6.624   2.811  0.1905 -0.7585 -0.2574
 6071TIP3    H139704   3.555   6.702   2.815 -0.2138 -1.0167 -0.6334
 6071TIP3    H239705   3.647   6.617   2.899  1.1161  0.4757 -0.5299
 6072TIP3   OH239706   3.596   4.997   6.483  0.3738  0.2302  0.3058
 6072TIP3    H139707   3.624   4.910   6.510 -1.7195 -0.3962  0.6120
 6072TIP3    H239708   3.562   4.985   6.394 -0.1748  0.6731  0.4513
 6073TIP3   OH239709   4.734   4.371   4.278 -0.1819 -0.2989 -0.7086
 6073TIP3    H139710   4.807   4.319   4.244  0.3824 -0.6385  0.8992
 6073TIP3    H239711   4.679   4.388   4.202  0.9092 -1.1351 -1.7328
 6074TIP3   OH239712   5.666   0.825  11.560 -0.0257 -0.0476  0.1168
 6074TIP3    H139713   5.613   0.755  11.599  0.2845 -0.5909 -0.4194
 6074TIP3    H239714   5.617   0.851  11.482  0.1811 -0.1177 -0.0378
 6075TIP3   OH239715   2.885   5.955   5.971 -0.0255 -0.2666  0.1304
 6075TIP3    H139716   2.820   6.016   6.005  1.6133  2.0570 -0.7069
 6075TIP3    H239717   2.877   5.878   6.027 -0.9006  1.4334  2.4755
 6076TIP3   OH239718   6.123   4.146   5.290  0.3660 -0.1992  0.0615
 6076TIP3    H139719   6.094   4.120   5.202  2.3236  0.4668 -0.8310
 6076TIP3    H239720   6.058   4.211   5.318 -1.9790 -2.5301  0.4179
 6077TIP3   OH239721   2.636   1.682   5.660  0.3020 -0.3152  0.1184
 6077TIP3    H139722   2.668   1.674   5.570  1.3068 -0.5585  0.4795
 6077TIP3    H239723   2.624   1.592   5.690 -0.8916 -0.2223 -0.0576
 6078TIP3   OH239724   6.284   3.563   0.449 -0.4749  0.2025  0.0430
 6078TIP3    H139725   6.222   3.626   0.485  1.9410  2.3736  0.7205
 6078TIP3    H239726   6.265   3.481   0.494 -0.9166  1.5560  2.4706
 6079TIP3   OH239727   0.258   0.937   5.304  1.0152 -0.1985 -0.2414
 6079TIP3    H139728   0.300   1.012   5.345  0.4180  0.6528 -1.1476
 6079TIP3    H239729   0.307   0.862   5.336  1.5433  0.5538  0.7878
 6080TIP3   OH239730   6.418   5.043  15.410  0.2273  0.0584 -0.6576
 6080TIP3    H139731   6.498   5.083  15.446  0.4152 -1.2554  0.4754
 6080TIP3    H239732   6.403   5.091  15.328  1.7843  0.8073 -0.5615
 6081TIP3   OH239733   3.733   0.137   3.932  0.0393 -0.3418 -0.0216
 6081TIP3    H139734   3.691   0.053   3.913  1.3696 -1.1941  0.6178
 6081TIP3    H239735   3.683   0.173   4.006  1.1111 -1.9368  1.5693
 6082TIP3   OH239736   5.384   5.314  12.050  0.6107  0.0780  0.1775
 6082TIP3    H139737   5.291   5.306  12.029  0.7737  0.2272 -0.6427
 6082TIP3    H239738   5.411   5.395  12.008  0.9868  0.3404  0.9044
 6083TIP3   OH239739   4.397   4.320   4.573 -0.2935  0.0152  0.5928
 6083TIP3    H139740   4.322   4.341   4.517 -0.5941 -0.1532  0.9261
 6083TIP3    H239741   4.362   4.330   4.662 -0.2317 -1.1806  0.7562
 6084TIP3   OH239742   2.253   6.663   5.854  0.0824 -0.3240  0.4882
 6084TIP3    H139743   2.328   6.605   5.868  1.3988  0.7857 -1.4558
 6084TIP3    H239744   2.216   6.633   5.771 -1.1207 -0.3160  1.0105
 6085TIP3   OH239745   0.894   5.446   1.994  0.4317  0.0559 -0.0983
 6085TIP3    H139746   0.961   5.384   1.964  1.6963  0.6583  1.3356
 6085TIP3    H239747   0.812   5.399   1.983  1.3513 -1.9591  0.9973
 6086TIP3   OH239748   2.166   4.844  13.021  0.6528  0.2000 -0.4513
 6086TIP3    H139749   2.223   4.871  13.093  0.9130  0.0467 -0.5978
 6086TIP3    H239750   2.225   4.837  12.946  0.0945  2.2320 -1.1490
 6087TIP3   OH239751   3.254   4.191   5.160  0.1697  0.7713 -0.1750
 6087TIP3    H139752   3.241   4.136   5.083  1.0452 -0.7462  0.7049
 6087TIP3    H239753   3.166   4.218   5.185 -0.1900  0.6334 -1.2291
 6088TIP3   OH239754   0.475   0.555   2.608 -0.3827 -0.2961  0.2744
 6088TIP3    H139755   0.401   0.496   2.615  0.2762 -1.1026  0.5578
 6088TIP3    H239756   0.444   0.627   2.553 -2.0016  0.3827  1.9744
 6089TIP3   OH239757   0.244   3.055  15.187 -0.1519  0.2103 -0.2146
 6089TIP3    H139758   0.159   3.074  15.147 -1.4117 -2.0987  1.1083
 6089TIP3    H239759   0.262   3.132  15.242 -2.7088 -0.2085  1.4188
 6090TIP3   OH239760   1.304   2.348   3.755  0.4443 -0.0881 -0.1131
 6090TIP3    H139761   1.263   2.303   3.828 -0.3370 -1.2273 -1.2304
 6090TIP3    H239762   1.231   2.381   3.703  0.9943  0.4404 -0.5613
 6091TIP3   OH239763   0.954   4.764   1.140  0.2249  1.2673 -0.2387
 6091TIP3    H139764   0.871   4.760   1.092  1.1149  2.3418 -1.9830
 6091TIP3    H239765   0.930   4.743   1.230 -1.3154 -2.6647 -1.3013
 6092TIP3   OH239766   1.080   1.428   2.857  0.6855 -0.2322 -0.3011
 6092TIP3    H139767   1.119   1.351   2.814  1.6563 -1.4030  2.4389
 6092TIP3    H239768   1.019   1.391   2.921  2.0053  1.1366  1.8884
 6093TIP3   OH239769   5.126   6.747  12.014  0.1502 -0.1458  0.4837
 6093TIP3    H139770   5.077   6.799  11.951  0.3779  1.5821  1.6717
 6093TIP3    H239771   5.059   6.695  12.059 -0.1570 -0.4418 -0.3111
 6094TIP3   OH239772   4.799   6.181  15.968  0.3703  0.2923 -0.0895
 6094TIP3    H139773   4.748   6.239  15.910  0.9899  0.1627 -0.7841
 6094TIP3    H239774   4.826   6.109  15.911  1.5456  0.4977  0.1893
 6095TIP3   OH239775   3.029   5.837  14.152  0.3395 -0.3032 -0.1968
 6095TIP3    H139776   2.983   5.887  14.220 -0.9598 -0.7513 -0.7202
 6095TIP3    H239777   2.961   5.785  14.109  1.5517 -2.0562 -0.1047
 6096TIP3   OH239778   6.145   2.192  11.635 -0.5538  0.0236  0.0998
 6096TIP3    H139779   6.108   2.157  11.554 -2.6807 -0.7310  1.2980
 6096TIP3    H239780   6.202   2.123  11.668 -1.4506 -0.6262  0.3388
 6097TIP3   OH239781   3.228   2.736   0.472  0.0552  0.2917  0.7133
 6097TIP3    H139782   3.153   2.678   0.482  2.6231 -3.2648  1.2339
 6097TIP3    H239783   3.250   2.732   0.379  0.7406 -0.3842  0.8851
 6098TIP3   OH239784   1.141   0.901   1.958 -0.2588 -0.3541 -0.0751
 6098TIP3    H139785   1.190   0.822   1.978  0.3282  0.5550  2.3760
 6098TIP3    H239786   1.057   0.889   2.001  0.6710  1.2445  2.3668
 6099TIP3   OH239787   1.303   5.597   5.395  0.3645  0.2722  0.5765
 6099TIP3    H139788   1.274   5.638   5.314  0.5824  0.3900  0.5595
 6099TIP3    H239789   1.370   5.655   5.429 -0.5173  0.8252  1.4264
 6100TIP3   OH239790   6.346   5.335  15.371  0.3318 -0.0151 -0.5429
 6100TIP3    H139791   6.265   5.311  15.326 -0.2853  1.0648 -0.0495
 6100TIP3    H239792   6.332   5.307  15.461  0.8685 -0.6240 -0.6486
 6101TIP3   OH239793   1.293   3.017   1.124 -0.2418  0.1245  0.8336
 6101TIP3    H139794   1.364   3.053   1.071  0.5015 -0.1953  1.5884
 6101TIP3    H239795   1.292   3.072   1.202 -0.8380  0.1283  0.8281
 6102TIP3   OH239796   1.220   1.162  14.958 -0.0454 -0.5065  0.3931
 6102TIP3    H139797   1.241   1.179  15.050 -1.9632 -0.5183  0.8730
 6102TIP3    H239798   1.232   1.068  14.947  0.6188 -0.4419  0.4853
 6103TIP3   OH239799   3.265   2.996   0.374  0.5943  0.1842  0.3462
 6103TIP3    H139800   3.170   3.001   0.385  0.4682 -0.4859 -0.4274
 6103TIP3    H239801   3.291   3.084   0.349  0.3944  0.7847  2.0888
 6104TIP3   OH239802   5.989   5.363   5.102  0.3440  0.2660 -0.3365
 6104TIP3    H139803   6.058   5.395   5.159 -0.8035  2.4919 -0.0730
 6104TIP3    H239804   5.909   5.374   5.153 -0.2949 -1.8882 -0.7650
 6105TIP3   OH239805   4.118   1.910  13.073  0.0358  0.1254  0.3433
 6105TIP3    H139806   4.035   1.953  13.051 -0.0301 -0.7125 -1.1149
 6105TIP3    H239807   4.119   1.908  13.169 -1.6840  0.0508  0.3861
 6106TIP3   OH239808   0.857   2.209   3.627  0.1232 -0.0152 -0.2113
 6106TIP3    H139809   0.795   2.136   3.628  0.2723 -0.1552 -0.9209
 6106TIP3    H239810   0.922   2.186   3.693  0.6415 -0.9432 -1.0254
 6107TIP3   OH239811   0.320   2.780   3.168  0.4869  0.2574 -0.7156
 6107TIP3    H139812   0.296   2.712   3.105 -1.6065  0.5226 -0.2633
 6107TIP3    H239813   0.350   2.731   3.246  0.2639 -0.1112 -0.8617
 6108TIP3   OH239814   0.282   0.511  11.190  0.2980  0.0238  0.1439
 6108TIP3    H139815   0.256   0.434  11.140  0.1506  0.6695 -0.8076
 6108TIP3    H239816   0.329   0.566  11.127  1.2214  0.2936  1.0374
 6109TIP3   OH239817   4.396   0.854   0.637 -0.3288 -0.0027  0.2252
 6109TIP3    H139818   4.364   0.809   0.715  1.4137 -2.2523 -0.2579
 6109TIP3    H239819   4.482   0.886   0.661  0.5107 -1.2847 -0.8837
 6110TIP3   OH239820   1.746   1.475   2.690  1.1074 -0.0474  0.0865
 6110TIP3    H139821   1.672   1.415   2.678 -0.4746  1.8524 -0.2220
 6110TIP3    H239822   1.824   1.420   2.681 -0.2417 -2.2723  1.1388
 6111TIP3   OH239823   0.982   6.407   3.306 -0.4983 -0.1570  0.8439
 6111TIP3    H139824   0.991   6.362   3.390  1.5128 -1.3151  0.0813
 6111TIP3    H239825   1.071   6.409   3.270 -1.3642 -0.1767 -1.4939
 6112TIP3   OH239826   3.439   0.043  13.821  0.1070  0.1716  0.5214
 6112TIP3    H139827   3.441  -0.015  13.897  0.0221 -0.4186  0.0801
 6112TIP3    H239828   3.379   0.113  13.847 -0.2397 -0.2321  0.8544
 6113TIP3   OH239829   4.450   1.977   3.360  0.0509 -0.3625  0.1343
 6113TIP3    H139830   4.545   1.983   3.358  0.2334 -2.6847 -0.8999
 6113TIP3    H239831   4.431   1.911   3.427 -0.8977  0.5301  0.7828
 6114TIP3   OH239832   1.442   4.577  16.978 -0.5050 -0.2858  0.2916
 6114TIP3    H139833   1.511   4.541  17.033  1.4106  1.3972 -0.8738
 6114TIP3    H239834   1.377   4.610  17.040  0.6613 -0.1827  1.5242
 6115TIP3   OH239835   5.161   2.228   1.672 -0.1199  0.7701  0.3882
 6115TIP3    H139836   5.219   2.244   1.598  0.6476  1.0056  1.0278
 6115TIP3    H239837   5.092   2.293   1.663  0.5998  1.5668  0.5150
 6116TIP3   OH239838   2.774   4.692  15.280 -0.4027  0.5638  0.8321
 6116TIP3    H139839   2.843   4.626  15.275  0.1811  1.2901 -2.4761
 6116TIP3    H239840   2.732   4.691  15.194 -0.9529  3.8923  0.9215
 6117TIP3   OH239841   5.773   6.759  15.275 -0.1212 -0.0815 -0.3560
 6117TIP3    H139842   5.755   6.665  15.280  1.0665 -0.2821  0.5683
 6117TIP3    H239843   5.846   6.773  15.336  1.9046  0.8942 -2.8185
 6118TIP3   OH239844   6.500   6.359  12.519 -0.0209  0.3830 -0.0119
 6118TIP3    H139845   6.566   6.365  12.449 -0.9104  0.6622 -0.8460
 6118TIP3    H239846   6.498   6.266  12.541  0.7576  0.3914  0.1296
 6119TIP3   OH239847   1.201   4.220   1.278  0.8478 -0.0507  0.0376
 6119TIP3    H139848   1.167   4.136   1.248  0.5670  0.6586 -1.8153
 6119TIP3    H239849   1.290   4.224   1.244  0.7979  0.4622 -0.0533
 6120TIP3   OH239850   1.425   3.089   3.856  0.1811  0.2144  0.1831
 6120TIP3    H139851   1.363   3.086   3.783 -0.8432  0.9204  0.9994
 6120TIP3    H239852   1.505   3.050   3.820 -0.5229 -0.1403 -1.0856
 6121TIP3   OH239853   0.943   5.014  16.717 -0.5425 -0.0760  0.1773
 6121TIP3    H139854   0.892   4.953  16.665  0.1216 -0.0498 -0.5292
 6121TIP3    H239855   0.959   5.089  16.659  0.0746  0.0237  0.4571
 6122TIP3   OH239856   3.249   3.362  16.726  0.3427  0.0730 -0.0526
 6122TIP3    H139857   3.306   3.299  16.682  0.5240 -0.0565  0.3548
 6122TIP3    H239858   3.309   3.420  16.772  0.1978  0.9475 -0.9545
 6123TIP3   OH239859   6.286   1.949   1.574 -0.1079  0.2553  0.0219
 6123TIP3    H139860   6.306   1.948   1.668  0.5102  1.4072 -0.0700
 6123TIP3    H239861   6.193   1.970   1.569 -0.1037  0.3609  0.3754
 6124TIP3   OH239862   1.440   3.078  14.434  0.0413  0.4191  0.2248
 6124TIP3    H139863   1.516   3.021  14.443  0.1642  0.4602 -0.4564
 6124TIP3    H239864   1.471   3.150  14.379  0.1062  1.5526  1.6918
 6125TIP3   OH239865   6.364   6.552   4.450 -0.1218  0.1287 -0.2491
 6125TIP3    H139866   6.440   6.502   4.421 -0.8031 -0.8960 -0.3096
 6125TIP3    H239867   6.357   6.533   4.543  0.7352  1.6428  0.1551
 6126TIP3   OH239868   5.877   2.378  16.696 -0.9060  0.5369 -0.2594
 6126TIP3    H139869   5.867   2.448  16.632 -2.8880  0.3334 -0.2277
 6126TIP3    H239870   5.852   2.419  16.779 -1.3393 -0.0093 -0.1216
 6127TIP3   OH239871   0.415   0.422  14.488 -0.5350  0.1095  0.0637
 6127TIP3    H139872   0.384   0.387  14.571 -1.9255 -0.7458 -0.7639
 6127TIP3    H239873   0.385   0.513  14.487  1.7139  0.9589  1.5401
 6128TIP3   OH239874   3.892   1.058  16.526  0.5143 -0.0341 -0.1474
 6128TIP3    H139875   3.985   1.066  16.504  0.8222  1.4767  1.4595
 6128TIP3    H239876   3.891   1.038  16.619 -0.7759 -2.8204 -0.6739
 6129TIP3   OH239877   4.692   0.146   2.266  0.3135 -0.0535 -0.0988
 6129TIP3    H139878   4.677   0.088   2.192  0.9526 -1.6414  0.9707
 6129TIP3    H239879   4.780   0.182   2.250  0.2511 -0.0130 -0.3551
 6130TIP3   OH239880   5.773   0.765  13.697  0.5061  0.5074 -0.0462
 6130TIP3    H139881   5.824   0.840  13.727 -3.3660  2.4537  2.5659
 6130TIP3    H239882   5.771   0.774  13.601  1.7722  2.5677  0.0637
 6131TIP3   OH239883   3.105   0.739   4.808  0.0355 -0.2152 -0.3749
 6131TIP3    H139884   3.048   0.665   4.828 -1.5846  1.4322  1.5235
 6131TIP3    H239885   3.077   0.769   4.722  0.1446 -1.2599 -0.7889
 6132TIP3   OH239886   4.115   2.632  12.735 -0.5975  0.2014 -0.6161
 6132TIP3    H139887   4.097   2.644  12.828 -0.2332  0.8451 -0.6242
 6132TIP3    H239888   4.086   2.542  12.716  1.6355 -0.8821  0.7008
 6133TIP3   OH239889   2.988   4.642   5.770  0.0790 -0.2563 -0.0340
 6133TIP3    H139890   2.991   4.633   5.865 -1.9347 -0.6543  0.0312
 6133TIP3    H239891   3.028   4.561   5.737  1.8227  0.3677  0.4098
 6134TIP3   OH239892   1.259   4.453   3.056 -0.1347  1.0454 -0.3100
 6134TIP3    H139893   1.228   4.440   2.966  0.1079 -0.2271 -0.2267
 6134TIP3    H239894   1.312   4.375   3.074 -0.2666  1.2394  0.9779
 6135TIP3   OH239895   2.937   2.263  16.699 -0.3060 -0.5248 -0.1308
 6135TIP3    H139896   2.990   2.343  16.697  0.2356 -0.8830 -0.1792
 6135TIP3    H239897   2.889   2.264  16.616 -1.0069  0.2154  0.2694
 6136TIP3   OH239898   0.520   0.166   1.232 -0.3680  0.6248 -0.3861
 6136TIP3    H139899   0.592   0.219   1.264 -1.7715  2.0956  0.4647
 6136TIP3    H239900   0.442   0.204   1.271 -1.5395 -1.5964 -0.3667
 6137TIP3   OH239901   2.946   5.431   2.038  0.1861 -0.2521  0.2942
 6137TIP3    H139902   2.999   5.471   1.969 -1.0779  0.4008 -0.3136
 6137TIP3    H239903   2.861   5.416   1.999 -0.4185 -0.3309  1.5733
 6138TIP3   OH239904   1.779   5.151  15.122 -0.3176 -0.0568  0.1701
 6138TIP3    H139905   1.775   5.244  15.097 -0.6058 -0.4075 -1.1351
 6138TIP3    H239906   1.699   5.137  15.174  0.2405  0.6531  1.2722
 6139TIP3   OH239907   0.976   3.025  16.859  0.4927 -0.1249 -0.3210
 6139TIP3    H139908   1.070   3.024  16.876  0.1483  0.0260  1.8076
 6139TIP3    H239909   0.942   2.950  16.907 -0.7061  0.9484  0.5721
 6140TIP3   OH239910   4.167   2.071   4.240 -0.0136  0.2381 -0.0960
 6140TIP3    H139911   4.117   2.015   4.181  0.8238  2.0982 -2.6961
 6140TIP3    H239912   4.185   2.150   4.190  3.8900  0.4592  1.2991
 6141TIP3   OH239913   4.260   4.703   0.740 -0.3366  0.2146 -0.4989
 6141TIP3    H139914   4.170   4.683   0.766 -0.0650 -0.3597  0.0148
 6141TIP3    H239915   4.271   4.795   0.762  0.1465 -0.4235  2.2734
 6142TIP3   OH239916   2.766   2.051   1.921 -0.0513  0.0607  0.6370
 6142TIP3    H139917   2.716   1.979   1.959 -1.5469  1.3730  1.2734
 6142TIP3    H239918   2.836   2.067   1.984  0.7444 -1.2646  0.1387
 6143TIP3   OH239919   4.870   4.252  10.150  0.1672 -0.2340  0.3273
 6143TIP3    H139920   4.791   4.291  10.188 -0.3241 -0.5795 -0.3146
 6143TIP3    H239921   4.942   4.291  10.199 -0.2586  1.9257 -0.6323
 6144TIP3   OH239922   5.255   4.907   1.048 -0.0557 -0.0600  0.2845
 6144TIP3    H139923   5.169   4.948   1.035 -0.6016 -0.4675  2.2135
 6144TIP3    H239924   5.237   4.832   1.104  1.5950 -0.0568  0.8655
 6145TIP3   OH239925   1.477   2.423   2.357 -0.1611  0.6648 -0.2014
 6145TIP3    H139926   1.571   2.445   2.355  0.1754 -0.5913  0.8192
 6145TIP3    H239927   1.463   2.387   2.444 -1.9709  2.3212  0.2505
 6146TIP3   OH239928   0.253   3.665  15.370 -0.4715 -0.0228  0.5320
 6146TIP3    H139929   0.284   3.655  15.460 -1.5915  1.9430  1.2052
 6146TIP3    H239930   0.273   3.756  15.348 -1.6534 -0.0142 -0.6147
 6147TIP3   OH239931   1.058   1.152  16.499  0.7684  0.1716  0.1833
 6147TIP3    H139932   1.072   1.062  16.469  0.3924  0.4833 -0.9770
 6147TIP3    H239933   1.020   1.196  16.424 -0.1719  1.0044  1.1184
 6148TIP3   OH239934   1.905   6.807  15.771 -0.0726 -0.3156 -0.7070
 6148TIP3    H139935   1.994   6.807  15.736  0.2749  1.7654  0.0602
 6148TIP3    H239936   1.889   6.715  15.794  1.7893 -0.7716 -1.0587
 6149TIP3   OH239937   1.630   3.515   0.286 -0.3253  0.1692  0.2501
 6149TIP3    H139938   1.639   3.604   0.252  0.4489 -0.0955 -0.2626
 6149TIP3    H239939   1.691   3.512   0.360  0.1338 -0.1190 -0.1321
 6150TIP3   OH239940   3.635   5.754   1.984  0.1912  0.0653  0.5047
 6150TIP3    H139941   3.707   5.692   1.977  0.2302 -0.6091  4.6133
 6150TIP3    H239942   3.556   5.700   1.975  0.2184  0.0534  0.3443
 6151TIP3   OH239943   1.829   2.597   2.030 -0.3468  0.0106  0.4716
 6151TIP3    H139944   1.864   2.603   1.941 -0.4242  1.3002  0.5183
 6151TIP3    H239945   1.735   2.616   2.020 -0.1567  1.2992  0.9620
 6152TIP3   OH239946   4.579   6.472   1.559  0.4027 -0.3508  0.3147
 6152TIP3    H139947   4.533   6.411   1.502  1.3493 -1.0275  0.2492
 6152TIP3    H239948   4.515   6.496   1.626 -0.3137 -0.5516 -0.2847
 6153TIP3   OH239949   3.988   4.872   5.496 -0.0032 -0.5594  0.4345
 6153TIP3    H139950   3.910   4.888   5.549 -0.9037 -1.5140 -0.5740
 6153TIP3    H239951   4.028   4.794   5.535 -1.8848 -2.6544 -1.5174
 6154TIP3   OH239952   2.910   3.309   0.461 -0.3116 -0.7041  0.1644
 6154TIP3    H139953   2.972   3.314   0.533 -0.9269  0.7452  0.6382
 6154TIP3    H239954   2.834   3.359   0.491 -0.5712 -0.0295 -1.4755
 6155TIP3   OH239955   5.091   5.773   0.853 -0.4572 -0.2968  0.3688
 6155TIP3    H139956   5.122   5.753   0.942  0.6989 -1.0030 -0.1772
 6155TIP3    H239957   5.087   5.869   0.850  0.4436 -0.2332  0.8775
 6156TIP3   OH239958   5.146   3.925   0.524 -0.1601 -0.4753  0.2556
 6156TIP3    H139959   5.146   3.942   0.618  0.1713 -3.5224  0.9189
 6156TIP3    H239960   5.062   3.884   0.506  0.3993 -1.3705 -0.4332
 6157TIP3   OH239961   3.739   2.692  10.619 -0.0682  0.0987 -0.6054
 6157TIP3    H139962   3.685   2.765  10.588 -0.2982  0.9739  1.6817
 6157TIP3    H239963   3.727   2.691  10.713  0.3675 -2.6013 -0.4903
 6158TIP3   OH239964   0.571   3.480  10.950  0.0745 -0.1307 -0.7765
 6158TIP3    H139965   0.586   3.540  10.877 -0.8929  1.6007  0.3605
 6158TIP3    H239966   0.628   3.512  11.020 -0.9137 -0.1180  0.0570
 6159TIP3   OH239967   3.183   1.264   5.613 -0.4679 -0.4913  0.3462
 6159TIP3    H139968   3.148   1.342   5.571 -0.4659 -1.1200 -0.8738
 6159TIP3    H239969   3.106   1.209   5.630 -0.2417 -1.4502 -1.4477
 6160TIP3   OH239970   4.922   1.297  15.005  0.1595 -0.0890  0.2743
 6160TIP3    H139971   4.971   1.376  15.029 -0.0469  0.3628 -0.7365
 6160TIP3    H239972   4.836   1.309  15.045 -0.4065  0.9756 -1.1486
 6161TIP3   OH239973   5.079   4.937  11.157 -0.0482  0.2386 -0.1343
 6161TIP3    H139974   5.061   4.866  11.096  1.3245  2.3155 -3.2404
 6161TIP3    H239975   5.175   4.942  11.161 -0.1019  2.0479 -0.2160
 6162TIP3   OH239976   0.575   2.111   1.069 -0.2267 -0.0813 -0.2594
 6162TIP3    H139977   0.628   2.191   1.063 -2.2757  1.3903  0.2485
 6162TIP3    H239978   0.486   2.139   1.045 -0.9995 -2.2332 -0.1154
 6163TIP3   OH239979   2.084   6.144   2.644  0.0128  0.3607 -0.4853
 6163TIP3    H139980   2.101   6.135   2.738  1.9606 -1.5724 -0.9319
 6163TIP3    H239981   2.036   6.226   2.636 -1.6075 -0.1696  2.3401
 6164TIP3   OH239982   6.643   2.069   1.479  0.6685 -0.0659 -0.1478
 6164TIP3    H139983   6.630   1.976   1.460  2.0407 -0.4394  0.6358
 6164TIP3    H239984   6.628   2.112   1.395 -2.2911 -0.7119 -0.0403
 6165TIP3   OH239985   4.030   6.373  16.081  0.1215 -0.2123  0.0883
 6165TIP3    H139986   3.987   6.343  16.001  0.5152 -2.0813  0.5130
 6165TIP3    H239987   3.971   6.347  16.151  1.0187 -1.0904  0.5497
 6166TIP3   OH239988   6.549   4.949  12.506 -0.2908 -0.6252  0.4272
 6166TIP3    H139989   6.537   5.039  12.476 -0.2637 -0.8136 -0.1653
 6166TIP3    H239990   6.591   4.904  12.432 -2.7254 -1.7853 -0.3828
 6167TIP3   OH239991   3.390   5.812   1.421 -0.5125 -0.0407  0.0860
 6167TIP3    H139992   3.385   5.717   1.437 -1.4060  0.1828  1.2586
 6167TIP3    H239993   3.463   5.822   1.360  1.5998 -1.2311  2.2500
 6168TIP3   OH239994   0.233   4.392   4.966  0.3118 -0.5462  0.4456
 6168TIP3    H139995   0.212   4.474   5.010 -0.7603 -0.1460 -0.7524
 6168TIP3    H239996   0.171   4.329   5.003  0.1462 -0.4713  0.2936
 6169TIP3   OH239997   0.140   2.261  13.286 -0.4428 -0.7331  0.2768
 6169TIP3    H139998   0.223   2.302  13.308 -0.8309  0.6164 -0.6701
 6169TIP3    H239999   0.159   2.206  13.209 -1.0104  2.2107 -2.1553
 6170TIP3   OH240000   0.283   2.861  15.376 -0.0450  0.3768  0.7539
 6170TIP3    H140001   0.248   2.937  15.330 -2.4175 -0.8526  0.3590
 6170TIP3    H240002   0.328   2.810  15.309  0.8925  1.0236  0.8698
 6171TIP3   OH240003   4.970   2.818   2.410  0.3130  0.4629  0.4542
 6171TIP3    H140004   4.945   2.910   2.413  0.4736  0.5703 -0.9733
 6171TIP3    H240005   4.971   2.796   2.317  2.3866 -0.3938  0.6270
 6172TIP3   OH240006   0.535   0.360   4.950  0.1209 -0.0064  0.0026
 6172TIP3    H140007   0.626   0.328   4.949  0.3582  0.5972 -1.8927
 6172TIP3    H240008   0.482   0.281   4.957  0.7597 -0.3991  0.6885
 6173TIP3   OH240009   5.913   5.199   3.193  0.9285 -0.1377  0.2140
 6173TIP3    H140010   6.005   5.203   3.217  0.6553  1.1286  1.1400
 6173TIP3    H240011   5.897   5.106   3.173  2.2351 -0.4762  0.6760
 6174TIP3   OH240012   4.085   4.367  16.539  0.4472  0.3296  0.2103
 6174TIP3    H140013   4.159   4.424  16.519  0.2109  0.3815 -0.5373
 6174TIP3    H240014   4.119   4.279  16.524  0.3770  0.3491 -0.0596
 6175TIP3   OH240015   4.017   0.360   3.294 -0.7017 -0.2861 -0.4176
 6175TIP3    H140016   3.998   0.385   3.204 -2.7513 -0.0284  0.0335
 6175TIP3    H240017   4.062   0.276   3.287 -0.8707 -0.2854 -1.6768
 6176TIP3   OH240018   4.686   5.591   1.922  0.0786 -0.2905 -0.0672
 6176TIP3    H140019   4.748   5.540   1.974  0.2854 -0.3748 -0.3926
 6176TIP3    H240020   4.608   5.537   1.918 -0.2478  0.0910  0.8789
 6177TIP3   OH240021   3.614   2.453  13.905 -0.5168  0.0584 -0.3388
 6177TIP3    H140022   3.698   2.425  13.868 -0.7406 -0.5075 -0.4130
 6177TIP3    H240023   3.582   2.518  13.843 -0.3808 -0.1045 -0.5804
 6178TIP3   OH240024   6.579   0.330   3.356  0.0718  0.1046 -0.9386
 6178TIP3    H140025   6.512   0.307   3.420  0.4260  0.1751 -0.5420
 6178TIP3    H240026   6.620   0.409   3.391  0.7612 -0.2734 -0.8874
 6179TIP3   OH240027   5.869   1.424   1.902  0.1664  0.2514  0.1515
 6179TIP3    H140028   5.829   1.336   1.908 -0.6556  0.4195 -2.1179
 6179TIP3    H240029   5.954   1.414   1.944 -0.0621 -1.5375  0.2845
 6180TIP3   OH240030   1.216   4.893   6.225 -0.1776 -0.3562  0.1390
 6180TIP3    H140031   1.166   4.955   6.277 -0.5170 -0.1864 -0.3892
 6180TIP3    H240032   1.306   4.902   6.257  0.4271  2.6310 -1.9510
 6181TIP3   OH240033   4.358   6.674  11.543  0.2370  0.7094  0.4462
 6181TIP3    H140034   4.279   6.729  11.537  0.4765  1.2516  1.9400
 6181TIP3    H240035   4.398   6.681  11.457 -2.4562 -1.3289 -1.1462
 6182TIP3   OH240036   2.185   5.089  11.815  0.1139 -0.0313 -0.6595
 6182TIP3    H140037   2.263   5.109  11.764  0.1360  1.5551 -0.0592
 6182TIP3    H240038   2.214   5.090  11.906 -0.2413 -1.3058 -0.5082
 6183TIP3   OH240039   0.104   5.133  11.862 -0.1554  0.3976 -0.1285
 6183TIP3    H140040   0.172   5.118  11.928  0.5629  0.2003 -0.8992
 6183TIP3    H240041   0.139   5.094  11.782 -0.5519  1.5261 -0.8862
 6184TIP3   OH240042   6.823   2.118  12.093 -0.0792 -0.0735 -0.4276
 6184TIP3    H140043   6.895   2.078  12.143 -0.8472 -2.2999 -1.0073
 6184TIP3    H240044   6.835   2.086  12.004 -0.8125  0.9506 -0.9172
 6185TIP3   OH240045   2.538   2.058   3.540  0.0767  0.0229 -0.0963
 6185TIP3    H140046   2.520   2.144   3.577 -0.5029 -1.0782  2.3810
 6185TIP3    H240047   2.482   2.053   3.463 -0.3031  1.6373  0.0359
 6186TIP3   OH240048   3.559   4.027  11.077 -0.0554 -0.1144 -0.1259
 6186TIP3    H140049   3.464   4.018  11.063 -0.2338  1.2976  0.0085
 6186TIP3    H240050   3.593   4.056  10.992  0.5230 -2.1039 -0.6269
 6187TIP3   OH240051   3.652   3.670   3.653  0.1090 -0.1840  0.2379
 6187TIP3    H140052   3.594   3.609   3.608 -0.3346 -0.0074  0.5595
 6187TIP3    H240053   3.594   3.740   3.685  0.5525  0.1991  0.2213
 6188TIP3   OH240054   0.710   6.815  12.901 -0.0643  0.0920  0.4385
 6188TIP3    H140055   0.724   6.720  12.893 -0.1987  0.1292 -0.3547
 6188TIP3    H240056   0.784   6.845  12.953  0.3884 -0.3499  0.0720
 6189TIP3   OH240057   4.167   5.431  13.970 -0.2479 -0.1663  0.1750
 6189TIP3    H140058   4.129   5.363  14.027  0.5166 -1.4203 -0.7677
 6189TIP3    H240059   4.108   5.434  13.895 -0.2523  0.1852  0.1927
 6190TIP3   OH240060   6.791   0.452   3.902 -0.1252  0.1682 -0.8224
 6190TIP3    H140061   6.725   0.431   3.968  2.1598 -0.2788  1.5224
 6190TIP3    H240062   6.789   0.378   3.842 -2.4135  0.6831 -1.4944
 6191TIP3   OH240063   6.473   2.855   3.374  0.3921  0.1858  0.0694
 6191TIP3    H140064   6.556   2.863   3.326  1.3115 -1.8401  1.1877
 6191TIP3    H240065   6.483   2.912   3.450  0.6034  0.2707 -0.0213
 6192TIP3   OH240066   1.096   2.996   3.937  0.4170  0.0960 -0.2144
 6192TIP3    H140067   1.004   2.981   3.959  0.3038  1.4084  0.3077
 6192TIP3    H240068   1.094   3.059   3.866  0.9096 -0.5411 -0.8085
 6193TIP3   OH240069   3.899   4.989   0.184  0.0840 -0.3381  0.0545
 6193TIP3    H140070   3.888   4.931   0.108  0.3696  0.3483 -0.5236
 6193TIP3    H240071   3.993   4.987   0.202  0.1864  0.3904 -0.3428
 6194TIP3   OH240072   2.267   6.486  15.379 -0.6134  0.2150  0.0136
 6194TIP3    H140073   2.339   6.448  15.329 -1.3496 -0.3199 -0.6588
 6194TIP3    H240074   2.296   6.575  15.398 -0.0092  0.1896 -0.7309
 6195TIP3   OH240075   3.193   4.718  16.030 -0.2752  0.1786 -0.4586
 6195TIP3    H140076   3.139   4.689  16.104 -1.3664 -0.1899 -1.3722
 6195TIP3    H240077   3.135   4.714  15.955  0.2974  2.2078 -1.0895
 6196TIP3   OH240078   4.541   5.524   4.962  0.0476  0.4056  0.5322
 6196TIP3    H140079   4.510   5.434   4.972 -1.8897  0.6212 -2.3045
 6196TIP3    H240080   4.515   5.568   5.043 -2.0594 -0.8290  0.5941
 6197TIP3   OH240081   6.278   0.009   6.330 -0.4824 -0.3401  0.1112
 6197TIP3    H140082   6.322  -0.063   6.375  0.7912  0.9439  1.0119
 6197TIP3    H240083   6.208  -0.033   6.279  0.2554 -2.1924  0.5575
 6198TIP3   OH240084   5.479   0.835  15.439 -0.2082  0.3455 -0.3059
 6198TIP3    H140085   5.419   0.879  15.378 -0.3928  0.7319  0.1430
 6198TIP3    H240086   5.484   0.895  15.514 -0.0567 -0.1648  0.0950
 6199TIP3   OH240087   3.740   5.538   4.026  0.3300  0.1302  0.0284
 6199TIP3    H140088   3.764   5.624   4.059 -1.6152  0.9150 -0.4648
 6199TIP3    H240089   3.821   5.487   4.030  0.8883  1.0453  3.1345
 6200TIP3   OH240090   4.345   0.196  16.134 -0.2349 -0.2426  0.0855
 6200TIP3    H140091   4.370   0.104  16.136 -0.4808 -0.3092  1.7927
 6200TIP3    H240092   4.409   0.239  16.191 -1.1328  0.3635  0.6545
 6201TIP3   OH240093   0.007   4.090   5.745  0.1925  0.0199 -0.2505
 6201TIP3    H140094   0.068   4.151   5.703  0.1480  0.6282  0.5593
 6201TIP3    H240095  -0.036   4.142   5.813 -0.5361 -0.6639 -0.1793
 6202TIP3   OH240096   5.087   4.015  13.147  0.1234 -0.2175 -0.5714
 6202TIP3    H140097   5.142   3.973  13.213 -1.1185  1.5099  1.7227
 6202TIP3    H240098   5.063   3.945  13.086  1.8182 -1.7561  0.4617
 6203TIP3   OH240099   3.080   3.202   0.662 -0.4093 -0.0578  0.3672
 6203TIP3    H140100   3.045   3.113   0.668 -0.1739 -0.0540  2.5196
 6203TIP3    H240101   3.144   3.198   0.591  0.8506 -2.0522  1.5450
 6204TIP3   OH240102   2.626   5.738  12.408  0.6616  0.1022  0.0137
 6204TIP3    H140103   2.647   5.679  12.481  0.8598 -0.5038 -0.5201
 6204TIP3    H240104   2.535   5.718  12.387  0.7010  0.0558 -0.1101
 6205TIP3   OH240105   6.520   4.801  13.085 -0.6245 -0.1974 -0.0365
 6205TIP3    H140106   6.530   4.733  13.018  1.0577  0.8497 -0.9130
 6205TIP3    H240107   6.455   4.861  13.049  0.4850  0.5174 -0.9195
 6206TIP3   OH240108   2.212   1.927  14.776  0.1750  0.0934 -0.2005
 6206TIP3    H140109   2.227   1.942  14.683 -0.8592  1.8200 -0.1269
 6206TIP3    H240110   2.233   2.010  14.818 -0.6658 -0.2360  0.9428
 6207TIP3   OH240111   6.484   4.747   3.590 -0.4766  0.1317  0.2497
 6207TIP3    H140112   6.544   4.678   3.561  0.2007  0.9509 -0.3535
 6207TIP3    H240113   6.494   4.748   3.685 -2.3651 -2.2578  0.5796
 6208TIP3   OH240114   4.892   5.187  16.502  0.0200 -0.1981  0.0698
 6208TIP3    H140115   4.961   5.247  16.532  0.8461 -0.7852 -0.6150
 6208TIP3    H240116   4.873   5.133  16.579  1.1218 -0.7601 -0.0271
 6209TIP3   OH240117   5.116   3.733   4.379 -0.1098 -0.0823  0.1727
 6209TIP3    H140118   5.089   3.821   4.407 -1.9695 -0.6669  0.3513
 6209TIP3    H240119   5.058   3.674   4.426  0.9142 -1.4188 -0.1743
 6210TIP3   OH240120   2.572   2.068  16.696 -0.0702 -0.0456 -0.4992
 6210TIP3    H140121   2.636   2.107  16.637 -0.5055  1.2316 -0.1650
 6210TIP3    H240122   2.516   2.141  16.723 -0.4881 -0.7747  0.7215
 6211TIP3   OH240123   6.820   3.636   3.884 -0.7657 -0.9566 -0.0917
 6211TIP3    H140124   6.812   3.540   3.881  1.1631 -1.2394  1.8972
 6211TIP3    H240125   6.772   3.661   3.963 -0.4698 -0.3863 -0.0913
 6212TIP3   OH240126   1.014   4.183  12.795  0.1293 -0.1254  0.2861
 6212TIP3    H140127   1.028   4.221  12.708 -0.6549 -0.2943  0.0731
 6212TIP3    H240128   1.052   4.246  12.856 -0.6220  0.7228 -0.0963
 6213TIP3   OH240129   5.914   4.920  12.488  0.3074  0.1601  0.6963
 6213TIP3    H140130   5.880   4.834  12.465  0.7751  0.1539 -0.0072
 6213TIP3    H240131   5.843   4.962  12.535  0.0662 -0.5980  1.0239
 6214TIP3   OH240132   3.187   3.284   0.350 -0.1122 -0.4631 -0.4902
 6214TIP3    H140133   3.192   3.368   0.303 -1.4846  0.4710  0.9512
 6214TIP3    H240134   3.094   3.262   0.351  0.3204 -2.6136 -1.7770
 6215TIP3   OH240135   6.274   6.176   6.328  0.4405 -0.4032  0.2112
 6215TIP3    H140136   6.214   6.238   6.288 -0.4275 -0.1904  1.7428
 6215TIP3    H240137   6.255   6.092   6.286  0.9144  0.1452 -1.1484
 6216TIP3   OH240138   4.614   2.309  12.195 -0.2126 -0.5159  0.1799
 6216TIP3    H140139   4.635   2.242  12.260 -1.8973  0.4726  1.8427
 6216TIP3    H240140   4.550   2.365  12.238 -0.3829  0.9962 -1.8836
 6217TIP3   OH240141   1.180   0.535  16.184 -0.0988  0.7779  0.1049
 6217TIP3    H140142   1.161   0.449  16.148 -0.2049  0.7338  0.2642
 6217TIP3    H240143   1.206   0.519  16.275 -1.0465  0.9863  0.4291
 6218TIP3   OH240144   3.166   1.697  16.738 -0.5105 -0.4531  0.6530
 6218TIP3    H140145   3.190   1.718  16.648  0.7325 -0.4918  0.9469
 6218TIP3    H240146   3.206   1.611  16.754 -2.2806 -1.3193  0.6809
 6219TIP3   OH240147   5.865   3.324  11.756  0.9191 -0.1353  0.2747
 6219TIP3    H140148   5.791   3.264  11.768  0.5169  0.0336 -1.1572
 6219TIP3    H240149   5.938   3.267  11.732  0.4684 -0.0804 -1.3677
 6220TIP3   OH240150   4.551   0.348   5.990  0.5359  0.0787  0.0237
 6220TIP3    H140151   4.537   0.436   6.025  2.5135  0.2093  0.5992
 6220TIP3    H240152   4.580   0.296   6.065  0.6193 -0.7589 -0.5682
 6221TIP3   OH240153   6.760   1.017  12.086  0.2645  0.2447 -0.4298
 6221TIP3    H140154   6.782   1.055  12.000  1.8480  1.7370  0.5669
 6221TIP3    H240155   6.762   1.091  12.146  1.6535 -1.1182  1.3140
 6222TIP3   OH240156   4.544   4.386  15.814  0.6448  0.2986 -0.4694
 6222TIP3    H140157   4.605   4.392  15.740  1.3595  2.1019  0.2070
 6222TIP3    H240158   4.594   4.340  15.882  0.9478  0.9487 -0.2387
 6223TIP3   OH240159   4.375   3.925  11.431 -0.6849  0.0347  0.2173
 6223TIP3    H140160   4.401   3.851  11.376  0.5254  0.4425  0.2034
 6223TIP3    H240161   4.349   3.885  11.514 -1.1746 -0.4828 -0.1789
 6224TIP3   OH240162   1.488   3.807   3.018 -0.2197  0.7049 -0.4323
 6224TIP3    H140163   1.565   3.765   2.981 -0.6886 -0.3953 -0.1773
 6224TIP3    H240164   1.481   3.890   2.971  1.3761  1.0365 -0.1498
 6225TIP3   OH240165   3.382   1.011   3.696 -0.2653 -0.2983 -0.4476
 6225TIP3    H140166   3.395   0.917   3.707  0.2645 -0.1149  0.6505
 6225TIP3    H240167   3.451   1.051   3.750 -2.3146  0.7367  1.5341
 6226TIP3   OH240168   3.006   6.616   5.042 -0.0858  0.0498  0.4248
 6226TIP3    H140169   2.965   6.564   5.111 -1.9446 -0.7917 -1.2119
 6226TIP3    H240170   3.007   6.558   4.966  0.1980  1.5316 -0.7506
 6227TIP3   OH240171   2.270   0.053   6.017 -0.0303 -0.1938  0.3986
 6227TIP3    H140172   2.338   0.010   6.069  0.8471 -0.5416 -0.9748
 6227TIP3    H240173   2.250  -0.010   5.947 -0.4952  0.6407 -0.2377
 6228TIP3   OH240174   6.309   6.061   1.234  0.3723 -0.0570  0.4643
 6228TIP3    H140175   6.311   6.142   1.182 -0.4143  1.2827  2.3814
 6228TIP3    H240176   6.218   6.054   1.263  0.3816 -1.7940  0.1323
 6229TIP3   OH240177   4.387   5.224  10.802  0.6562 -0.5060  0.0861
 6229TIP3    H140178   4.323   5.152  10.795  2.2267 -2.0093  0.5050
 6229TIP3    H240179   4.365   5.282  10.729 -0.7531 -1.3218 -0.1905
 6230TIP3   OH240180   4.479   1.751  14.459  1.1293  0.0675 -0.1480
 6230TIP3    H140181   4.572   1.764  14.440  1.4361  0.0107  1.2058
 6230TIP3    H240182   4.451   1.833  14.499  0.8700 -0.2792  0.3973
 6231TIP3   OH240183   6.574   6.628   1.891  0.3120  0.0594  0.2829
 6231TIP3    H140184   6.554   6.554   1.948  0.4355  0.0357  0.2943
 6231TIP3    H240185   6.492   6.644   1.844 -0.5004  1.4631  2.0259
 6232TIP3   OH240186   5.845   0.532  12.516 -0.0324 -0.0317 -0.0590
 6232TIP3    H140187   5.894   0.450  12.523  0.3764  0.2437  0.3654
 6232TIP3    H240188   5.841   0.565  12.606 -1.2218 -0.1758 -0.0414
 6233TIP3   OH240189   4.004   5.147   3.062  0.3424  0.0983  0.0687
 6233TIP3    H140190   3.991   5.122   3.154  1.4224 -2.6161 -0.4193
 6233TIP3    H240191   3.917   5.140   3.023 -0.0097  0.6382  0.7417
 6234TIP3   OH240192   2.602   6.264  14.783  0.6470  0.5798  0.3521
 6234TIP3    H140193   2.647   6.338  14.743  3.1181 -0.5433  0.8819
 6234TIP3    H240194   2.587   6.203  14.711  2.4333 -0.1749  0.5818
 6235TIP3   OH240195   1.391   5.365  11.270 -0.1437 -0.2418  0.2742
 6235TIP3    H140196   1.389   5.276  11.303 -0.9838 -0.8301 -1.2891
 6235TIP3    H240197   1.483   5.380  11.247 -0.0419 -0.7971  0.3090
 6236TIP3   OH240198   6.122   4.510   5.623 -0.0066  0.0048  0.5008
 6236TIP3    H140199   6.061   4.463   5.679  0.0037  1.4503  1.8048
 6236TIP3    H240200   6.119   4.465   5.539  0.9548 -3.1001  1.9944
 6237TIP3   OH240201   3.320   6.404   3.063  0.4389 -0.3134  0.2153
 6237TIP3    H140202   3.263   6.334   3.097 -0.3212 -0.1974 -0.7716
 6237TIP3    H240203   3.333   6.382   2.971  2.1296 -0.3937  0.4453
 6238TIP3   OH240204   5.667   5.821   1.872 -0.1751  0.2883 -0.4169
 6238TIP3    H140205   5.654   5.748   1.811 -1.4851 -0.0880  0.2788
 6238TIP3    H240206   5.600   5.885   1.848  0.3339  0.8362 -0.3940
 6239TIP3   OH240207   0.691   4.881   0.698  0.1503 -0.1096  0.1671
 6239TIP3    H140208   0.769   4.902   0.749  1.6269 -2.8255 -0.7661
 6239TIP3    H240209   0.624   4.860   0.763  1.2017 -0.9062  1.0287
 6240TIP3   OH240210   0.276   0.881   6.057 -0.2743 -0.5218 -0.0516
 6240TIP3    H140211   0.350   0.935   6.028  1.1682  0.0188  4.0265
 6240TIP3    H240212   0.269   0.898   6.151 -2.7398 -3.9665  0.5715
 6241TIP3   OH240213   6.501   5.870   1.995  0.1522  0.2528 -0.6162
 6241TIP3    H140214   6.506   5.928   2.071  2.1534 -0.7835  0.1028
 6241TIP3    H240215   6.437   5.803   2.020  0.0887  0.4587 -0.2292
 6242TIP3   OH240216   1.375   6.383   2.048 -1.0998 -1.0388  0.3017
 6242TIP3    H140217   1.354   6.343   1.964 -0.2485 -0.6416 -0.1132
 6242TIP3    H240218   1.291   6.395   2.091 -1.5659 -0.9858 -0.6120
 6243TIP3   OH240219   1.994   0.522   2.956  0.3602 -0.3194 -0.0597
 6243TIP3    H140220   1.928   0.567   3.009  0.2304 -0.5587 -0.0156
 6243TIP3    H240221   2.061   0.588   2.939 -0.8633  0.5605 -1.8320
 6244TIP3   OH240222   3.528   3.746  11.231 -0.9347  0.1487  0.4045
 6244TIP3    H140223   3.541   3.755  11.137 -0.8675 -0.8814  0.3097
 6244TIP3    H240224   3.519   3.652  11.246  0.7266  0.1172  1.6296
 6245TIP3   OH240225   4.844   6.590   3.389  0.3577 -0.2297 -0.1143
 6245TIP3    H140226   4.846   6.591   3.484 -2.3557  0.5011  0.0311
 6245TIP3    H240227   4.765   6.640   3.366  0.5351 -0.9800 -2.7231
 6246TIP3   OH240228   6.214   0.883  11.909  0.0968  0.6192  0.4038
 6246TIP3    H140229   6.141   0.874  11.971 -1.0999  0.8876 -0.9157
 6246TIP3    H240230   6.178   0.934  11.837  0.3286 -2.5911 -2.2099
 6247TIP3   OH240231   6.703   6.195  17.271 -0.4467 -0.5501 -0.5533
 6247TIP3    H140232   6.714   6.113  17.223  0.9114 -0.3709 -0.6163
 6247TIP3    H240233   6.714   6.263  17.204 -0.2190 -0.3172 -0.2846
 6248TIP3   OH240234   4.159   2.933  12.148  0.1606  0.3191 -0.1332
 6248TIP3    H140235   4.096   2.861  12.160  0.3882  0.2316  0.6237
 6248TIP3    H240236   4.115   3.010  12.184  0.9478  0.0087  1.6009
 6249TIP3   OH240237   0.280   6.686  13.698  0.2447  0.6009 -0.3134
 6249TIP3    H140238   0.298   6.739  13.776 -0.1118  1.2990 -0.6996
 6249TIP3    H240239   0.351   6.706  13.638 -0.7569  1.9135 -1.1001
 6250TIP3   OH240240   6.571   0.748  15.168 -0.4374  0.2309  0.3480
 6250TIP3    H140241   6.626   0.728  15.244  1.3520  1.0429 -0.6593
 6250TIP3    H240242   6.501   0.804  15.203  0.2486  0.4442  1.4291
 6251TIP3   OH240243   0.610   0.269  14.981 -0.5295  0.4336  0.0396
 6251TIP3    H140244   0.659   0.309  14.909  0.4094  0.5539  0.7321
 6251TIP3    H240245   0.527   0.244  14.941 -1.4284  3.5736 -0.3430
 6252TIP3   OH240246   1.753   3.880   6.514  0.1656 -0.3352 -0.1315
 6252TIP3    H140247   1.805   3.830   6.578  2.7672  1.0974 -0.9605
 6252TIP3    H240248   1.709   3.812   6.462  1.1013 -1.6808  0.7397
 6253TIP3   OH240249   3.669   2.363   4.134 -0.2384 -0.4530 -0.1301
 6253TIP3    H140250   3.614   2.340   4.059 -0.6310  1.5311 -0.5037
 6253TIP3    H240251   3.687   2.456   4.123 -0.3100 -0.1035  2.2526
 6254TIP3   OH240252   2.075   3.993  11.237 -0.6584 -0.3167 -0.0915
 6254TIP3    H140253   2.169   4.006  11.223 -0.3754 -1.5647  0.5521
 6254TIP3    H240254   2.033   4.047  11.170  0.4985  0.7642  0.0132
 6255TIP3   OH240255   3.757   0.704  16.690 -0.2557 -0.1142 -0.3378
 6255TIP3    H140256   3.772   0.609  16.685  3.2111  0.0849  2.2120
 6255TIP3    H240257   3.688   0.714  16.756 -0.5510 -0.8836 -0.5235
 6256TIP3   OH240258   1.818   1.529   3.729  0.0393  0.2826 -0.1652
 6256TIP3    H140259   1.809   1.582   3.649  0.1524 -0.2316 -0.5197
 6256TIP3    H240260   1.875   1.582   3.786  0.3075  0.4632 -0.5921
 6257TIP3   OH240261   6.342   1.694   6.444  0.2486 -0.3662 -0.2131
 6257TIP3    H140262   6.271   1.698   6.380  1.2906  1.2329 -1.3200
 6257TIP3    H240263   6.392   1.616   6.419  1.1267  0.6863 -1.9427
 6258TIP3   OH240264   6.803   6.636  16.837  0.3372 -0.0023 -0.5699
 6258TIP3    H140265   6.866   6.653  16.767  0.4361  1.5625 -0.1478
 6258TIP3    H240266   6.854   6.647  16.918 -0.5578  1.8215 -0.2083
 6259TIP3   OH240267   3.526   3.300   5.180 -0.3877 -0.1106 -0.3772
 6259TIP3    H140268   3.483   3.215   5.185  0.2243 -0.3789  0.6941
 6259TIP3    H240269   3.491   3.341   5.101 -1.7292 -0.7844 -0.1443
 6260TIP3   OH240270   3.490   0.592   0.216 -0.0710 -0.2946 -0.1690
 6260TIP3    H140271   3.571   0.542   0.228  0.8415  0.5574 -2.2363
 6260TIP3    H240272   3.517   0.683   0.230 -0.5222  0.0479 -1.4260
 6261TIP3   OH240273   5.839   6.554   0.383  0.2598 -0.0003 -0.2704
 6261TIP3    H140274   5.911   6.616   0.389  0.4040 -0.0847 -1.0935
 6261TIP3    H240275   5.760   6.609   0.377  0.2408  0.0915  0.6425
 6262TIP3   OH240276   5.237   0.433   3.746  0.2333  0.4639  0.7611
 6262TIP3    H140277   5.167   0.411   3.808 -1.9561 -0.2844 -1.8043
 6262TIP3    H240278   5.250   0.527   3.758  0.8178  0.1583  3.1497
 6263TIP3   OH240279   3.550   0.215  13.126 -0.2736 -0.0458  0.0536
 6263TIP3    H140280   3.629   0.187  13.171  0.2137  0.3619 -0.5352
 6263TIP3    H240281   3.571   0.303  13.092 -1.1824  0.3258  0.4158
 6264TIP3   OH240282   3.092   0.658  15.987  0.1992  0.3956  0.2169
 6264TIP3    H140283   3.063   0.684  16.075 -0.1169 -0.4812  0.3856
 6264TIP3    H240284   3.018   0.609  15.951  0.9290 -0.6554  0.1013
 6265TIP3   OH240285   6.277   1.176  10.647  0.0156  0.0242 -0.7715
 6265TIP3    H140286   6.306   1.092  10.684 -3.6154 -0.9465  0.2715
 6265TIP3    H240287   6.196   1.155  10.601 -1.0627  2.9943 -0.4181
 6266TIP3   OH240288   0.608   5.514  12.012 -0.4900  0.5308 -0.1811
 6266TIP3    H140289   0.665   5.555  12.077 -0.0212  2.5683 -1.7371
 6266TIP3    H240290   0.663   5.447  11.971 -0.8192 -0.8230  1.5133
 6267TIP3   OH240291   2.386   4.025  12.331 -0.5866 -0.1026 -0.0866
 6267TIP3    H140292   2.375   4.043  12.238 -0.1804 -0.0863 -0.1337
 6267TIP3    H240293   2.472   3.984  12.338 -0.5188  0.1013  0.3121
 6268TIP3   OH240294   0.258   2.434   2.400 -0.3757 -0.3898 -0.3389
 6268TIP3    H140295   0.255   2.385   2.482  2.0466  1.1578  0.7788
 6268TIP3    H240296   0.197   2.507   2.413 -0.0473 -0.1858  0.0815
 6269TIP3   OH240297   4.542   2.407   1.689  0.3061  0.2324  0.1049
 6269TIP3    H140298   4.463   2.354   1.702  0.3428  0.4866  1.5125
 6269TIP3    H240299   4.592   2.395   1.770  0.3829  2.3024  0.3992
 6270TIP3   OH240300   4.081   6.801  16.206 -0.0301 -0.4718  0.1935
 6270TIP3    H140301   4.158   6.744  16.207 -0.0741 -0.6043  2.4532
 6270TIP3    H240302   4.114   6.886  16.236 -0.5670 -0.2583  0.1918
 6271TIP3   OH240303   5.558   4.895  13.682  0.2377 -0.1090 -0.1000
 6271TIP3    H140304   5.652   4.879  13.678  0.3193  0.3960 -0.2981
 6271TIP3    H240305   5.550   4.982  13.721 -0.1107  0.1614 -0.7622
 6272TIP3   OH240306   4.300   6.638   3.928  0.2419  0.1849  0.7758
 6272TIP3    H140307   4.322   6.559   3.878 -1.4696 -0.0674  0.3413
 6272TIP3    H240308   4.383   6.668   3.964  1.0266 -1.4938  0.4750
 6273TIP3   OH240309   1.408   3.118  13.907 -0.0990 -0.4929  0.0741
 6273TIP3    H140310   1.401   3.086  13.817  0.4554  0.0025 -0.1572
 6273TIP3    H240311   1.501   3.110  13.928 -0.4886 -2.3646  1.2909
 6274TIP3   OH240312   1.928   5.285   5.472  0.0039  0.7626 -0.4116
 6274TIP3    H140313   1.916   5.214   5.535  0.6776  1.2064  0.2354
 6274TIP3    H240314   1.899   5.364   5.519 -1.2614  0.8584 -1.3098
 6275TIP3   OH240315   3.655   0.349  15.940  0.3948 -0.6847  0.3015
 6275TIP3    H140316   3.677   0.441  15.955  0.4957 -0.8275  1.0645
 6275TIP3    H240317   3.718   0.301  15.993 -0.0448 -1.1779  0.3829
 6276TIP3   OH240318   2.574   0.222   4.352  0.3303 -0.3861  0.1794
 6276TIP3    H140319   2.663   0.186   4.351  1.1491  1.4421  1.9015
 6276TIP3    H240320   2.538   0.196   4.437 -0.8409 -1.1249 -0.5056
 6277TIP3   OH240321   5.119   6.544  13.417 -0.3920  0.0115  0.1304
 6277TIP3    H140322   5.120   6.566  13.510  0.7376 -0.3418  0.2177
 6277TIP3    H240323   5.037   6.498  13.404  0.3302 -1.7408  1.4056
 6278TIP3   OH240324   5.756   5.250   4.306 -0.6376  0.5232 -0.2369
 6278TIP3    H140325   5.752   5.158   4.283 -0.0646  0.7641 -1.3678
 6278TIP3    H240326   5.844   5.261   4.343 -0.6082  0.6619 -0.3463
 6279TIP3   OH240327   5.996   0.931   1.670  0.2748  0.0612 -0.0641
 6279TIP3    H140328   6.038   0.846   1.657  0.7496  0.3954 -0.7698
 6279TIP3    H240329   6.017   0.955   1.760 -0.9233 -1.1369  0.5718
 6280TIP3   OH240330   3.528   3.973   3.938 -0.0458 -0.1445  0.0368
 6280TIP3    H140331   3.503   3.909   4.005 -1.3833 -0.9735 -1.1942
 6280TIP3    H240332   3.612   4.008   3.968  0.1132 -1.5782  1.3744
 6281TIP3   OH240333   3.252   2.179  12.662 -0.5566 -0.6642 -0.3593
 6281TIP3    H140334   3.162   2.149  12.653 -0.3959 -0.9484 -1.0863
 6281TIP3    H240335   3.254   2.226  12.746 -2.2124  2.3260 -1.8219
 6282TIP3   OH240336   4.140   6.222  12.376  0.1775 -0.4817  0.4332
 6282TIP3    H140337   4.150   6.156  12.308  0.2420  0.4346 -0.4585
 6282TIP3    H240338   4.182   6.301  12.341  1.0671 -0.2530  1.9211
 6283TIP3   OH240339   6.796   3.008   5.130 -0.0215  0.4628 -0.4857
 6283TIP3    H140340   6.887   3.023   5.106 -0.3600  0.3216 -1.9716
 6283TIP3    H240341   6.752   3.090   5.110 -0.0227  1.0229  1.5421
 6284TIP3   OH240342   3.263   6.340   6.336  0.0026  0.0039  0.8727
 6284TIP3    H140343   3.176   6.378   6.319  0.7546  1.7805  0.8279
 6284TIP3    H240344   3.298   6.322   6.249  1.1114  2.7573  0.6466
 6285TIP3   OH240345   4.820   0.418   6.153  0.1420 -0.1767  0.6047
 6285TIP3    H140346   4.804   0.414   6.059  0.1307 -1.7440  0.6487
 6285TIP3    H240347   4.864   0.502   6.167  0.4788 -0.0981 -0.8530
 6286TIP3   OH240348   3.363   0.640  15.907  0.0657 -0.1126 -0.4322
 6286TIP3    H140349   3.346   0.623  15.814 -0.4023 -1.8480 -0.0712
 6286TIP3    H240350   3.281   0.617  15.951  0.3231  0.5610  0.4223
 6287TIP3   OH240351   1.649   6.218  14.087  0.9480  0.0465  0.0589
 6287TIP3    H140352   1.578   6.282  14.094  0.9691 -0.0380  1.1132
 6287TIP3    H240353   1.610   6.136  14.118  2.0047  0.3912  2.4391
 6288TIP3   OH240354   6.044   6.585   1.148 -0.2126  0.2627  0.5869
 6288TIP3    H140355   5.959   6.545   1.167 -1.2873  2.5986  1.0442
 6288TIP3    H240356   6.033   6.626   1.062 -0.7451  3.3356  1.9680
 6289TIP3   OH240357   0.183   0.822   0.710  0.3417  0.0863  0.2881
 6289TIP3    H140358   0.171   0.804   0.617 -0.4621 -1.3979  0.6411
 6289TIP3    H240359   0.095   0.837   0.744  0.3659 -1.4608  1.1602
 6290TIP3   OH240360   3.513   1.523   3.113  0.1425 -0.1074 -0.2278
 6290TIP3    H140361   3.503   1.434   3.147 -3.2648  0.4286  0.5162
 6290TIP3    H240362   3.507   1.513   3.018  1.1083 -0.7437 -0.2415
 6291TIP3   OH240363   3.848   0.551   0.283  0.6908  0.1021 -0.0021
 6291TIP3    H140364   3.868   0.503   0.364  0.6170  0.7593  0.4105
 6291TIP3    H240365   3.883   0.495   0.214 -0.2338 -1.0118  0.3925
 6292TIP3   OH240366   0.023   6.067  14.005  0.0576  0.0250  0.3295
 6292TIP3    H140367  -0.068   6.076  13.978  0.1304 -0.5633 -0.1363
 6292TIP3    H240368   0.056   5.992  13.955  1.1653  1.0352 -0.5166
 6293TIP3   OH240369   6.212   3.105  11.117  0.8558 -0.2920  0.3768
 6293TIP3    H140370   6.132   3.053  11.130  1.4411 -1.4066 -0.3124
 6293TIP3    H240371   6.276   3.064  11.175  1.6094 -1.0109 -0.9332
 6294TIP3   OH240372   3.286   3.921   0.460 -0.1622  0.4014  0.0977
 6294TIP3    H140373   3.291   4.013   0.487 -1.4345  1.0534 -1.7148
 6294TIP3    H240374   3.220   3.920   0.391  0.4501 -1.7382 -0.5222
 6295TIP3   OH240375   4.833   2.533  12.050  0.1303 -0.1796 -0.2892
 6295TIP3    H140376   4.767   2.596  12.023 -0.0495 -0.3204 -0.1814
 6295TIP3    H240377   4.787   2.449  12.052  0.0133 -0.1014  0.9144
 6296TIP3   OH240378   2.605   4.084  15.658 -0.2796  0.6896 -0.2504
 6296TIP3    H140379   2.577   4.153  15.719 -0.2672  0.5966 -0.1396
 6296TIP3    H240380   2.597   4.124  15.572  1.0311  1.2913 -0.1191
 6297TIP3   OH240381   5.943   5.664   6.273  0.1034  0.1511 -0.0640
 6297TIP3    H140382   6.036   5.653   6.252 -0.0049 -0.8647 -0.0796
 6297TIP3    H240383   5.934   5.756   6.296  1.3812 -0.0086  1.2365
 6298TIP3   OH240384   2.588   1.702  10.766 -0.1609  0.8544 -0.4581
 6298TIP3    H140385   2.525   1.651  10.716  1.8830 -1.6604 -0.6518
 6298TIP3    H240386   2.661   1.716  10.706  3.0027 -3.4556  1.8454
 6299TIP3   OH240387   5.237   0.858   6.484 -0.5427  0.4127  0.3024
 6299TIP3    H140388   5.190   0.931   6.525 -0.0133  0.5733  0.6231
 6299TIP3    H240389   5.328   0.888   6.478 -0.5240  0.1999 -0.5468
 6300TIP3   OH240390   5.609   3.966  15.757  0.5886  0.4823  0.1680
 6300TIP3    H140391   5.640   4.007  15.676  1.2951  2.3623  1.3457
 6300TIP3    H240392   5.541   4.025  15.789  0.7898  0.1198  1.2939
 6301TIP3   OH240393   3.298   3.484   5.532 -0.4013 -0.4715 -0.0137
 6301TIP3    H140394   3.386   3.469   5.498 -0.3971  2.4543 -1.6217
 6301TIP3    H240395   3.245   3.505   5.455 -2.0876 -0.3472  1.1090
 6302TIP3   OH240396   6.776   4.820   6.463 -0.1942 -0.0400  0.5769
 6302TIP3    H140397   6.681   4.820   6.468 -0.1719  1.2159  1.1973
 6302TIP3    H240398   6.795   4.774   6.381 -1.3677  0.5253 -0.0355
 6303TIP3   OH240399   4.766   4.899   6.066  0.3595 -0.9790  0.4619
 6303TIP3    H140400   4.824   4.902   5.991 -2.2100  2.3253 -1.7381
 6303TIP3    H240401   4.824   4.892   6.142  3.5938  1.3853 -1.5378
 6304TIP3   OH240402   5.092   3.771   4.755  0.0844  0.0864 -0.4369
 6304TIP3    H140403   5.093   3.867   4.760 -0.2630  0.1296 -1.1759
 6304TIP3    H240404   5.141   3.751   4.676  0.7805 -0.3836  0.1020
 6305TIP3   OH240405   5.906   2.619  10.584 -0.0123 -0.2966  0.0324
 6305TIP3    H140406   5.921   2.526  10.596  1.6378 -0.0196  0.3153
 6305TIP3    H240407   5.978   2.662  10.630 -0.9372  1.1393  0.2283
 6306TIP3   OH240408   6.105   4.855   4.646  0.1250 -0.0238 -0.1400
 6306TIP3    H140409   6.195   4.843   4.615  0.4167  0.8644  0.3365
 6306TIP3    H240410   6.057   4.784   4.605  1.0176 -0.4347 -0.5144
 6307TIP3   OH240411   4.867   5.480  15.757  1.1261 -0.0250 -0.5468
 6307TIP3    H140412   4.791   5.436  15.721  0.3710  0.4354  0.4557
 6307TIP3    H240413   4.914   5.514  15.680  0.6996 -0.8877 -1.2034
 6308TIP3   OH240414   5.862   1.526   2.211  1.0036  0.1840  0.1304
 6308TIP3    H140415   5.846   1.458   2.276  1.8239 -1.3610 -1.2026
 6308TIP3    H240416   5.784   1.524   2.155  0.5301  1.1462  0.7360
 6309TIP3   OH240417   6.741   0.243   3.694 -0.0840  0.1555 -0.7153
 6309TIP3    H140418   6.685   0.207   3.764  2.2275 -1.4941  0.4259
 6309TIP3    H240419   6.728   0.183   3.620  0.7625 -0.7730 -0.1487
 6310TIP3   OH240420   3.415   2.972   0.021  0.1853 -0.2927 -0.1830
 6310TIP3    H140421   3.429   2.978   0.116 -1.1123  1.1590 -0.0627
 6310TIP3    H240422   3.493   3.013  -0.017  1.0513 -1.5082  0.2021
 6311TIP3   OH240423   0.935   0.867  13.384 -0.9273  0.1305  0.4279
 6311TIP3    H140424   0.979   0.939  13.338  4.1499  0.4183  4.7126
 6311TIP3    H240425   0.860   0.907  13.427  0.4653  2.4336  0.8759
 6312TIP3   OH240426   5.630   1.524   0.664  0.5111  0.3064  0.2786
 6312TIP3    H140427   5.555   1.523   0.722 -0.9552  0.9274 -1.4989
 6312TIP3    H240428   5.593   1.513   0.576  2.4841  0.7486 -0.6787
 6313TIP3   OH240429   4.484   6.434  14.269  0.1150 -0.4298  0.0229
 6313TIP3    H140430   4.422   6.484  14.215 -0.8404 -2.4622 -0.8504
 6313TIP3    H240431   4.529   6.376  14.208  1.0486 -0.8023  1.0274
 6314TIP3   OH240432   1.639   1.731   3.879  0.4505  0.0194 -0.0353
 6314TIP3    H140433   1.630   1.746   3.784  0.5937 -0.5280 -0.1369
 6314TIP3    H240434   1.586   1.654   3.896  0.1053  0.3516  0.4077
 6315TIP3   OH240435   2.268   4.228  16.395 -0.0320 -0.5307  0.0250
 6315TIP3    H140436   2.188   4.273  16.421 -1.1155 -2.6515  0.5817
 6315TIP3    H240437   2.299   4.185  16.474 -1.1367 -3.7438 -1.1246
 6316TIP3   OH240438   0.869   5.662  17.183 -0.6709  1.0181 -0.1596
 6316TIP3    H140439   0.903   5.573  17.195 -0.6150  1.1457  0.6239
 6316TIP3    H240440   0.824   5.682  17.265 -0.3926  1.8490 -0.2039
 6317TIP3   OH240441   3.102   1.776   0.075 -0.1929 -0.3242  0.4331
 6317TIP3    H140442   3.122   1.719   0.000  0.5483  0.6651 -0.1453
 6317TIP3    H240443   3.065   1.855   0.035  1.1702  0.6389  1.0182
 6318TIP3   OH240444   4.668   0.071   0.875  0.2922  0.1851 -0.0512
 6318TIP3    H140445   4.675  -0.025   0.877  1.4274  0.2620  1.9592
 6318TIP3    H240446   4.573   0.087   0.871  0.0832 -0.9328 -4.0240
 6319TIP3   OH240447   6.533   5.684  16.202 -0.2342  0.3473 -0.5933
 6319TIP3    H140448   6.483   5.605  16.224 -0.2818  0.7988  1.0144
 6319TIP3    H240449   6.468   5.755  16.205  0.5001  1.0086  1.9711
 6320TIP3   OH240450   1.000   4.764  16.920  0.1576 -0.6945 -0.3334
 6320TIP3    H140451   0.931   4.719  16.970  1.0407 -0.6976  0.9008
 6320TIP3    H240452   0.954   4.835  16.875 -0.4272  0.3303  1.7651
 6321TIP3   OH240453   4.014   2.438  15.876  0.4408  0.0461  0.4186
 6321TIP3    H140454   3.939   2.494  15.860  0.9011  0.2453 -1.2164
 6321TIP3    H240455   4.088   2.486  15.839  1.1224 -0.8237  0.6277
 6322TIP3   OH240456   4.195   2.026  13.830 -0.4321 -0.2395 -0.8260
 6322TIP3    H140457   4.168   2.109  13.869 -0.8823 -0.0782 -1.4572
 6322TIP3    H240458   4.284   2.042  13.799 -0.3155 -0.1660 -0.4503
 6323TIP3   OH240459   1.433   4.605   5.686  0.0843 -0.4826  0.3310
 6323TIP3    H140460   1.515   4.560   5.707 -0.3061 -0.4959  1.9807
 6323TIP3    H240461   1.418   4.587   5.593  1.7980 -0.7030  0.0719
 6324TIP3   OH240462   1.812   2.560   1.318 -0.4802 -0.2148  0.0892
 6324TIP3    H140463   1.769   2.582   1.401 -2.0624  0.6244 -0.8994
 6324TIP3    H240464   1.903   2.540   1.342 -1.2549 -1.5084  2.1933
 6325TIP3   OH240465   4.536   5.280   3.312 -0.2303 -0.5927  0.7888
 6325TIP3    H140466   4.575   5.293   3.225  0.6601  0.7902  1.3551
 6325TIP3    H240467   4.445   5.258   3.294  0.4001 -2.3384 -0.5340
 6326TIP3   OH240468   4.775   4.931  12.323 -0.4598 -0.0302  0.2006
 6326TIP3    H140469   4.838   4.976  12.379  0.9210  0.3019 -1.5315
 6326TIP3    H240470   4.759   4.847  12.367  0.0302  0.5086  1.4327
 6327TIP3   OH240471   3.528   0.087   1.084 -0.1884 -0.2926 -0.2485
 6327TIP3    H140472   3.564   0.031   1.015  1.3912  0.1713  0.1606
 6327TIP3    H240473   3.597   0.151   1.102 -1.1251  0.4654  0.7760
 6328TIP3   OH240474   3.324   1.463  13.162  0.0510 -0.1843  0.3416
 6328TIP3    H140475   3.319   1.390  13.223 -0.3756  0.0094  0.5382
 6328TIP3    H240476   3.351   1.423  13.079 -1.7180 -0.8101  0.0327
 6329TIP3   OH240477   4.848   1.875   1.799 -0.1710 -0.2433  0.1410
 6329TIP3    H140478   4.840   1.967   1.774  0.0164 -0.1644  0.3660
 6329TIP3    H240479   4.799   1.827   1.732  0.9910 -0.1025 -0.8617
 6330TIP3   OH240480   5.238   5.791  10.670 -0.0428  0.6386 -0.0469
 6330TIP3    H140481   5.330   5.816  10.671  1.2209 -3.2490 -0.9151
 6330TIP3    H240482   5.222   5.762  10.580 -2.2490  1.4599  0.0093
 6331TIP3   OH240483   2.044   2.155  12.287 -0.4828 -0.5771 -0.1820
 6331TIP3    H140484   1.989   2.152  12.365 -2.3618 -2.1937 -1.4813
 6331TIP3    H240485   2.102   2.080  12.296 -1.7000 -1.6561 -0.9678
 6332TIP3   OH240486   3.877   5.811   4.875 -0.6296  0.3470 -0.4484
 6332TIP3    H140487   3.830   5.736   4.841 -0.9166 -0.1777  1.0460
 6332TIP3    H240488   3.954   5.820   4.818 -2.0134  0.6547 -2.3413
 6333TIP3   OH240489   2.886   5.415   1.387 -0.8890 -0.5297  0.2239
 6333TIP3    H140490   2.844   5.330   1.377  0.0914 -0.9781 -0.2448
 6333TIP3    H240491   2.827   5.476   1.342 -1.8981 -0.8463  1.0821
 6334TIP3   OH240492   2.566   4.694   4.480 -0.8795  0.1393  0.6303
 6334TIP3    H140493   2.472   4.711   4.488 -0.7703  1.4345 -0.4548
 6334TIP3    H240494   2.582   4.696   4.385  0.2972  0.3235  0.8259
 6335TIP3   OH240495   3.752   3.614   1.236 -0.0657  0.7608  0.3980
 6335TIP3    H140496   3.769   3.619   1.142 -1.3280 -1.4590 -0.0322
 6335TIP3    H240497   3.829   3.568   1.272 -0.0596  0.6698  0.2695
 6336TIP3   OH240498   0.653   4.150   5.745  0.0622 -0.1105  0.3427
 6336TIP3    H140499   0.707   4.160   5.667 -1.1128  0.8805 -0.3764
 6336TIP3    H240500   0.647   4.238   5.782 -0.4859 -0.3328  0.7987
 6337TIP3   OH240501   5.523   4.206   1.951  0.1772  0.0142 -0.4172
 6337TIP3    H140502   5.443   4.208   2.004  0.4683 -3.1596  0.3091
 6337TIP3    H240503   5.590   4.245   2.008 -0.1725 -0.4595  0.3439
 6338TIP3   OH240504   5.009   5.582   0.484  0.0473  0.2040  0.4321
 6338TIP3    H140505   5.010   5.507   0.425  0.8883  0.1658  0.4859
 6338TIP3    H240506   4.940   5.562   0.547  0.3751 -0.5995  0.5434
 6339TIP3   OH240507   5.454   5.968   1.722  0.4110  0.7617 -0.5634
 6339TIP3    H140508   5.458   6.064   1.719  0.1994  0.9007  2.0515
 6339TIP3    H240509   5.361   5.948   1.725  0.4791  0.5192 -0.0730
 6340TIP3   OH240510   6.808   1.442  15.704 -0.3200 -0.1168 -0.3572
 6340TIP3    H140511   6.827   1.420  15.795  1.1430 -0.1282 -0.6485
 6340TIP3    H240512   6.893   1.457  15.664 -0.9862  0.8833 -1.4876
 6341TIP3   OH240513   3.746   2.810  12.301  0.5340  0.5595  0.1886
 6341TIP3    H140514   3.665   2.862  12.306  1.3562  1.8610  0.3004
 6341TIP3    H240515   3.715   2.720  12.289 -0.9377  1.2271 -1.5688
 6342TIP3   OH240516   1.593   4.066  13.452 -0.6270  0.6082 -0.1624
 6342TIP3    H140517   1.562   4.076  13.542  0.2482  1.7450  0.0381
 6342TIP3    H240518   1.563   4.146  13.408  2.7405  2.3081  0.3006
 6343TIP3   OH240519   2.760   5.116  14.828 -0.5777  0.2122 -0.1224
 6343TIP3    H140520   2.723   5.044  14.777  0.8693 -0.9264  0.3821
 6343TIP3    H240521   2.832   5.077  14.876  0.6371  2.1275 -0.2762
 6344TIP3   OH240522   6.061   3.552   3.987  0.3646 -0.0323 -0.5773
 6344TIP3    H140523   6.078   3.621   4.050 -0.0031  0.4771 -1.0247
 6344TIP3    H240524   6.147   3.521   3.962  0.5101 -0.2999  0.2351
 6345TIP3   OH240525   1.857   4.365   4.734 -0.2000  0.2819  0.5276
 6345TIP3    H140526   1.941   4.358   4.780  0.0416  2.4483  0.5305
 6345TIP3    H240527   1.837   4.276   4.705  1.3026 -0.5453  1.9148
 6346TIP3   OH240528   4.215   4.232  16.944  0.0355  0.5083 -0.2614
 6346TIP3    H140529   4.227   4.277  17.028 -1.2266  1.8195 -0.7415
 6346TIP3    H240530   4.286   4.264  16.889 -0.5670  1.5841 -0.4417
 6347TIP3   OH240531   6.815   5.916  13.455 -0.2341 -0.6017 -0.4140
 6347TIP3    H140532   6.765   5.951  13.529  0.3072 -3.5640  1.5426
 6347TIP3    H240533   6.751   5.866  13.404 -0.2806  0.0736 -1.0315
 6348TIP3   OH240534   5.794   4.912  17.090  0.1169 -0.1020 -0.5882
 6348TIP3    H140535   5.824   4.999  17.063 -2.3618  1.3220  0.8291
 6348TIP3    H240536   5.840   4.895  17.173  2.4326 -1.3483 -2.0054
 6349TIP3   OH240537   1.895   6.002  16.012 -0.1054  0.1754 -0.1370
 6349TIP3    H140538   1.959   5.966  15.952  0.1189  0.8866 -0.3362
 6349TIP3    H240539   1.815   6.011  15.961 -0.0529  0.3220 -0.1930
 6350TIP3   OH240540   5.726   0.601  11.302  0.1827 -0.5260  0.1745
 6350TIP3    H140541   5.714   0.696  11.295 -0.6614 -0.6652 -0.6137
 6350TIP3    H240542   5.804   0.583  11.250  0.2186 -0.2820  0.1413
 6351TIP3   OH240543   2.873   6.072  14.035  0.4429 -0.3426  0.3677
 6351TIP3    H140544   2.944   6.099  14.094  1.0993  0.3726 -0.7078
 6351TIP3    H240545   2.796   6.067  14.091  0.9560  0.7718  1.2108
 6352TIP3   OH240546   4.005   2.385  11.772  0.8976  0.1383 -0.2223
 6352TIP3    H140547   3.926   2.402  11.721  0.1777 -0.8537  0.5237
 6352TIP3    H240548   4.077   2.395  11.709  0.1177  0.0344 -1.1507
 6353TIP3   OH240549   6.458   5.862  16.938  0.5136 -0.2786  0.7167
 6353TIP3    H140550   6.398   5.883  17.009 -2.3044 -0.8273 -1.3154
 6353TIP3    H240551   6.445   5.932  16.874 -0.0963 -1.8483 -0.9684
 6354TIP3   OH240552   1.140   6.636  12.454  0.1570 -0.2557  0.0880
 6354TIP3    H140553   1.221   6.615  12.501  0.8390 -1.2541 -1.4757
 6354TIP3    H240554   1.153   6.726  12.424  1.2528 -0.8008 -1.1933
 6355TIP3   OH240555   6.814   3.457   4.940  0.0570 -0.3242 -0.1487
 6355TIP3    H140556   6.863   3.495   4.866  1.4002 -1.2270  0.2453
 6355TIP3    H240557   6.856   3.493   5.017 -1.2200  0.4588  0.2091
 6356TIP3   OH240558   1.798   4.550  14.392  0.0687 -0.9279  0.3872
 6356TIP3    H140559   1.775   4.559  14.484  0.5394 -0.2348  0.4446
 6356TIP3    H240560   1.750   4.619  14.347 -0.7879 -1.7637 -0.0133
 6357TIP3   OH240561   3.421   5.421   4.499 -0.5625  0.1929 -0.4274
 6357TIP3    H140562   3.334   5.413   4.540 -0.1780 -0.1983  0.3261
 6357TIP3    H240563   3.417   5.505   4.452 -1.4135  0.0889 -0.5596
 6358TIP3   OH240564   4.912   6.562  12.122  0.4491 -0.6585  0.2624
 6358TIP3    H140565   4.858   6.485  12.141  0.4837 -0.6515  0.3885
 6358TIP3    H240566   4.848   6.629  12.097  0.4917 -1.0268 -0.8712
 6359TIP3   OH240567   0.904   0.459   1.303  0.3098 -0.5238  0.1282
 6359TIP3    H140568   0.839   0.500   1.245 -0.6880 -0.2203  1.4199
 6359TIP3    H240569   0.859   0.451   1.387  1.9083 -0.4588  1.0145
 6360TIP3   OH240570   1.825   0.985   2.095 -0.9059 -0.2881  0.1146
 6360TIP3    H140571   1.815   0.937   2.012 -0.6012 -1.0102  0.4836
 6360TIP3    H240572   1.735   1.005   2.121 -1.0591 -0.9137  0.0885
 6361TIP3   OH240573   0.241   6.248  10.561  0.2142 -0.2797  0.3849
 6361TIP3    H140574   0.291   6.267  10.641  0.3903 -1.3955  0.5577
 6361TIP3    H240575   0.193   6.169  10.582  0.6534 -0.8808 -0.7903
 6362TIP3   OH240576   4.768   6.774   1.187  0.4753  0.2418 -0.3210
 6362TIP3    H140577   4.820   6.693   1.189 -0.3934 -0.3176  1.3590
 6362TIP3    H240578   4.822   6.836   1.137  0.8587 -1.5360 -2.2608
 6363TIP3   OH240579   6.110   2.412  10.659 -0.5042 -0.4334  0.1021
 6363TIP3    H140580   6.159   2.430  10.579 -1.1255  0.9262  0.0043
 6363TIP3    H240581   6.118   2.492  10.711 -1.8587 -0.5014  0.4618
 6364TIP3   OH240582   4.692   4.668   5.315 -0.1206  0.0493 -0.0607
 6364TIP3    H140583   4.607   4.629   5.338 -0.2054  0.7002  0.7591
 6364TIP3    H240584   4.716   4.624   5.234 -2.1888  1.2766 -1.4293
 6365TIP3   OH240585   6.775   3.442  14.294 -0.2773  0.7267  0.5056
 6365TIP3    H140586   6.702   3.384  14.272 -0.4416  0.9632  0.4228
 6365TIP3    H240587   6.802   3.415  14.382 -0.2420  0.4130  0.3987
 6366TIP3   OH240588   5.310   2.873  14.036  0.1927 -0.2682 -0.0973
 6366TIP3    H140589   5.308   2.927  14.116  2.5580  0.9384 -0.7646
 6366TIP3    H240590   5.248   2.916  13.977  0.4149  0.4367  0.1669
 6367TIP3   OH240591   0.112   6.545   0.744  0.1113  0.2697  0.1981
 6367TIP3    H140592   0.198   6.570   0.777  0.2835 -1.1321  0.8897
 6367TIP3    H240593   0.084   6.620   0.691  1.0477  1.4213  1.2591
 6368TIP3   OH240594   0.040   3.716   5.885 -0.0744  0.9072  0.3307
 6368TIP3    H140595  -0.021   3.657   5.841  2.1580 -2.4721  1.4144
 6368TIP3    H240596   0.033   3.693   5.978  1.6286  1.5968  0.6661
 6369TIP3   OH240597   0.984   0.236   3.546  0.2493 -0.7036  0.2149
 6369TIP3    H140598   0.932   0.180   3.605  0.8743 -3.3532 -1.5524
 6369TIP3    H240599   1.063   0.256   3.595 -0.6591  0.0129  1.4590
 6370TIP3   OH240600   2.869   2.470  16.492  0.3209 -0.2140  0.6307
 6370TIP3    H140601   2.820   2.519  16.557  1.0133  0.5701  0.5795
 6370TIP3    H240602   2.936   2.531  16.461  1.7784 -1.4413  1.2030
 6371TIP3   OH240603   1.737   1.414  13.440  0.0955 -0.4190 -0.0880
 6371TIP3    H140604   1.779   1.500  13.442 -0.3344 -0.1675 -1.2595
 6371TIP3    H240605   1.643   1.433  13.451  0.0155 -0.7380 -0.2099
 6372TIP3   OH240606   1.409   6.680  15.277  0.2762  0.1480 -0.2413
 6372TIP3    H140607   1.351   6.640  15.212 -0.3026  1.1897 -0.3822
 6372TIP3    H240608   1.492   6.633  15.268 -0.6439 -1.6600  0.2478
 6373TIP3   OH240609   4.561   3.597  11.603  0.0934 -0.4260 -0.2499
 6373TIP3    H140610   4.628   3.540  11.643 -0.0785 -1.0483 -0.8265
 6373TIP3    H240611   4.478   3.567  11.642  0.0378 -0.3622 -0.3190
 6374TIP3   OH240612   3.298   1.695   4.360  0.4446 -0.7235  0.6271
 6374TIP3    H140613   3.339   1.698   4.273  0.3692  1.7323  0.6013
 6374TIP3    H240614   3.204   1.698   4.342  0.4278 -0.2956  0.7667
 6375TIP3   OH240615   6.261   3.622   2.113  0.3783 -0.0550 -0.3081
 6375TIP3    H140616   6.228   3.647   2.026  0.2866 -0.4425 -0.3914
 6375TIP3    H240617   6.191   3.647   2.173 -0.7073 -2.0759 -0.6222
 6376TIP3   OH240618   0.130   4.823  13.254  0.3872 -0.0817 -0.3472
 6376TIP3    H140619   0.195   4.753  13.247  1.1328  0.5496  0.0004
 6376TIP3    H240620   0.117   4.852  13.164 -1.2262 -1.7773 -0.7204
 6377TIP3   OH240621   0.624   5.977   3.380  0.3398 -0.2717  0.4045
 6377TIP3    H140622   0.576   6.050   3.340  1.2844 -0.4158 -1.0682
 6377TIP3    H240623   0.556   5.925   3.424 -0.6970  0.1726 -0.6158
 6378TIP3   OH240624   4.255   1.545  14.954  0.2436 -0.2923 -0.4339
 6378TIP3    H140625   4.192   1.496  14.901 -0.7145  0.9155 -0.4655
 6378TIP3    H240626   4.267   1.628  14.907 -0.0911  0.5193  0.8510
 6379TIP3   OH240627   2.982   5.124  10.980 -0.2611  0.2229 -0.7965
 6379TIP3    H140628   2.939   5.060  10.923  1.9119 -0.7959 -1.4033
 6379TIP3    H240629   3.026   5.184  10.919  1.1834 -0.2418 -0.2633
 6380TIP3   OH240630   1.423   1.840  14.274  0.3167 -0.0569  0.0829
 6380TIP3    H140631   1.458   1.822  14.361  1.1360 -0.9421 -0.4214
 6380TIP3    H240632   1.369   1.919  14.286  1.3894  0.5481  1.1431
 6381TIP3   OH240633   0.138   6.281  13.133 -0.0589  0.6285  0.1270
 6381TIP3    H140634   0.165   6.277  13.041  0.5669 -0.4920  0.3365
 6381TIP3    H240635   0.131   6.190  13.159  0.5426  0.9328  1.4077
 6382TIP3   OH240636   0.013   1.380  12.485  0.2119  0.2893  0.6248
 6382TIP3    H140637   0.008   1.452  12.548 -0.8382 -2.3396  3.7725
 6382TIP3    H240638   0.098   1.340  12.501  0.1404 -0.1232  0.0030
 6383TIP3   OH240639   0.327   4.025   0.760 -0.0557 -0.0214 -0.2957
 6383TIP3    H140640   0.268   3.950   0.768  0.5640 -0.4632  0.2681
 6383TIP3    H240641   0.408   3.996   0.803  0.8635  0.2714 -1.7611
 6384TIP3   OH240642   1.956   4.193  11.950 -0.3795 -0.3706 -0.2136
 6384TIP3    H140643   1.864   4.188  11.923 -0.4406 -0.2658 -0.0253
 6384TIP3    H240644   2.001   4.132  11.892 -0.4953 -0.0781 -0.6196
 6385TIP3   OH240645   2.266   4.104   2.227  0.0874 -0.0996  0.1435
 6385TIP3    H140646   2.236   4.133   2.313  0.2828  0.6385 -0.0277
 6385TIP3    H240647   2.342   4.160   2.208 -0.5212  0.4070 -0.9173
 6386TIP3   OH240648   2.310   6.162  12.818  0.2527  0.0349 -0.2726
 6386TIP3    H140649   2.248   6.146  12.748 -1.1923 -0.4041  1.0642
 6386TIP3    H240650   2.364   6.083  12.821 -0.9286 -0.7754  0.3383
 6387TIP3   OH240651   0.478   1.984   3.406  0.2180 -0.5043 -0.2174
 6387TIP3    H140652   0.467   1.983   3.310 -0.7161 -1.7211 -0.1338
 6387TIP3    H240653   0.404   2.036   3.437  0.8576  0.4002 -0.1658
 6388TIP3   OH240654   0.757   3.521   1.521 -0.3227 -0.5869  0.5311
 6388TIP3    H140655   0.693   3.507   1.452  0.1749  2.3086 -0.6694
 6388TIP3    H240656   0.712   3.575   1.586  0.6674  1.1126 -0.1173
 6389TIP3   OH240657   0.841   3.042  10.843  0.2716 -0.1452  0.3819
 6389TIP3    H140658   0.931   3.076  10.837  0.5924 -0.9867  0.2367
 6389TIP3    H240659   0.795   3.106  10.898  0.9747  0.2621  0.5176
 6390TIP3   OH240660   4.458   4.979   3.371  0.3635  0.5653  0.1581
 6390TIP3    H140661   4.441   5.059   3.321 -1.6573 -0.2050 -0.4783
 6390TIP3    H240662   4.386   4.973   3.433  0.5363 -0.7217  0.2622
 6391TIP3   OH240663   2.054   1.461   5.967  0.0658  0.2800 -0.1104
 6391TIP3    H140664   2.105   1.528   5.922 -0.6429  0.2384 -1.0134
 6391TIP3    H240665   1.994   1.509   6.023 -0.1820  0.3991 -0.4717
 6392TIP3   OH240666   0.749   5.495   3.896 -0.0166  0.7370 -0.1385
 6392TIP3    H140667   0.659   5.525   3.909  0.0869  1.2341 -0.4948
 6392TIP3    H240668   0.771   5.447   3.975 -0.7571  0.2064 -0.2487
 6393TIP3   OH240669   5.221   2.393   5.036  0.2472  0.6601  0.2896
 6393TIP3    H140670   5.271   2.417   5.114 -0.4847 -0.4793  1.1330
 6393TIP3    H240671   5.137   2.437   5.046 -0.0523  0.0610  0.4243
 6394TIP3   OH240672   0.471   5.453   3.940 -0.0852  0.0091 -0.5018
 6394TIP3    H140673   0.404   5.519   3.923  0.9396  1.3597  0.5003
 6394TIP3    H240674   0.485   5.457   4.035 -0.3910 -2.0663 -0.3310
 6395TIP3   OH240675   2.876   6.115   1.315  0.4272 -0.0194  0.1358
 6395TIP3    H140676   2.789   6.151   1.332  0.4169 -0.3081  0.7268
 6395TIP3    H240677   2.863   6.020   1.314  0.3333 -0.0325 -2.0589
 6396TIP3   OH240678   3.796   5.041  15.123  0.3434 -0.4830  0.1192
 6396TIP3    H140679   3.814   5.129  15.154 -2.2731  0.5799 -1.1020
 6396TIP3    H240680   3.855   5.029  15.048  1.4281 -0.2198  0.9039
 6397TIP3   OH240681   1.322   0.888  14.323  0.2485 -0.1489  0.1445
 6397TIP3    H140682   1.307   0.875  14.230 -2.0722  0.8403  0.3174
 6397TIP3    H240683   1.402   0.941  14.327  0.3211 -0.1177 -1.2730
 6398TIP3   OH240684   6.578   4.111  12.541  0.3267 -0.2211  0.0786
 6398TIP3    H140685   6.531   4.194  12.532  1.0962  0.0327 -2.6413
 6398TIP3    H240686   6.510   4.048  12.565 -0.3379  1.0837  1.8167
 6399TIP3   OH240687   2.011   0.842  12.124 -0.4276 -0.3448 -0.1493
 6399TIP3    H140688   2.087   0.785  12.113  1.1387  1.1746  1.8665
 6399TIP3    H240689   1.987   0.867  12.035  1.5455 -0.7559 -0.8668
 6400TIP3   OH240690   6.624   5.737   5.605 -0.7746  0.0384 -0.2971
 6400TIP3    H140691   6.634   5.821   5.560  0.4652 -0.1296 -0.3728
 6400TIP3    H240692   6.699   5.685   5.574 -1.6663 -1.1842 -0.4446
 6401TIP3   OH240693   3.409   6.645  16.512 -0.0220 -0.0965  0.2044
 6401TIP3    H140694   3.362   6.564  16.495  1.0545 -1.0744  1.6667
 6401TIP3    H240695   3.496   6.631  16.474 -0.7371  1.6533 -2.3946
 6402TIP3   OH240696   4.439   5.427   1.937  0.4355  0.2494  0.4077
 6402TIP3    H140697   4.499   5.361   1.903  0.1419 -0.0551  0.4716
 6402TIP3    H240698   4.394   5.383   2.009 -0.4352  0.2030 -0.1437
 6403TIP3   OH240699   0.664   6.577   5.686  0.5960 -0.2724 -1.0534
 6403TIP3    H140700   0.630   6.642   5.748  0.0739 -0.5966 -0.9954
 6403TIP3    H240701   0.601   6.505   5.691  0.3241 -0.1311 -2.2584
 6404TIP3   OH240702   1.756   0.739  11.672 -0.8323 -1.3462 -1.1053
 6404TIP3    H140703   1.851   0.726  11.676 -0.3342  1.5438 -1.5550
 6404TIP3    H240704   1.728   0.746  11.763 -0.0825  0.7425 -1.0012
 6405TIP3   OH240705   5.827   1.400  13.613  0.0766  0.3097  0.1150
 6405TIP3    H140706   5.827   1.467  13.545 -0.4553  0.5125  0.3158
 6405TIP3    H240707   5.752   1.345  13.593 -0.8315  1.0964  1.2462
 6406TIP3   OH240708   4.398   5.062   4.014 -0.2130 -0.1052 -0.8950
 6406TIP3    H140709   4.479   5.046   3.964 -0.2582 -2.6565 -0.2811
 6406TIP3    H240710   4.337   4.997   3.982 -1.3184  0.3485  0.2120
 6407TIP3   OH240711   5.348   5.128   5.342  0.4801  0.2755  0.0450
 6407TIP3    H140712   5.384   5.215   5.357 -1.6202  1.3516 -0.6514
 6407TIP3    H240713   5.318   5.098   5.428  0.2536  0.7245  0.1247
 6408TIP3   OH240714   4.245   5.394   4.716  0.0379 -0.0778 -0.2693
 6408TIP3    H140715   4.249   5.377   4.622 -0.9556  0.8399 -0.4937
 6408TIP3    H240716   4.215   5.311   4.754  2.0725 -1.0063 -0.5273
 6409TIP3   OH240717   2.280   4.894   2.429 -0.0355  0.0480 -0.0212
 6409TIP3    H140718   2.330   4.939   2.361 -2.6648  1.0787 -1.4497
 6409TIP3    H240719   2.249   4.965   2.486 -1.8535 -0.1668 -0.6483
 6410TIP3   OH240720   2.414   3.008   3.070  0.4400  0.3163  0.0324
 6410TIP3    H140721   2.332   2.966   3.094  1.0120 -1.3120 -0.7093
 6410TIP3    H240722   2.403   3.099   3.096 -1.3177 -0.0216  0.5974
 6411TIP3   OH240723   6.644   5.316   2.675  0.1668 -0.8123 -0.1343
 6411TIP3    H140724   6.686   5.394   2.638  0.1563 -1.0917 -0.7432
 6411TIP3    H240725   6.715   5.252   2.684 -0.0874 -1.2269 -1.0032
 6412TIP3   OH240726   0.214   0.626   2.292  0.6541 -0.1548 -0.5794
 6412TIP3    H140727   0.198   0.616   2.386  2.3227 -1.4164 -0.3771
 6412TIP3    H240728   0.131   0.604   2.251  0.2976 -1.0024  0.5530
 6413TIP3   OH240729   3.421   0.385  11.718  0.5662  0.0373 -0.0560
 6413TIP3    H140730   3.494   0.360  11.774 -0.4930 -1.0822  0.8984
 6413TIP3    H240731   3.444   0.351  11.631  1.2123 -0.1959  0.2037
 6414TIP3   OH240732   3.090   5.399   4.921  0.1301 -0.0447  0.2083
 6414TIP3    H140733   3.061   5.382   5.010 -2.0706  1.1065 -0.2212
 6414TIP3    H240734   3.108   5.493   4.918 -1.4687  0.2797 -0.9238
 6415TIP3   OH240735   5.887   6.190  13.648 -0.2312  0.3474  0.0129
 6415TIP3    H140736   5.948   6.181  13.721 -0.8854  0.5374  0.5949
 6415TIP3    H240737   5.822   6.253  13.679 -0.0866  1.0380 -1.0310
 6416TIP3   OH240738   4.837   4.642   0.601  0.7896  0.1880 -0.3443
 6416TIP3    H140739   4.842   4.548   0.622  1.0669  0.2034 -0.3396
 6416TIP3    H240740   4.923   4.663   0.566  0.8192  0.5083 -0.0769
 6417TIP3   OH240741   4.009   4.800  15.896 -0.2108 -0.8257  0.1230
 6417TIP3    H140742   4.044   4.813  15.808  1.7417  0.9198  1.0738
 6417TIP3    H240743   3.942   4.868  15.906  1.8050  1.1441  1.0146
 6418TIP3   OH240744   4.750   1.805   6.339 -0.7852 -0.2087 -0.4090
 6418TIP3    H140745   4.742   1.716   6.372 -0.4286 -0.5657 -1.2597
 6418TIP3    H240746   4.742   1.860   6.417 -2.0165 -0.9292  0.0035
 6419TIP3   OH240747   1.823   6.039   4.444  0.3616 -0.2027  0.0822
 6419TIP3    H140748   1.778   6.002   4.520  2.0355  1.0579  1.7719
 6419TIP3    H240749   1.825   5.968   4.380 -0.9705 -1.3492  1.2510
 6420TIP3   OH240750   6.494   4.751   1.797 -0.1670 -0.3393  0.1073
 6420TIP3    H140751   6.524   4.698   1.723 -0.1199 -0.1665  0.0021
 6420TIP3    H240752   6.512   4.841   1.771  2.9029 -0.3726  1.6680
 6421TIP3   OH240753   4.113   1.659   1.879  0.1323 -0.1571  0.0136
 6421TIP3    H140754   4.037   1.629   1.829 -0.6278  0.2689  0.8754
 6421TIP3    H240755   4.130   1.588   1.941 -1.3809  0.9113  1.7440
 6422TIP3   OH240756   4.646   6.198   4.642 -0.2464  0.2587  0.6529
 6422TIP3    H140757   4.590   6.140   4.591 -0.7743  0.6495  0.7778
 6422TIP3    H240758   4.686   6.140   4.707  0.7782 -0.3236 -0.4600
 6423TIP3   OH240759   5.327   2.324  15.946  0.5960 -0.1364  0.2805
 6423TIP3    H140760   5.333   2.414  15.979  0.6783 -0.9105  2.5151
 6423TIP3    H240761   5.407   2.312  15.895  0.0833  1.3612 -0.9718
 6424TIP3   OH240762   2.202   4.798   4.218 -0.0621 -0.1751  0.7018
 6424TIP3    H140763   2.216   4.880   4.171 -0.2032  1.3924  3.2016
 6424TIP3    H240764   2.245   4.732   4.164  0.7009  1.6411 -1.0370
 6425TIP3   OH240765   6.552   1.632   1.068 -0.2268 -0.2984 -0.4831
 6425TIP3    H140766   6.474   1.594   1.109  1.0357 -1.2913  1.0941
 6425TIP3    H240767   6.569   1.711   1.119 -0.4910  0.2194 -1.1795
 6426TIP3   OH240768   3.517   3.995  12.646 -0.0214 -0.4022 -0.5657
 6426TIP3    H140769   3.422   3.985  12.638 -0.2137  1.4522 -0.9830
 6426TIP3    H240770   3.552   3.974  12.560  0.0901 -2.1323 -0.1375
 6427TIP3   OH240771   4.068   2.891  16.462  0.1902  0.3983 -0.3019
 6427TIP3    H140772   4.091   2.982  16.442  0.8113  0.4176  0.4836
 6427TIP3    H240773   4.000   2.869  16.398  0.7768  1.0770 -1.1790
 6428TIP3   OH240774   4.978   1.291   1.097 -0.0034  0.1438  0.1758
 6428TIP3    H140775   4.995   1.337   1.179 -0.5991 -2.8131  2.1261
 6428TIP3    H240776   4.935   1.356   1.041  3.2650  3.1964  0.8951
 6429TIP3   OH240777   0.529   4.640  11.858 -0.0439 -0.3703  0.0970
 6429TIP3    H140778   0.603   4.688  11.893 -0.4577  0.5339 -0.2325
 6429TIP3    H240779   0.460   4.706  11.846 -0.7360 -1.0964 -0.0645
 6430TIP3   OH240780   6.311   0.285  15.922 -0.2015  0.2605 -0.3931
 6430TIP3    H140781   6.236   0.340  15.944 -0.6036  0.1830 -1.4833
 6430TIP3    H240782   6.275   0.216  15.867  0.8037  0.7904 -1.7937
 6431TIP3   OH240783   4.168   2.719  11.350  0.2617  0.4608  0.3281
 6431TIP3    H140784   4.147   2.757  11.435 -0.5181  0.5525  0.1087
 6431TIP3    H240785   4.254   2.755  11.327  0.8488 -0.1920  1.4325
 6432TIP3   OH240786   2.318   1.337   4.755  0.0865 -0.0575 -0.0212
 6432TIP3    H140787   2.330   1.243   4.768  0.3029 -0.4838 -2.8240
 6432TIP3    H240788   2.341   1.376   4.840 -0.3801 -2.5186  1.3229
 6433TIP3   OH240789   6.143   5.142   2.100 -0.4172  0.1737 -0.3159
 6433TIP3    H140790   6.208   5.160   2.169 -1.0726  0.7693  0.1640
 6433TIP3    H240791   6.193   5.098   2.031  0.4971  0.6108  0.0449
 6434TIP3   OH240792   3.395   2.341  15.903 -0.1924 -0.0547  0.1437
 6434TIP3    H140793   3.328   2.277  15.879 -0.1457 -0.9586  2.2174
 6434TIP3    H240794   3.345   2.419  15.926 -0.2164  1.1385 -3.3007
 6435TIP3   OH240795   5.559   1.658  16.775  0.0279  0.2601  0.0705
 6435TIP3    H140796   5.614   1.685  16.848  0.4524 -0.7594  0.1435
 6435TIP3    H240797   5.471   1.689  16.798  0.3427  0.8359  0.5159
 6436TIP3   OH240798   1.339   0.014   0.040 -0.9712  0.0707  0.4518
 6436TIP3    H140799   1.287   0.047  -0.034  0.2877  2.1954  0.4366
 6436TIP3    H240800   1.288   0.038   0.117 -0.7202  0.8732  0.3789
 6437TIP3   OH240801   6.090   2.533   0.546  0.0762  0.4705 -0.1477
 6437TIP3    H140802   6.137   2.598   0.493  0.2621  0.1919 -0.3227
 6437TIP3    H240803   6.068   2.463   0.484 -0.9276  0.7829 -0.1606
 6438TIP3   OH240804   4.004   1.163  15.646 -0.3359 -0.4644 -0.6432
 6438TIP3    H140805   3.944   1.101  15.687  1.3408 -0.8891  1.3374
 6438TIP3    H240806   4.088   1.118  15.644  0.6126  1.2179 -0.4754
 6439TIP3   OH240807   1.151   0.620  15.796  0.6193 -0.6478  0.1244
 6439TIP3    H140808   1.236   0.582  15.819  0.8976  0.4571  1.0358
 6439TIP3    H240809   1.147   0.701  15.848 -0.8236 -0.4919 -0.2072
 6440TIP3   OH240810   5.456   3.071   3.609 -0.4197 -0.5709 -0.1533
 6440TIP3    H140811   5.395   3.095   3.679 -0.8226 -0.5538 -0.5072
 6440TIP3    H240812   5.493   2.988   3.637  1.0034  0.4331  1.1005
 6441TIP3   OH240813   3.823   2.618  15.750  0.4441  0.5313  0.6235
 6441TIP3    H140814   3.865   2.684  15.804  0.3742  0.5937  0.6012
 6441TIP3    H240815   3.820   2.657  15.663  2.0562 -0.2045  0.1878
 6442TIP3   OH240816   2.280   3.727  13.915 -0.1261 -0.1491  0.5694
 6442TIP3    H140817   2.302   3.644  13.873 -1.4227 -0.0559 -0.3806
 6442TIP3    H240818   2.361   3.757  13.954  0.5385 -1.4999  0.2846
 6443TIP3   OH240819   1.051   5.771   3.571  0.1394  0.2384  0.0939
 6443TIP3    H140820   0.969   5.724   3.591  1.2903 -2.1174 -0.3218
 6443TIP3    H240821   1.055   5.841   3.635 -0.9168 -1.2539  1.9104
 6444TIP3   OH240822   1.722   4.232  16.761 -0.5554 -0.5529 -0.0485
 6444TIP3    H140823   1.692   4.310  16.808  1.9546  0.9729 -0.8330
 6444TIP3    H240824   1.665   4.162  16.793 -1.2009  1.0699  2.6458
 6445TIP3   OH240825   1.688   3.496  12.168 -0.2067 -0.2755 -0.4609
 6445TIP3    H140826   1.684   3.522  12.076  1.4671 -0.8447 -0.7281
 6445TIP3    H240827   1.753   3.554  12.207  0.9809 -1.6828 -0.2521
 6446TIP3   OH240828   6.257   6.155   1.760  0.3608  0.2199  0.4969
 6446TIP3    H140829   6.346   6.168   1.793 -0.1829  1.7886  1.4836
 6446TIP3    H240830   6.204   6.217   1.811 -1.2213 -0.3732 -0.3744
 6447TIP3   OH240831   3.076   2.904  11.311  0.1369 -0.3874 -0.4729
 6447TIP3    H140832   2.985   2.877  11.297 -0.2730  0.7401 -0.0998
 6447TIP3    H240833   3.075   2.999  11.300  1.3101 -0.3806 -0.6398
 6448TIP3   OH240834   5.531   4.210  12.769 -0.3715  0.3034  0.1296
 6448TIP3    H140835   5.514   4.207  12.675 -0.6093 -0.0200  0.1805
 6448TIP3    H240836   5.625   4.226  12.776 -0.0018 -1.5061 -0.1776
 6449TIP3   OH240837   5.974   6.260   1.311 -0.3550  0.3523  0.0658
 6449TIP3    H140838   5.972   6.242   1.217  0.6042  0.2547  0.0471
 6449TIP3    H240839   6.008   6.180   1.350  3.0997  1.6187  0.0672
 6450TIP3   OH240840   5.109   3.764  11.697 -0.3047 -0.3440  0.2401
 6450TIP3    H140841   5.096   3.727  11.610 -0.5251  0.1890  0.0386
 6450TIP3    H240842   5.144   3.852  11.681  0.8807 -0.7017  0.7177
 6451TIP3   OH240843   0.856   3.405   2.862  0.2644 -0.1308  0.3086
 6451TIP3    H140844   0.843   3.313   2.837 -0.1669 -0.1280  0.5035
 6451TIP3    H240845   0.929   3.403   2.924 -0.0271 -0.4001  0.6484
 6452TIP3   OH240846   3.945   1.616  12.132 -0.0556  0.0379  0.1767
 6452TIP3    H140847   3.888   1.590  12.204 -1.4311  1.1670 -0.4534
 6452TIP3    H240848   4.025   1.649  12.175 -0.0803 -1.0406  1.0888
 6453TIP3   OH240849   6.774   3.584  13.537 -0.2991  0.2552 -0.2011
 6453TIP3    H140850   6.720   3.654  13.574 -0.7822  0.9506 -2.1290
 6453TIP3    H240851   6.773   3.516  13.604 -1.8058  1.1133  0.7127
 6454TIP3   OH240852   6.412   6.377  10.449  0.0702 -0.5635  0.1350
 6454TIP3    H140853   6.486   6.437  10.443 -0.6412  0.3212  0.0025
 6454TIP3    H240854   6.450   6.290  10.435  1.5249 -0.4623  2.7561
 6455TIP3   OH240855   2.020   6.547  13.354  0.0599  0.0963 -0.1458
 6455TIP3    H140856   1.951   6.513  13.298 -0.3206 -1.2360  1.0716
 6455TIP3    H240857   2.087   6.578  13.293 -1.4108  1.0705 -1.3486
 6456TIP3   OH240858   2.853   4.607   4.913 -0.0243 -0.3119  0.2276
 6456TIP3    H140859   2.939   4.634   4.879  0.6833 -1.3664  1.1240
 6456TIP3    H240860   2.790   4.658   4.861  1.1141  0.0806 -0.8199
 6457TIP3   OH240861   0.764   2.623   4.003 -0.4514  0.4868  0.2899
 6457TIP3    H140862   0.676   2.609   4.038  0.2970  0.6324  2.3775
 6457TIP3    H240863   0.799   2.695   4.056  1.3163 -0.3263  0.2922
 6458TIP3   OH240864   2.541   5.805  11.181 -0.0371 -0.2529  0.4878
 6458TIP3    H140865   2.484   5.751  11.127 -0.0616 -0.8536  1.0970
 6458TIP3    H240866   2.591   5.858  11.119 -1.2410  0.2719 -0.0622
 6459TIP3   OH240867   5.389   2.554   5.208 -0.1753 -0.3267 -0.0589
 6459TIP3    H140868   5.474   2.595   5.217 -1.3353  2.7720 -1.7668
 6459TIP3    H240869   5.339   2.584   5.284 -0.4710 -0.0675 -0.3514
 6460TIP3   OH240870   6.469   1.884   3.061 -0.1877  0.3446 -0.0356
 6460TIP3    H140871   6.516   1.840   2.990  0.2797 -0.3159  0.6699
 6460TIP3    H240872   6.427   1.813   3.109 -0.8551  0.8256  0.1034
 6461TIP3   OH240873   3.755   1.523  15.314 -0.0891  0.4740 -0.3029
 6461TIP3    H140874   3.685   1.465  15.282 -0.3721 -0.0215  1.0992
 6461TIP3    H240875   3.789   1.478  15.392  0.5532  1.5856  0.0853
 6462TIP3   OH240876   1.651   0.043   3.083  0.2914  0.2822  0.0828
 6462TIP3    H140877   1.625   0.014   2.995  0.3995 -0.0519  0.1591
 6462TIP3    H240878   1.591  -0.003   3.141 -0.5394  1.3733  0.1323
 6463TIP3   OH240879   6.719   1.391  13.903  0.0630  0.0822 -0.3758
 6463TIP3    H140880   6.719   1.464  13.965 -0.8175 -1.2410  1.2650
 6463TIP3    H240881   6.644   1.338  13.929  0.0164 -0.8310 -2.2481
 6464TIP3   OH240882   1.376   1.181  13.292 -0.3557 -0.0424  0.8154
 6464TIP3    H140883   1.283   1.181  13.273 -0.0886 -1.5902 -0.6825
 6464TIP3    H240884   1.419   1.175  13.207  1.1116  0.2057  1.4975
 6465TIP3   OH240885   3.100   1.198  16.680 -0.1070  0.1811  0.3713
 6465TIP3    H140886   3.182   1.153  16.658  0.3883  1.4117 -0.4136
 6465TIP3    H240887   3.062   1.145  16.750  1.5722 -0.1856  1.0622
 6466TIP3   OH240888   4.421   3.221  17.094 -0.3420 -0.2138  0.0991
 6466TIP3    H140889   4.395   3.144  17.042  1.3131 -0.3435 -0.5967
 6466TIP3    H240890   4.392   3.201  17.182  0.0294 -1.6490 -0.0799
 6467TIP3   OH240891   2.580   2.622   0.553 -0.1893 -0.2824  0.0062
 6467TIP3    H140892   2.577   2.570   0.472 -1.8477 -0.4541  0.1531
 6467TIP3    H240893   2.508   2.589   0.606 -0.3930  1.2094  0.7120
 6468TIP3   OH240894   0.593   0.514   5.471  0.1797 -0.2947  0.2606
 6468TIP3    H140895   0.572   0.592   5.522  0.6212  0.4519 -0.6594
 6468TIP3    H240896   0.687   0.501   5.484  0.4507  0.3295 -0.8816
 6469TIP3   OH240897   2.468   3.384  14.783  0.1893  0.2788 -0.0386
 6469TIP3    H140898   2.538   3.345  14.730  0.7756  0.5602  0.5079
 6469TIP3    H240899   2.493   3.477  14.789 -2.2428  1.2868 -3.0700
 6470TIP3   OH240900   4.999   2.640  11.547  0.1098  0.4103  0.1301
 6470TIP3    H140901   5.001   2.546  11.567  3.1000  0.0961 -0.9880
 6470TIP3    H240902   5.036   2.682  11.624  0.7110  0.4079 -0.1444
 6471TIP3   OH240903   2.540   3.349   6.564  0.2492 -0.7131  0.1224
 6471TIP3    H140904   2.503   3.430   6.530 -0.6425 -0.1249  2.3639
 6471TIP3    H240905   2.626   3.373   6.597  0.9416 -1.2009 -1.2300
 6472TIP3   OH240906   1.802   0.383   4.426 -0.7430 -0.1689 -0.5058
 6472TIP3    H140907   1.725   0.341   4.464 -1.7330  0.3564 -1.8541
 6472TIP3    H240908   1.792   0.371   4.332  0.9761 -0.3139 -0.6874
 6473TIP3   OH240909   1.145   3.301   0.411 -0.2956  0.2068  0.3994
 6473TIP3    H140910   1.112   3.301   0.321  0.7254  0.1260  0.0023
 6473TIP3    H240911   1.235   3.334   0.402 -0.1853  0.1806  1.3900
 6474TIP3   OH240912   1.732   3.367  13.825  0.0720 -0.1688 -0.7054
 6474TIP3    H140913   1.804   3.340  13.769 -0.3546  0.7187 -1.7286
 6474TIP3    H240914   1.660   3.386  13.764 -0.5838  0.2995  0.1856
 6475TIP3   OH240915   5.067   3.386   3.841  0.0447  0.1151 -0.7984
 6475TIP3    H140916   5.119   3.436   3.778 -0.5731  1.5623 -0.2059
 6475TIP3    H240917   5.024   3.453   3.894 -1.1223 -1.0688 -0.2165
 6476TIP3   OH240918   3.313   3.738  14.921 -0.2756  0.0097  0.4510
 6476TIP3    H140919   3.226   3.778  14.923 -0.1375  0.3196  0.3468
 6476TIP3    H240920   3.305   3.664  14.861 -0.5859 -0.2500  0.8030
 6477TIP3   OH240921   6.156   0.130  15.739 -0.0210 -0.2215 -0.5978
 6477TIP3    H140922   6.090   0.063  15.724 -0.8882  0.3509  0.5235
 6477TIP3    H240923   6.176   0.165  15.652 -0.1668 -1.3508 -1.0895
 6478TIP3   OH240924   0.995   6.658   4.147  0.2095  0.1690  0.2060
 6478TIP3    H140925   0.964   6.745   4.173 -1.5618 -0.0796 -0.8480
 6478TIP3    H240926   1.064   6.675   4.083  1.1769  0.7787  1.3889
 6479TIP3   OH240927   1.841   1.408  13.877  0.0210  0.2079  0.3332
 6479TIP3    H140928   1.792   1.482  13.842 -1.7663 -0.5180  1.1700
 6479TIP3    H240929   1.920   1.448  13.916 -1.1093  1.7553  1.1681
 6480TIP3   OH240930   0.538   2.286  10.646  0.4570  0.2490 -0.3136
 6480TIP3    H140931   0.550   2.289  10.551 -0.3681  0.2141 -0.4234
 6480TIP3    H240932   0.627   2.292  10.681  0.8156 -0.2403 -1.0950
 6481TIP3   OH240933   6.061   2.539   1.459 -0.2239  0.3814 -0.1982
 6481TIP3    H140934   6.143   2.511   1.418  0.5328  1.4393  0.5570
 6481TIP3    H240935   6.030   2.610   1.403  0.9329  1.9919  1.1015
 6482TIP3   OH240936   1.199   2.922   5.734 -0.3003  0.7378 -0.6976
 6482TIP3    H140937   1.251   3.002   5.733  1.8360 -0.5710 -0.9610
 6482TIP3    H240938   1.199   2.894   5.825 -0.6815  0.7963 -0.6761
 6483TIP3   OH240939   1.568   6.690  16.987 -0.3126 -0.5006  0.8482
 6483TIP3    H140940   1.603   6.677  16.898 -0.2174  1.3594  0.5752
 6483TIP3    H240941   1.476   6.668  16.980 -1.6998  4.5598 -1.1880
 6484TIP3   OH240942   5.295   2.485  11.747 -0.1272  0.1288  0.1858
 6484TIP3    H140943   5.331   2.406  11.786 -0.8007 -0.9314 -1.2296
 6484TIP3    H240944   5.220   2.508  11.803 -0.3815 -0.6872  0.1959
 6485TIP3   OH240945   3.367   0.525  16.395 -0.2126  0.1703 -0.0020
 6485TIP3    H140946   3.350   0.611  16.356 -0.1603 -0.9116 -2.6070
 6485TIP3    H240947   3.463   0.517  16.393 -0.2784 -0.5551 -1.2991
 6486TIP3   OH240948   0.830   0.886  16.030  0.1522 -0.0724  0.6488
 6486TIP3    H140949   0.754   0.869  15.975  1.2511 -0.3974 -0.8300
 6486TIP3    H240950   0.861   0.799  16.056 -0.3667  0.0782  1.8283
 6487TIP3   OH240951   3.730   4.553  15.981  0.1238  0.3911  0.7341
 6487TIP3    H140952   3.810   4.553  16.034 -1.1499  1.6799  2.8018
 6487TIP3    H240953   3.701   4.644  15.981 -1.0368  0.0515 -0.4479
 6488TIP3   OH240954   0.158   3.100   3.724 -0.2974  0.0053 -0.1164
 6488TIP3    H140955   0.097   3.089   3.652  0.0278  1.5172 -0.6799
 6488TIP3    H240956   0.245   3.086   3.685 -0.1776 -0.1248  0.1934
 6489TIP3   OH240957   3.086   6.232  12.951 -0.3660 -0.5891 -0.0097
 6489TIP3    H140958   3.170   6.244  12.908  0.1885 -0.2227  1.1267
 6489TIP3    H240959   3.071   6.138  12.951  0.8345 -0.7986  1.2080
 6490TIP3   OH240960   1.393   4.017  14.894 -1.1238  0.1014 -0.2438
 6490TIP3    H140961   1.361   4.044  14.980 -0.5391 -3.3869  1.2180
 6490TIP3    H240962   1.323   3.963  14.858  0.4200 -2.3844  0.2385
 6491TIP3   OH240963   5.693   1.771  14.049  0.1799 -0.9181  0.1217
 6491TIP3    H140964   5.659   1.682  14.058 -0.3730 -0.7109  0.1762
 6491TIP3    H240965   5.697   1.804  14.139  2.0659 -1.4777  0.2715
 6492TIP3   OH240966   1.178   2.130   4.627 -0.3198 -0.3755 -0.0449
 6492TIP3    H140967   1.137   2.178   4.699 -2.1016 -0.9240 -0.6404
 6492TIP3    H240968   1.211   2.050   4.667 -0.1806 -0.1018  0.3880
 6493TIP3   OH240969   5.939   3.903   0.040  0.1075 -0.6767  0.1500
 6493TIP3    H140970   5.900   3.870  -0.040 -0.6113 -0.9982  0.6195
 6493TIP3    H240971   5.987   3.982   0.014  0.8721 -1.4405 -0.7859
 6494TIP3   OH240972   6.428   6.602   3.632  0.5150 -0.7816  0.2794
 6494TIP3    H140973   6.407   6.690   3.663  1.4785 -0.2036 -0.6532
 6494TIP3    H240974   6.365   6.545   3.676 -0.5648  0.4500  0.3696
 6495TIP3   OH240975   6.241   5.749  17.263  0.4831 -0.1459 -0.7560
 6495TIP3    H140976   6.327   5.792  17.257  0.4244  0.2653  0.8922
 6495TIP3    H240977   6.261   5.655  17.261  1.1934 -0.0988  1.4630
 6496TIP3   OH240978   4.470   4.672  12.933  0.5305  0.5412 -0.0578
 6496TIP3    H140979   4.500   4.587  12.902  1.2814  0.9418 -0.4726
 6496TIP3    H240980   4.434   4.715  12.855  2.1079  1.4188 -0.3485
 6497TIP3   OH240981   5.249   3.348   0.801  0.4516  0.3419 -0.2177
 6497TIP3    H140982   5.154   3.359   0.798  0.2456 -1.0377  0.6604
 6497TIP3    H240983   5.267   3.285   0.731  0.9000  1.5239 -1.2122
 6498TIP3   OH240984   6.086   5.166  12.982  0.3009 -0.2511 -0.1656
 6498TIP3    H140985   6.105   5.171  12.888  2.8996 -3.3273  0.0671
 6498TIP3    H240986   6.134   5.239  13.020 -0.4635  0.7909 -1.1184
 6499TIP3   OH240987   4.922   4.234  15.229 -0.1135  0.5553 -0.2357
 6499TIP3    H140988   4.986   4.167  15.253  0.4727  0.3337 -2.2234
 6499TIP3    H240989   4.975   4.311  15.207 -0.7183  1.3195  0.9436
 6500TIP3   OH240990   1.616   0.662  11.135  0.1098 -0.3622  0.7422
 6500TIP3    H140991   1.585   0.574  11.152  0.2048 -0.4982  0.2183
 6500TIP3    H240992   1.652   0.691  11.219  0.7299 -1.0883  0.7343
 6501TIP3   OH240993   2.040   6.052  13.240 -0.0417  0.0594 -0.7430
 6501TIP3    H140994   2.093   6.131  13.227  1.2286 -0.4303  1.0596
 6501TIP3    H240995   2.103   5.980  13.232 -0.1877 -0.5140  2.1288
 6502TIP3   OH240996   0.082   2.274  16.791  0.6276  0.1136  0.0257
 6502TIP3    H140997   0.006   2.306  16.839  1.0293  1.0967  0.0281
 6502TIP3    H240998   0.093   2.184  16.820  0.0897  0.2933  0.8108
 6503TIP3   OH240999   6.794   6.328   5.539 -0.0125  0.6465 -0.4897
 6503TIP3    H141000   6.790   6.297   5.448 -2.1724  2.0427 -0.9498
 6503TIP3    H241001   6.844   6.409   5.534 -0.2214  0.7775 -0.4444
 6504TIP3   OH241002   5.033   4.311  14.491 -1.0747 -0.2362  0.3250
 6504TIP3    H141003   5.005   4.344  14.406 -2.9457 -1.0320  0.5956
 6504TIP3    H241004   5.016   4.217  14.487  0.4183 -0.5684  1.0007
 6505TIP3   OH241005   1.629   2.241   0.223 -0.2758 -0.1544  0.2754
 6505TIP3    H141006   1.652   2.152   0.253  1.8650  0.1710 -0.2424
 6505TIP3    H241007   1.711   2.277   0.191 -1.2048  1.8797  0.0501
 6506TIP3   OH241008   6.583   0.606   1.993 -0.0251  0.2312 -0.1591
 6506TIP3    H141009   6.506   0.551   1.983  0.1356  0.1112 -0.7912
 6506TIP3    H241010   6.633   0.593   1.912 -0.0638  1.4202 -0.4029
 6507TIP3   OH241011   3.673   2.468   2.375  0.3667  0.1460 -0.4566
 6507TIP3    H141012   3.709   2.556   2.386  4.2385 -0.6799 -3.8172
 6507TIP3    H241013   3.675   2.430   2.463  0.6081  2.6885  0.7286
 6508TIP3   OH241014   6.270   3.667   5.057 -0.2029 -0.5157  0.0443
 6508TIP3    H141015   6.270   3.617   5.139 -0.4874  0.5155  0.6986
 6508TIP3    H241016   6.180   3.697   5.047  0.2996  1.3215  0.6113
 6509TIP3   OH241017   4.677   1.503  11.927 -0.3780 -0.1105  0.1476
 6509TIP3    H141018   4.624   1.535  11.854 -0.8708  1.2824  1.0712
 6509TIP3    H241019   4.679   1.408  11.915  0.2169  0.1389 -2.0848
 6510TIP3   OH241020   1.207   4.231   1.956  0.1071 -0.0199  0.0633
 6510TIP3    H141021   1.261   4.242   1.878 -0.8393  1.9134 -0.3812
 6510TIP3    H241022   1.246   4.156   2.002  2.1056  0.2521 -1.0707
 6511TIP3   OH241023   6.718   3.101  15.882  0.6057  0.1626 -0.5818
 6511TIP3    H141024   6.701   3.019  15.836  1.0067  0.5239 -1.4022
 6511TIP3    H241025   6.813   3.109  15.882  0.5589  1.8970 -2.9106
 6512TIP3   OH241026   1.383   1.311  16.117 -0.2418 -0.1825 -0.1384
 6512TIP3    H141027   1.379   1.371  16.042  1.3731 -1.7685 -1.6152
 6512TIP3    H241028   1.379   1.368  16.194  2.2353  1.9728 -1.4321
 6513TIP3   OH241029   2.936   4.288   3.547  0.1990 -0.5145 -0.3500
 6513TIP3    H141030   2.857   4.260   3.501  0.4751  0.1319 -1.2397
 6513TIP3    H241031   2.921   4.262   3.638 -1.2335  0.0004 -0.4090
 6514TIP3   OH241032   0.173   3.691  16.051 -0.6248  0.0029 -0.2249
 6514TIP3    H141033   0.129   3.746  15.987  0.3688  0.6416 -0.3886
 6514TIP3    H241034   0.183   3.606  16.007 -2.1139 -0.3144  0.0103
 6515TIP3   OH241035   5.821   0.188   3.426 -0.3460 -0.0234 -0.6235
 6515TIP3    H141036   5.903   0.234   3.446 -0.9269  1.4068 -1.3599
 6515TIP3    H241037   5.756   0.229   3.482 -0.9153  0.2080 -1.4322
 6516TIP3   OH241038   3.830   1.865   5.887  0.7794  0.6179  0.1737
 6516TIP3    H141039   3.802   1.845   5.797 -0.6467  1.9108  0.2808
 6516TIP3    H241040   3.749   1.861   5.938  1.3927  0.9861  1.1875
 6517TIP3   OH241041   0.286   0.291  12.396 -0.1109  0.3380 -0.4621
 6517TIP3    H141042   0.305   0.327  12.483  0.6138 -0.3976 -0.3118
 6517TIP3    H241043   0.330   0.207  12.394  1.6383  1.2115 -2.2864
 6518TIP3   OH241044   2.746   0.470  11.999 -0.0102 -0.2915 -0.2653
 6518TIP3    H141045   2.691   0.425  12.062  0.2813 -0.4501 -0.1196
 6518TIP3    H241046   2.798   0.400  11.958  0.0356 -0.1538 -0.4449
 6519TIP3   OH241047   6.772   0.318  15.164  0.6652 -0.2252 -0.7098
 6519TIP3    H141048   6.784   0.298  15.071  0.2756  0.6105 -0.9490
 6519TIP3    H241049   6.825   0.253  15.210 -1.0792 -2.2619 -1.4147
 6520TIP3   OH241050   5.400   4.433   0.192 -0.2240 -0.3649 -0.4130
 6520TIP3    H141051   5.471   4.379   0.158  1.2196  1.1667 -0.0026
 6520TIP3    H241052   5.402   4.512   0.138  0.5350  1.0828  1.6256
 6521TIP3   OH241053   1.533   1.991   0.768 -0.3107 -0.9171  0.9984
 6521TIP3    H141054   1.549   1.938   0.690 -0.1565 -1.4542  1.3922
 6521TIP3    H241055   1.590   2.067   0.757  0.2041 -1.3124  0.8956
 6522TIP3   OH241056   2.459   0.537   5.408  0.5975  0.3407  0.3164
 6522TIP3    H141057   2.499   0.575   5.330 -1.5114  0.3218 -0.8636
 6522TIP3    H241058   2.518   0.561   5.480  3.0852 -0.4271 -1.3560
 6523TIP3   OH241059   6.707   3.234   2.548  0.1608 -0.1868 -0.0814
 6523TIP3    H141060   6.614   3.240   2.572  0.0977 -1.4679  0.0722
 6523TIP3    H241061   6.710   3.163   2.483  1.1648 -0.8890  0.7042
 6524TIP3   OH241062   6.254   5.338  17.155  0.1982  0.3276  0.0076
 6524TIP3    H141063   6.159   5.344  17.148  0.2833  2.7616  0.0286
 6524TIP3    H241064   6.285   5.350  17.065  0.5134 -0.3555  0.0176
 6525TIP3   OH241065   3.032   1.714   1.530 -1.0221  0.6848  0.0801
 6525TIP3    H141066   3.057   1.750   1.446 -0.1410  0.2647  0.1507
 6525TIP3    H241067   2.944   1.677   1.516 -0.1413 -1.0529 -1.1768
 6526TIP3   OH241068   6.129   2.224  14.010 -0.2887  0.3910  0.6095
 6526TIP3    H141069   6.072   2.179  13.947 -0.7910  0.0278  1.3017
 6526TIP3    H241070   6.213   2.179  14.004 -0.8870 -0.9350  1.5544
 6527TIP3   OH241071   5.286   0.324   6.475 -0.0438 -0.8573 -0.0434
 6527TIP3    H141072   5.263   0.412   6.505  0.2884 -0.3124 -1.3059
 6527TIP3    H241073   5.224   0.267   6.519  0.0851 -0.0554  1.2238
 6528TIP3   OH241074   5.828   0.911   3.101 -0.3922  0.4772  0.4728
 6528TIP3    H141075   5.784   0.896   3.018 -1.9791 -0.5523  1.4492
 6528TIP3    H241076   5.854   1.003   3.098 -1.0707  0.6457 -0.8529
 6529TIP3   OH241077   0.847   2.412  11.284  0.0409 -0.5430 -0.1489
 6529TIP3    H141078   0.848   2.316  11.284  0.8108 -0.5667 -1.9300
 6529TIP3    H241079   0.863   2.436  11.193  3.6272  1.2923  0.7881
 6530TIP3   OH241080   2.783   6.016   3.372 -0.6084  0.9680 -0.2323
 6530TIP3    H141081   2.782   6.079   3.300  0.1874  1.8153  0.4831
 6530TIP3    H241082   2.760   6.066   3.449 -1.8869 -0.0260  0.0718
 6531TIP3   OH241083   5.917   3.387   3.832  0.0281  0.7165 -0.5414
 6531TIP3    H141084   5.985   3.425   3.888  0.3994  0.8425 -1.0665
 6531TIP3    H241085   5.965   3.328   3.774 -0.5156 -0.4956  0.1782
 6532TIP3   OH241086   2.436   0.971  15.167  0.4011 -0.0570  0.3582
 6532TIP3    H141087   2.434   1.065  15.183  2.2531  0.6917 -2.9170
 6532TIP3    H241088   2.513   0.940  15.214  1.8652  0.8079 -1.3647
 6533TIP3   OH241089   5.440   6.363   5.290 -0.3432  0.4137  0.3917
 6533TIP3    H141090   5.518   6.366   5.234 -0.5070 -1.5723 -0.0040
 6533TIP3    H241091   5.475   6.365   5.379  0.2883 -1.5252  0.2325
 6534TIP3   OH241092   5.668   6.418  11.055  0.5244 -0.0375 -0.5851
 6534TIP3    H141093   5.690   6.456  10.970 -1.6147  2.5686 -0.0858
 6534TIP3    H241094   5.689   6.487  11.118  1.9191 -1.8565  1.0886
 6535TIP3   OH241095   2.309   3.236  11.860 -0.3640 -0.0616  0.1317
 6535TIP3    H141096   2.299   3.247  11.954  0.8591  0.6384  0.2067
 6535TIP3    H241097   2.404   3.239  11.845 -0.5203 -0.5096 -1.0777
 6536TIP3   OH241098   6.778   1.701  14.941  0.8754  0.6730 -0.3072
 6536TIP3    H141099   6.787   1.790  14.977  0.0549  1.6051 -2.2608
 6536TIP3    H241100   6.689   1.675  14.965  0.8005  0.7489 -0.5012
 6537TIP3   OH241101   0.831   3.193  13.807 -0.3308  0.1967 -0.8963
 6537TIP3    H141102   0.816   3.224  13.897  0.9161 -1.0432 -0.2036
 6537TIP3    H241103   0.748   3.206  13.762 -1.0703  0.5832  0.5288
 6538TIP3   OH241104   2.825   2.362  15.496 -0.0870 -0.8574 -0.0934
 6538TIP3    H141105   2.738   2.323  15.489  0.2739 -2.0534  1.5145
 6538TIP3    H241106   2.809   2.455  15.508 -1.0524 -0.7603 -1.7943
 6539TIP3   OH241107   4.382   2.521  14.699  0.2695 -0.3903  0.5440
 6539TIP3    H141108   4.387   2.517  14.794 -0.9801 -0.1673  0.6284
 6539TIP3    H241109   4.292   2.546  14.680  0.2227 -1.4222 -0.7283
 6540TIP3   OH241110   4.032   4.094   5.933 -0.1555  0.6936  0.0143
 6540TIP3    H141111   4.019   4.055   6.019  0.1829 -0.9590 -0.6442
 6540TIP3    H241112   3.946   4.128   5.909 -0.7504 -0.6317  0.1758
 6541TIP3   OH241113   5.643   2.887   0.529  0.0513 -0.3929  0.2560
 6541TIP3    H141114   5.664   2.840   0.448 -0.1684 -0.8970  0.4858
 6541TIP3    H241115   5.594   2.964   0.499  0.4886 -0.2605 -0.1312
 6542TIP3   OH241116   4.399   6.436  11.936 -0.2229  0.2723  0.4102
 6542TIP3    H141117   4.376   6.386  11.858 -0.1341  0.3274  0.3498
 6542TIP3    H241118   4.494   6.442  11.934 -0.2854  1.2970 -0.1102
 6543TIP3   OH241119   3.451   5.898   1.692  0.5990 -0.0874 -0.1078
 6543TIP3    H141120   3.431   5.840   1.618  1.7088  0.9610 -1.2839
 6543TIP3    H241121   3.546   5.889   1.705  1.1346  2.6190 -1.4284
 6544TIP3   OH241122   0.066   5.718  14.789 -0.2876 -0.3091  0.1570
 6544TIP3    H141123   0.127   5.649  14.818 -1.0465 -0.9652  0.2355
 6544TIP3    H241124   0.027   5.683  14.709 -0.4898  0.1515  0.0515
 6545TIP3   OH241125   1.905   1.822   3.776  0.2282  0.3015  0.3498
 6545TIP3    H141126   1.817   1.820   3.814 -0.0373 -0.5705 -0.2582
 6545TIP3    H241127   1.908   1.903   3.725 -0.9725 -0.6035 -1.2690
 6546TIP3   OH241128   0.959   4.143   4.670 -0.1250 -0.3820 -0.0978
 6546TIP3    H141129   1.013   4.092   4.730 -1.3449 -0.9706  0.5444
 6546TIP3    H241130   0.923   4.079   4.609  0.0018  0.0181 -0.5993
 6547TIP3   OH241131   0.010   4.603   4.593 -0.6561 -0.6874  0.0699
 6547TIP3    H141132   0.017   4.663   4.518  0.2462 -1.8665 -0.8321
 6547TIP3    H241133   0.101   4.584   4.616 -0.9353 -1.3374  0.6478
 6548TIP3   OH241134   1.741   5.387  14.223  0.1891 -0.1913  0.3041
 6548TIP3    H141135   1.806   5.371  14.291  1.0004 -0.2894 -0.4729
 6548TIP3    H241136   1.658   5.360  14.262  0.4333  0.9414  1.6985
 6549TIP3   OH241137   3.969   3.046   2.576 -0.2769 -0.0174  0.2174
 6549TIP3    H141138   3.973   2.986   2.650 -1.2632 -1.7949 -1.0988
 6549TIP3    H241139   4.058   3.078   2.566  0.3666 -1.5495  0.7446
 6550TIP3   OH241140   2.109   5.245   0.794 -0.3662  0.1891  0.4085
 6550TIP3    H141141   2.154   5.178   0.742  1.9895  1.1458  1.0884
 6550TIP3    H241142   2.102   5.320   0.736 -0.7819  0.1649  0.4242
 6551TIP3   OH241143   1.877   5.719   1.449 -1.3938  0.4325 -0.1589
 6551TIP3    H141144   1.841   5.770   1.521 -2.0968  0.2725 -0.3859
 6551TIP3    H241145   1.820   5.642   1.443 -0.9753  0.1414 -0.4928
 6552TIP3   OH241146   4.174   0.537   5.531 -0.5349 -0.5573 -0.0251
 6552TIP3    H141147   4.217   0.479   5.593  1.0537  1.3041  0.7411
 6552TIP3    H241148   4.129   0.479   5.470 -1.2286 -2.4947  2.1899
 6553TIP3   OH241149   3.965   0.793  14.135 -0.3391  0.2454 -0.2989
 6553TIP3    H141150   3.994   0.766  14.223  0.7880  0.4438 -0.5898
 6553TIP3    H241151   3.987   0.718  14.079 -3.2527 -0.8907 -0.0729
 6554TIP3   OH241152   2.025   0.707  14.041 -0.0512  0.6756  0.0549
 6554TIP3    H141153   2.006   0.620  14.006  0.1620  1.4704 -2.1997
 6554TIP3    H241154   1.938   0.743  14.062 -0.2436  0.4149 -0.2764
 6555TIP3   OH241155   2.652   0.874  12.368  0.1209  0.3959  0.2667
 6555TIP3    H141156   2.692   0.808  12.312  4.0055  1.3002  1.6529
 6555TIP3    H241157   2.593   0.825  12.425  0.1507 -1.2784 -1.0578
 6556TIP3   OH241158   4.304   1.663   1.647 -0.4405 -0.7066 -0.5836
 6556TIP3    H141159   4.347   1.617   1.720  0.2516  0.3071 -0.3374
 6556TIP3    H241160   4.211   1.660   1.670 -0.1112  1.0398  1.2357
 6557TIP3   OH241161   3.231   0.860   4.011  0.0274  0.5680  0.6940
 6557TIP3    H141162   3.173   0.903   3.948  0.9884 -0.4413 -0.9894
 6557TIP3    H241163   3.255   0.929   4.073  0.9594  2.3170 -1.4709
 6558TIP3   OH241164   4.229   6.505  15.739 -0.6481 -0.1245  0.0200
 6558TIP3    H141165   4.214   6.600  15.732 -0.1508 -0.0518 -0.0730
 6558TIP3    H241166   4.233   6.474  15.649  0.0041 -0.0999  0.0341
 6559TIP3   OH241167   4.639   6.000   1.355  0.1728 -0.4411  0.3677
 6559TIP3    H141168   4.652   5.926   1.295  1.6548  0.3889 -0.3779
 6559TIP3    H241169   4.545   5.996   1.377 -0.2154 -1.3162 -1.2693
 6560TIP3   OH241170   3.812   0.477   3.823  0.0095  0.2261  0.1883
 6560TIP3    H141171   3.847   0.400   3.779 -0.7837 -0.4355  0.7024
 6560TIP3    H241172   3.796   0.539   3.752  1.3579  0.2219 -0.1545
 6561TIP3   OH241173   0.253   0.887   2.371 -0.3403 -0.0524 -0.4314
 6561TIP3    H141174   0.264   0.873   2.465  0.6698 -1.5692 -0.7474
 6561TIP3    H241175   0.233   0.801   2.336 -0.1965  0.4007 -1.6745
 6562TIP3   OH241176   1.605   4.643   0.764  0.3405  0.0564  0.1894
 6562TIP3    H141177   1.575   4.552   0.760  0.6988 -0.0169 -2.0430
 6562TIP3    H241178   1.684   4.644   0.712 -1.0593  2.1273 -2.0944
 6563TIP3   OH241179   2.767   4.793   3.032  0.7755 -0.4084  0.2818
 6563TIP3    H141180   2.781   4.729   2.962 -1.2253 -0.3236 -0.2780
 6563TIP3    H241181   2.828   4.767   3.101  0.6770 -2.3849 -0.2879
 6564TIP3   OH241182   6.765   3.717  16.687  0.1111 -0.6137  0.4773
 6564TIP3    H141183   6.804   3.721  16.600  1.9675 -1.9407  1.1890
 6564TIP3    H241184   6.674   3.690  16.672  0.4990 -1.1401 -1.0156
 6565TIP3   OH241185   3.121   6.544   1.167  0.3191  0.4020  0.6063
 6565TIP3    H141186   3.147   6.617   1.110 -2.1969  0.2998 -0.8583
 6565TIP3    H241187   3.081   6.587   1.243 -0.3303  0.5903  0.1728
 6566TIP3   OH241188   3.663   2.998  15.438  0.1161 -0.6313  0.5573
 6566TIP3    H141189   3.630   3.088  15.438 -0.3891 -0.7565  2.6629
 6566TIP3    H241190   3.590   2.946  15.472  1.1662 -1.4672  1.6296
 6567TIP3   OH241191   2.936   3.987  14.481  0.0071 -0.4550  0.0538
 6567TIP3    H141192   2.841   3.977  14.493  0.1449 -0.9730  0.7455
 6567TIP3    H241193   2.955   3.938  14.401  0.0527 -2.4506  1.2284
 6568TIP3   OH241194   2.053   6.436  11.976  0.1226  0.0610 -0.1150
 6568TIP3    H141195   2.046   6.365  11.912 -0.2220  1.0625 -1.2275
 6568TIP3    H241196   2.144   6.432  12.005  0.6640  0.3850 -1.6506
 6569TIP3   OH241197   2.536   3.336  16.684  0.1045  0.1351 -0.0676
 6569TIP3    H141198   2.510   3.429  16.684  0.7513  0.3351  0.9717
 6569TIP3    H241199   2.454   3.289  16.670 -0.5311  0.8210  1.1199
 6570TIP3   OH241200   6.476   3.228   3.762 -0.4949 -0.2982  0.4590
 6570TIP3    H141201   6.411   3.257   3.698  0.8528 -0.9982 -1.3049
 6570TIP3    H241202   6.514   3.308   3.796 -1.4313  0.0942  0.6234
 6571TIP3   OH241203   0.800   1.592  11.945 -0.1557  0.1428  0.3588
 6571TIP3    H141204   0.892   1.574  11.964 -0.3427 -0.6296  0.5805
 6571TIP3    H241205   0.754   1.563  12.024 -0.5487  1.0312  0.4708
 6572TIP3   OH241206   2.133   0.553   3.379  0.3663  0.3038 -0.0407
 6572TIP3    H141207   2.146   0.461   3.354  0.6546  0.1537  0.6145
 6572TIP3    H241208   2.084   0.548   3.461  0.3241  0.7396 -0.0395
 6573TIP3   OH241209   5.526   2.202  13.746  0.0388  0.2318  0.4360
 6573TIP3    H141210   5.539   2.229  13.837  1.9296 -0.1105  0.3086
 6573TIP3    H241211   5.566   2.273  13.694 -2.6055  1.3355 -0.2594
 6574TIP3   OH241212   0.361   0.285   2.719 -0.3733 -0.1835  0.3474
 6574TIP3    H141213   0.373   0.193   2.744 -1.2659 -0.9852 -1.9887
 6574TIP3    H241214   0.281   0.312   2.764  0.3965 -0.1889  1.8147
 6575TIP3   OH241215   5.090   5.597  11.908 -0.1940  0.3825  0.0126
 6575TIP3    H141216   5.138   5.641  11.838 -1.5395  0.0265 -1.1796
 6575TIP3    H241217   5.007   5.571  11.868 -0.1984 -1.6255  1.1662
 6576TIP3   OH241218   4.437   6.432   4.694  0.2253 -0.2424  0.3406
 6576TIP3    H141219   4.452   6.525   4.676 -1.4101 -0.3049 -1.6701
 6576TIP3    H241220   4.522   6.400   4.726  1.2348  1.6113 -0.3149
 6577TIP3   OH241221   4.414   2.459  12.817  0.3299  0.1937 -0.7374
 6577TIP3    H141222   4.341   2.404  12.847  0.7344  0.0230 -0.0438
 6577TIP3    H241223   4.421   2.440  12.724 -0.7148  0.4449 -0.8792
 6578TIP3   OH241224   5.053   0.622  13.944  0.4163  0.4851  0.1398
 6578TIP3    H141225   5.010   0.536  13.948 -1.0655  1.2293  2.1862
 6578TIP3    H241226   5.091   0.634  14.031 -0.2414  2.2743  0.2342
 6579TIP3   OH241227   4.705   2.989  12.014  0.4746  0.3109  0.1910
 6579TIP3    H141228   4.760   3.065  12.033  0.6546  1.0507 -2.7907
 6579TIP3    H241229   4.618   3.026  11.998 -1.1045 -0.8215  4.6654
 6580TIP3   OH241230   3.007   4.012  11.399  0.2021  0.5472  0.2883
 6580TIP3    H141231   3.023   4.063  11.478  0.5570 -1.2396  1.4351
 6580TIP3    H241232   2.990   3.923  11.431  3.0022 -0.8774 -1.7138
 6581TIP3   OH241233   3.878   1.124  10.670 -0.2895  0.1937 -0.2835
 6581TIP3    H141234   3.807   1.064  10.691 -0.0147  0.4461  1.5368
 6581TIP3    H241235   3.865   1.198  10.729  1.8288 -0.0658  0.6168
 6582TIP3   OH241236   4.146   0.028   0.459  0.8113  0.1594 -0.7531
 6582TIP3    H141237   4.226   0.028   0.406  1.4082 -2.3828  0.0043
 6582TIP3    H241238   4.176   0.042   0.549  0.5090 -1.3841 -0.3875
 6583TIP3   OH241239   6.330   1.185   5.264  0.3882  0.2678 -0.0040
 6583TIP3    H141240   6.380   1.108   5.238  2.5324  1.6269 -0.1706
 6583TIP3    H241241   6.300   1.224   5.182 -1.6834 -0.9181  0.1155
 6584TIP3   OH241242   3.452   0.537  14.158 -0.2017  0.2264  0.6944
 6584TIP3    H141243   3.414   0.620  14.129  2.5635  1.9936  1.7322
 6584TIP3    H241244   3.448   0.481  14.080 -2.9127  0.9506  0.2048
 6585TIP3   OH241245   1.341   6.726   0.976  0.1268  0.3107 -0.2200
 6585TIP3    H141246   1.360   6.640   0.940 -2.1712 -0.2985 -0.1118
 6585TIP3    H241247   1.294   6.772   0.906  1.1183  1.4123 -0.1936
 6586TIP3   OH241248   0.995   4.746   0.382  0.4064  0.8121  0.0931
 6586TIP3    H141249   1.001   4.716   0.292 -0.0013 -2.5837  1.0469
 6586TIP3    H241250   0.901   4.744   0.402  0.6291 -1.0153  1.2470
 6587TIP3   OH241251   4.021   5.415  11.714 -0.0694  0.2705 -0.1549
 6587TIP3    H141252   4.093   5.394  11.774 -0.1107  0.8457  0.0987
 6587TIP3    H241253   4.007   5.509  11.725  0.1244  0.4467 -1.2873
 6588TIP3   OH241254   1.021   3.805   1.388  0.5455 -0.1185 -0.5812
 6588TIP3    H141255   1.060   3.739   1.445  0.0731 -0.5474 -0.7488
 6588TIP3    H241256   0.959   3.757   1.334 -0.9991  0.6923  0.3882
 6589TIP3   OH241257   3.866   5.999   3.511  0.1378  0.4567 -0.3665
 6589TIP3    H141258   3.891   6.024   3.600  0.2403 -1.0811  0.0515
 6589TIP3    H241259   3.911   5.916   3.495 -1.6445 -0.4430 -1.0125
 6590TIP3   OH241260   5.539   4.183  12.305  0.3517  0.0627  0.0106
 6590TIP3    H141261   5.512   4.222  12.222  0.9899  1.5470  0.4649
 6590TIP3    H241262   5.458   4.177  12.356 -0.0218 -0.7361 -0.6580
 6591TIP3   OH241263   6.617   4.327   5.485 -0.6110 -0.6998 -0.0105
 6591TIP3    H141264   6.634   4.324   5.580  1.9070  0.3236 -0.3432
 6591TIP3    H241265   6.552   4.396   5.474  1.1369  1.1585  0.8023
 6592TIP3   OH241266   5.281   2.564   1.632 -0.4830  0.1944 -0.5589
 6592TIP3    H141267   5.225   2.571   1.555 -0.0411 -2.5423 -1.2568
 6592TIP3    H241268   5.366   2.595   1.603 -0.6149  0.3440 -0.7887
 6593TIP3   OH241269   5.267   1.243  12.729 -0.3420 -0.0763 -0.2642
 6593TIP3    H141270   5.334   1.293  12.682 -2.2174  1.8497 -1.0153
 6593TIP3    H241271   5.221   1.194  12.660  0.9031 -2.3078  0.3647
 6594TIP3   OH241272   5.051   0.723  13.127  0.0052 -0.1416 -0.5902
 6594TIP3    H141273   5.058   0.814  13.157 -0.5182  0.4015 -2.0376
 6594TIP3    H241274   5.055   0.672  13.208  0.2096  1.1638  0.2708
 6595TIP3   OH241275   3.020   3.502   5.877  0.2033  0.1013  0.6592
 6595TIP3    H141276   3.014   3.465   5.965 -1.5037  0.0915  0.5671
 6595TIP3    H241277   3.094   3.457   5.836  1.6297  0.7639  2.3735
 6596TIP3   OH241278   6.610   3.689   2.798  0.7326  0.0976 -0.1837
 6596TIP3    H141279   6.681   3.626   2.785  0.4220 -0.3974  0.4759
 6596TIP3    H241280   6.571   3.665   2.882 -0.4022  0.1888 -0.6620
 6597TIP3   OH241281   5.283   3.091   5.526  0.2251 -0.0945  0.1833
 6597TIP3    H141282   5.238   3.006   5.532  1.2010 -0.5979  0.6904
 6597TIP3    H241283   5.329   3.099   5.610  0.0364  1.0139  0.1982
 6598TIP3   OH241284   1.316   5.962   1.856  0.3286 -0.0925 -0.1187
 6598TIP3    H141285   1.379   5.890   1.869 -0.7357 -0.6778  2.5307
 6598TIP3    H241286   1.231   5.919   1.851 -0.3422  0.9276  1.6237
 6599TIP3   OH241287   6.253   4.146  13.540 -0.1185  0.0513  0.0761
 6599TIP3    H141288   6.197   4.072  13.561  0.3624  0.3078  2.6387
 6599TIP3    H241289   6.334   4.130  13.589  0.7577  1.2938 -0.8861
 6600TIP3   OH241290   3.947   4.879   2.721 -0.2718  0.1731 -0.2388
 6600TIP3    H141291   3.931   4.972   2.704 -0.9276 -0.3823 -3.2846
 6600TIP3    H241292   3.861   4.842   2.737 -0.3382 -0.3179 -1.6412
 6601TIP3   OH241293   0.541   3.623   5.834 -0.4180  0.2447 -0.3738
 6601TIP3    H141294   0.502   3.601   5.750  0.1185  0.6704 -0.7395
 6601TIP3    H241295   0.544   3.719   5.835 -0.1286  0.2343 -0.0084
 6602TIP3   OH241296   6.041   5.048  12.717  0.1016  0.0121  0.5631
 6602TIP3    H141297   6.055   4.991  12.641  0.8865  1.0055 -0.0716
 6602TIP3    H241298   6.005   4.990  12.784  0.5532 -1.1524 -0.1584
 6603TIP3   OH241299   1.715   4.449  14.002  0.3637 -0.2721 -0.4720
 6603TIP3    H141300   1.623   4.464  14.020  0.6039 -0.8044  1.3777
 6603TIP3    H241301   1.731   4.360  14.031  1.7014  0.1935  0.3229
 6604TIP3   OH241302   6.696   3.125   4.537 -0.3416 -0.5166  0.2215
 6604TIP3    H141303   6.732   3.185   4.471 -1.9903 -0.4117 -0.6338
 6604TIP3    H241304   6.695   3.176   4.618 -2.8359  1.1343 -0.7391
 6605TIP3   OH241305   5.118   5.729   0.138  0.1961  1.0122 -0.0843
 6605TIP3    H141306   5.185   5.786   0.101 -0.0801  1.4246  0.0470
 6605TIP3    H241307   5.101   5.766   0.225 -1.9497  2.3960 -1.0233
 6606TIP3   OH241308   0.083   5.814   5.779 -0.5024 -0.2345  0.0293
 6606TIP3    H141309   0.026   5.829   5.854  1.1734 -0.7342  1.4805
 6606TIP3    H241310   0.104   5.902   5.747 -1.6522 -0.0351 -0.2061
 6607TIP3   OH241311   1.843   5.206   3.959  0.5145  0.2860  0.0283
 6607TIP3    H141312   1.813   5.122   3.925 -0.7678  0.8773 -0.3946
 6607TIP3    H241313   1.765   5.244   4.000  0.7989  1.7043 -0.6826
 6608TIP3   OH241314   1.970   5.823   5.087  0.1629 -0.3839 -0.1018
 6608TIP3    H141315   1.931   5.863   5.010  0.2508  1.5385  0.7999
 6608TIP3    H241316   1.902   5.766   5.121 -1.0778  1.1826  0.1604
 6609TIP3   OH241317   1.968   2.948   0.159 -0.7776 -0.1168 -0.2058
 6609TIP3    H141318   2.003   3.030   0.193 -1.9535  0.0486  0.6702
 6609TIP3    H241319   2.031   2.921   0.092  0.7552  0.3947  0.9603
 6610TIP3   OH241320   1.732   5.473   4.839 -0.2848  0.0888 -0.3283
 6610TIP3    H141321   1.659   5.474   4.778 -0.5831  0.6006  0.0311
 6610TIP3    H241322   1.714   5.400   4.898 -0.1314 -0.2392 -0.6834
 6611TIP3   OH241323   5.693   2.616   2.285 -0.0918 -0.4475 -0.0005
 6611TIP3    H141324   5.672   2.700   2.326 -1.3342 -0.7235 -0.0042
 6611TIP3    H241325   5.622   2.603   2.222  1.4994 -0.2517 -1.9297
 6612TIP3   OH241326   6.462   3.270   3.387  0.5758 -0.5711 -0.2522
 6612TIP3    H141327   6.415   3.353   3.397 -0.9889 -1.5948  1.5406
 6612TIP3    H241328   6.467   3.257   3.293 -0.0006  1.1054 -0.5516
 6613TIP3   OH241329   5.519   0.720   5.846 -0.0053 -0.2148 -0.1002
 6613TIP3    H141330   5.542   0.683   5.931  0.1502 -1.2134 -0.5619
 6613TIP3    H241331   5.427   0.747   5.855  0.0399 -0.2257  0.4070
 6614TIP3   OH241332   4.544   5.879   6.209 -0.0454  0.0269 -0.1082
 6614TIP3    H141333   4.594   5.949   6.252 -0.1521  0.0260  0.0165
 6614TIP3    H241334   4.601   5.803   6.213 -0.2655 -0.1142  0.5052
 6615TIP3   OH241335   1.657   1.646   1.760  0.2741 -0.6266 -0.3541
 6615TIP3    H141336   1.631   1.555   1.778  0.2593 -0.3738  1.0283
 6615TIP3    H241337   1.639   1.692   1.842 -0.3109  0.7695 -1.2425
 6616TIP3   OH241338   5.934   3.835  16.012  0.3283 -0.0083 -0.0567
 6616TIP3    H141339   5.842   3.812  16.002 -0.2106  2.1316 -0.5547
 6616TIP3    H241340   5.972   3.762  16.060 -1.3436 -1.5127 -0.9050
 6617TIP3   OH241341   2.182   5.069   0.023  0.6436  0.2156 -0.0643
 6617TIP3    H141342   2.165   4.988  -0.024 -1.4300  1.3976 -1.4933
 6617TIP3    H241343   2.203   5.133  -0.045 -2.0434  1.8784  0.5100
 6618TIP3   OH241344   5.044   6.769   2.185 -0.1211 -0.6575  0.7791
 6618TIP3    H141345   4.973   6.732   2.238 -0.8226  1.6910  1.5882
 6618TIP3    H241346   5.002   6.794   2.103  0.2788 -1.3116  0.3652
 6619TIP3   OH241347   5.924   0.364   2.039  0.1810 -0.6715 -0.3951
 6619TIP3    H141348   5.970   0.373   1.955  1.9722  0.9477  0.6632
 6619TIP3    H241349   5.835   0.395   2.022  0.9552  1.1679 -1.3826
 6620TIP3   OH241350   1.520   6.514   1.814  0.3153  0.2349  0.2619
 6620TIP3    H141351   1.592   6.461   1.778  1.5415 -0.4709  3.3805
 6620TIP3    H241352   1.476   6.454   1.874  0.3592  2.1047  2.2460
 6621TIP3   OH241353   1.555   5.733  17.022 -0.3341 -0.3722 -0.1869
 6621TIP3    H141354   1.637   5.719  16.975  0.8759  0.8724  1.4349
 6621TIP3    H241355   1.545   5.655  17.077 -0.1313 -0.4288 -0.2283
 6622TIP3   OH241356   4.038   1.391   2.784 -0.2212  0.0443 -0.1094
 6622TIP3    H141357   4.062   1.302   2.808  0.4258  0.8651  2.6973
 6622TIP3    H241358   4.092   1.410   2.708  1.5305 -1.1677  0.7567
 6623TIP3   OH241359   0.245   4.018  14.813 -0.1780 -0.1906 -0.1953
 6623TIP3    H141360   0.296   3.968  14.749 -0.9541  1.7139 -2.4330
 6623TIP3    H241361   0.300   4.093  14.835  0.5889 -1.4081  2.4197
 6624TIP3   OH241362   0.136   5.953   5.144  0.2095  0.1004  0.8860
 6624TIP3    H141363   0.224   5.951   5.183  1.0563 -0.2454 -0.9186
 6624TIP3    H241364   0.142   6.021   5.076 -1.2557  0.7941  1.4160
 6625TIP3   OH241365   5.471   4.445   1.198  0.7979  0.0598  0.0367
 6625TIP3    H141366   5.479   4.364   1.248 -1.6008 -0.7416 -0.7009
 6625TIP3    H241367   5.506   4.513   1.255 -0.8483 -0.9556  2.4231
 6626TIP3   OH241368   0.663   4.739   5.105  0.9161  0.0264 -0.0699
 6626TIP3    H141369   0.650   4.834   5.105  1.1420  0.0655  0.8056
 6626TIP3    H241370   0.597   4.707   5.167  0.6399 -0.4271 -0.5867
 6627TIP3   OH241371   5.397   5.945   4.426  0.0842 -0.0768  0.1901
 6627TIP3    H141372   5.433   5.898   4.351 -1.0469 -0.0074 -0.4302
 6627TIP3    H241373   5.405   6.038   4.403 -1.6401 -0.0668 -0.5829
 6628TIP3   OH241374   1.423   0.166   5.523 -0.2133  0.1114  0.7120
 6628TIP3    H141375   1.510   0.171   5.564  0.0177  3.0646  0.0607
 6628TIP3    H241376   1.369   0.225   5.575 -1.6629 -1.0474  0.5866
 6629TIP3   OH241377   4.283   1.587  11.496 -0.4500  0.1917  0.0706
 6629TIP3    H141378   4.348   1.654  11.478  0.7205 -1.5067 -2.9322
 6629TIP3    H241379   4.243   1.569  11.410 -2.6938 -1.0081  1.2583
 6630TIP3   OH241380   5.001   4.997  12.185 -0.4431  0.1179 -0.3489
 6630TIP3    H141381   4.958   4.912  12.198  1.1816 -0.2995  3.2732
 6630TIP3    H241382   5.067   4.980  12.118  1.4101 -2.2108  1.9068
 6631TIP3   OH241383   1.931   1.112  14.445 -0.2821  0.7605 -0.1421
 6631TIP3    H141384   1.854   1.168  14.446  1.1014  2.8173 -1.1948
 6631TIP3    H241385   1.919   1.052  14.519 -3.0774  0.6564 -0.5842
 6632TIP3   OH241386   3.108   5.663  13.506 -0.2041  0.1178  0.4825
 6632TIP3    H141387   3.146   5.727  13.445 -0.2377 -2.4488 -2.4362
 6632TIP3    H241388   3.146   5.687  13.591  1.3272  2.7628 -0.7958
 6633TIP3   OH241389   0.075   6.386   0.086 -0.1458  0.6024  0.3489
 6633TIP3    H141390  -0.004   6.337   0.061  0.7424 -0.8546  0.2921
 6633TIP3    H241391   0.097   6.436   0.007 -1.2979  1.4438  0.5382
 6634TIP3   OH241392   1.515   1.717  12.828  0.1009 -0.1184  0.4919
 6634TIP3    H141393   1.573   1.793  12.822 -0.4881  0.2862 -0.3115
 6634TIP3    H241394   1.507   1.686  12.738  0.8149 -1.5164  0.8956
 6635TIP3   OH241395   3.238   0.325  15.299  0.5011  0.3258  0.2091
 6635TIP3    H141396   3.208   0.237  15.277  0.4313  0.4731 -0.2980
 6635TIP3    H241397   3.328   0.313  15.327  0.8018  0.2121 -0.7839
 6636TIP3   OH241398   3.623   0.695  17.174  0.6822 -0.0684  0.3293
 6636TIP3    H141399   3.700   0.753  17.180  1.1425 -0.7789  3.3149
 6636TIP3    H241400   3.658   0.611  17.147  0.9974 -0.3580  1.5643
 6637TIP3   OH241401   1.738   5.808  12.391  0.0400 -0.5494  0.3448
 6637TIP3    H141402   1.694   5.733  12.350 -1.2588  0.2209  0.2642
 6637TIP3    H241403   1.675   5.880  12.381  0.5734  0.1502  1.8773
 6638TIP3   OH241404   5.000   5.843  14.591  0.2916  0.2194  0.0298
 6638TIP3    H141405   4.928   5.905  14.579 -0.3170 -0.2878  0.8825
 6638TIP3    H241406   5.078   5.897  14.598 -0.1321  0.8414  0.0291
 6639TIP3   OH241407   5.800   3.834  11.490  0.0877 -0.2658  0.4589
 6639TIP3    H141408   5.816   3.829  11.584  0.9128  0.1580  0.3528
 6639TIP3    H241409   5.880   3.798  11.450  0.2960  0.7737 -0.0848
 6640TIP3   OH241410   5.168   6.101  15.086  0.6696  0.2950 -0.3101
 6640TIP3    H141411   5.091   6.134  15.131 -0.3507 -0.4853 -1.4144
 6640TIP3    H241412   5.242   6.142  15.131 -0.3493  0.6001  1.1423
 6641TIP3   OH241413   2.428   3.333   5.842  0.3292 -0.0541  0.1981
 6641TIP3    H141414   2.416   3.350   5.748 -1.5371  0.9679  0.5682
 6641TIP3    H241415   2.474   3.411   5.874 -0.2244  0.2090  0.3564
 6642TIP3   OH241416   5.580   3.896   3.438  0.4805 -0.3159  0.5656
 6642TIP3    H141417   5.588   3.846   3.357  0.0108 -1.8948  1.4350
 6642TIP3    H241418   5.486   3.898   3.456  0.6595 -1.2247  1.7650
 6643TIP3   OH241419   3.180   2.297   5.973 -0.6403 -0.2204 -0.6803
 6643TIP3    H141420   3.241   2.277   5.901 -0.4891 -1.4422 -0.2362
 6643TIP3    H241421   3.233   2.346   6.036  0.1771 -1.9992  0.0956
 6644TIP3   OH241422   6.079   5.688  13.534  0.5328  1.0910  0.3611
 6644TIP3    H141423   5.998   5.639  13.518  0.0523  1.8331  0.4735
 6644TIP3    H241424   6.136   5.664  13.462  0.3352  0.3044  0.4542
 6645TIP3   OH241425   1.918   0.058   5.759  0.2112 -0.3221 -0.0190
 6645TIP3    H141426   1.955   0.113   5.828 -2.7850 -0.8429  2.1593
 6645TIP3    H241427   1.940  -0.031   5.784 -1.7767 -0.5936  0.9832
 6646TIP3   OH241428   2.422   1.035   5.989  0.4167  0.3513 -0.6735
 6646TIP3    H141429   2.377   0.985   6.057 -0.7558  2.8050  0.4969
 6646TIP3    H241430   2.491   1.082   6.036  0.9231  0.5056 -1.5639
 6647TIP3   OH241431   2.314   3.503   0.246  0.2312  0.1061  0.6669
 6647TIP3    H141432   2.234   3.556   0.248 -1.5793 -2.3875 -0.8638
 6647TIP3    H241433   2.297   3.432   0.308  1.3501 -0.3530  0.4668
 6648TIP3   OH241434   6.620   0.827  10.995  0.3042  0.3173 -0.2985
 6648TIP3    H141435   6.611   0.880  10.916 -0.2199 -0.4021 -0.7341
 6648TIP3    H241436   6.537   0.780  11.003  0.1679  0.7170  0.9458
 6649TIP3   OH241437   2.329   6.229  15.704  0.2349 -0.3670  0.3906
 6649TIP3    H141438   2.266   6.176  15.751 -0.7379 -1.3793 -1.9005
 6649TIP3    H241439   2.278   6.300  15.666  0.2160 -1.6218 -2.1319
 6650TIP3   OH241440   2.495   5.183  17.280  0.5250 -0.5371  0.1817
 6650TIP3    H141441   2.487   5.125  17.204  0.7988 -1.5150  0.8815
 6650TIP3    H241442   2.531   5.127  17.349  1.0248  0.5371  0.8071
 6651TIP3   OH241443   2.303   2.145  14.283  0.5211 -0.0335 -0.1255
 6651TIP3    H141444   2.332   2.165  14.194  2.3660  2.0781  0.8358
 6651TIP3    H241445   2.224   2.198  14.295  0.5513  0.0601 -0.3441
 6652TIP3   OH241446   1.675   3.368   2.112  0.4431  0.8321  0.0861
 6652TIP3    H141447   1.689   3.276   2.089  1.0963  1.1172 -0.6826
 6652TIP3    H241448   1.624   3.364   2.193  0.2048 -0.2031 -0.0966
 6653TIP3   OH241449   2.247   6.530   5.612 -0.3164  0.1968 -0.1388
 6653TIP3    H141450   2.195   6.530   5.532  2.9999 -0.0971 -2.4956
 6653TIP3    H241451   2.274   6.439   5.624  2.1948  0.7831 -0.8833
 6654TIP3   OH241452   5.986   2.653   2.224  0.1425  0.3715  0.2724
 6654TIP3    H141453   6.077   2.664   2.253 -0.0682 -0.0093  1.1056
 6654TIP3    H241454   5.946   2.599   2.291 -1.0905  1.7329  0.6716
 6655TIP3   OH241455   1.083   1.838  13.879 -0.3452  0.4232  0.6190
 6655TIP3    H141456   1.119   1.796  13.801 -1.4611  1.0468 -0.2494
 6655TIP3    H241457   1.071   1.766  13.941  0.6657 -0.0641  0.2817
 6656TIP3   OH241458   0.723   3.910   2.994 -0.5533  0.7831  0.0529
 6656TIP3    H141459   0.815   3.884   2.999 -0.7124  0.2142  0.1385
 6656TIP3    H241460   0.685   3.878   3.076 -1.0716  0.0119 -0.4824
 6657TIP3   OH241461   2.131   0.288   2.826 -0.2466  0.1553 -0.2270
 6657TIP3    H141462   2.133   0.287   2.731 -0.5319  0.6485 -0.2438
 6657TIP3    H241463   2.073   0.361   2.848 -1.8642 -1.2122  0.3128
 6658TIP3   OH241464   2.832   3.669  12.474 -0.4428  0.3076  0.7851
 6658TIP3    H141465   2.756   3.690  12.420 -0.7343 -1.7232  0.3343
 6658TIP3    H241466   2.798   3.668  12.564 -2.0385 -4.2313  0.3907
 6659TIP3   OH241467   6.492   6.620   6.195  0.3832 -0.0554  0.5192
 6659TIP3    H141468   6.505   6.681   6.123 -0.1574  0.9216  1.2133
 6659TIP3    H241469   6.417   6.566   6.168 -1.2955  1.7859  1.2354
 6660TIP3   OH241470   4.231   0.462  11.718 -0.1300  0.1510  0.0976
 6660TIP3    H141471   4.326   0.450  11.726  0.2252  1.3269 -1.7404
 6660TIP3    H241472   4.201   0.382  11.675  0.2404  0.3068 -0.4664
 6661TIP3   OH241473   0.904   4.811  11.440  0.4229 -0.3207 -0.4190
 6661TIP3    H141474   0.874   4.756  11.368 -0.1650 -0.1629 -0.3012
 6661TIP3    H241475   0.999   4.798  11.442  0.4113 -0.5614 -1.0238
 6662TIP3   OH241476   2.691   2.387   2.612 -0.0153  0.5185 -0.0945
 6662TIP3    H141477   2.711   2.350   2.699  0.5006  0.9086 -0.0420
 6662TIP3    H241478   2.644   2.317   2.567  3.1341 -1.2752 -0.9065
 6663TIP3   OH241479   4.121   6.543   2.442 -0.2723 -0.0196  0.2475
 6663TIP3    H141480   4.187   6.478   2.419 -0.1874  0.6166 -1.4606
 6663TIP3    H241481   4.120   6.544   2.538  1.4097 -0.8182  0.3079
 6664TIP3   OH241482   4.709   0.588  14.080  0.0397 -0.0317 -0.3730
 6664TIP3    H141483   4.734   0.535  14.155 -0.0662 -0.4409 -0.6219
 6664TIP3    H241484   4.660   0.661  14.117  1.5376  0.7635  0.1288
 6665TIP3   OH241485   0.194   5.276  12.526  0.2453  0.2977  0.0979
 6665TIP3    H141486   0.139   5.354  12.526 -2.0128 -1.1635 -1.4279
 6665TIP3    H241487   0.189   5.243  12.616  0.3966  1.3408  0.5003
 6666TIP3   OH241488   0.269   0.038   3.818  0.4494  1.5998 -0.3627
 6666TIP3    H141489   0.242  -0.053   3.822 -0.9687  2.0179  1.0408
 6666TIP3    H241490   0.236   0.070   3.734  0.4837  0.9498 -0.6216
 6667TIP3   OH241491   5.992   6.128  12.049 -0.1394 -0.3418  0.0325
 6667TIP3    H141492   6.050   6.052  12.044  0.3458  0.0841 -1.8984
 6667TIP3    H241493   6.051   6.204  12.049 -0.6397  0.0686  1.0425
 6668TIP3   OH241494   5.894   1.963   2.447  0.1379  0.2054 -0.0119
 6668TIP3    H141495   5.832   1.903   2.487  0.3012  0.5690  0.8016
 6668TIP3    H241496   5.927   1.916   2.370  1.8478 -1.6423  1.7285
 6669TIP3   OH241497   5.170   4.129   3.857 -0.2365 -0.4265 -0.4352
 6669TIP3    H141498   5.147   4.037   3.873  0.2465 -0.5799 -0.6166
 6669TIP3    H241499   5.106   4.159   3.791  0.4860 -1.0425 -1.4388
 6670TIP3   OH241500   0.402   1.418   3.979 -0.1968 -0.3629  0.6434
 6670TIP3    H141501   0.373   1.508   3.965  0.0802 -0.2532  0.7577
 6670TIP3    H241502   0.325   1.371   4.009 -1.1688 -0.8876 -2.3421
 6671TIP3   OH241503   1.148   4.728  14.367  0.6997  0.1485  0.1850
 6671TIP3    H141504   1.090   4.722  14.291  0.6753 -0.9322  0.2722
 6671TIP3    H241505   1.206   4.652  14.358  1.4668  0.6719  0.6200
 6672TIP3   OH241506   3.552   5.550   1.399 -0.2510  0.1582 -0.4770
 6672TIP3    H141507   3.550   5.522   1.491 -0.6931 -0.5446 -0.6925
 6672TIP3    H241508   3.645   5.559   1.378 -0.1574  0.8434  0.1886
 6673TIP3   OH241509   6.563   4.571  16.036 -0.0479  0.0926  0.4728
 6673TIP3    H141510   6.471   4.542  16.039 -0.2975  0.3691 -2.1896
 6673TIP3    H241511   6.613   4.493  16.061 -0.9922 -0.0544  1.9951
 6674TIP3   OH241512   2.533   5.326  16.243 -0.3618  0.2242 -0.6866
 6674TIP3    H141513   2.603   5.386  16.218  0.2201 -0.7602 -1.5003
 6674TIP3    H241514   2.542   5.316  16.338  0.1800  0.6292 -0.6932
 6675TIP3   OH241515   3.616   2.282  14.493 -0.5379  1.2506  0.2010
 6675TIP3    H141516   3.594   2.356  14.436 -1.9585  0.6682 -0.0442
 6675TIP3    H241517   3.546   2.219  14.479  0.9570 -0.4407 -0.0876
 6676TIP3   OH241518   0.835   5.069  15.875 -0.6178 -0.5623  0.3176
 6676TIP3    H141519   0.853   5.036  15.963 -1.8294  0.5335  1.0070
 6676TIP3    H241520   0.839   5.164  15.884  0.0010 -0.4481 -0.9925
 6677TIP3   OH241521   5.399   5.016  12.922  0.0259  0.2404  0.4401
 6677TIP3    H141522   5.355   4.941  12.962  0.9350 -0.3456  0.3886
 6677TIP3    H241523   5.436   5.065  12.996 -1.1838  1.0627  0.5253
 6678TIP3   OH241524   1.986   3.590   2.556  0.2343  0.2910  0.2606
 6678TIP3    H141525   2.021   3.627   2.475  2.0359 -0.9770  0.3891
 6678TIP3    H241526   2.032   3.507   2.565 -2.4722 -1.2639  0.7907
 6679TIP3   OH241527   5.817   2.179  15.763 -0.9000 -0.4274 -0.1524
 6679TIP3    H141528   5.763   2.101  15.759  2.2271 -2.9089  1.1761
 6679TIP3    H241529   5.789   2.223  15.844 -3.8128  0.9190 -1.7458
 6680TIP3   OH241530   1.575   2.224  13.187  0.1653  0.0236 -0.3489
 6680TIP3    H141531   1.571   2.199  13.095 -2.3933  3.9254 -1.5423
 6680TIP3    H241532   1.643   2.291  13.190  0.2779 -0.1200  0.6586
 6681TIP3   OH241533   2.491   3.535  11.976  0.0734 -0.0030 -0.2620
 6681TIP3    H141534   2.427   3.542  12.047 -0.3506 -0.3114 -0.6101
 6681TIP3    H241535   2.503   3.441  11.963  1.1291  0.0373  0.2662
 6682TIP3   OH241536   4.418   3.045  11.236 -0.3874 -0.5226 -0.2157
 6682TIP3    H141537   4.506   3.082  11.247 -0.9273  0.3789  1.4591
 6682TIP3    H241538   4.425   2.989  11.159  2.0676 -1.7237  0.7788
 6683TIP3   OH241539   6.661   2.614  14.331  0.3161  0.3541  0.0958
 6683TIP3    H141540   6.727   2.682  14.322 -0.7798  1.3154 -1.1638
 6683TIP3    H241541   6.578   2.659  14.312 -0.3128 -1.5737 -2.2313
 6684TIP3   OH241542   1.393   2.652   1.341 -0.4311  0.8873  0.7666
 6684TIP3    H141543   1.395   2.701   1.423 -0.2848 -0.0925  1.3671
 6684TIP3    H241544   1.300   2.648   1.318 -0.5962  0.2535  1.4718
 6685TIP3   OH241545   4.403   2.018  12.418  0.5672  0.5828 -0.5465
 6685TIP3    H141546   4.397   1.935  12.370  1.2397 -0.3454  0.9096
 6685TIP3    H241547   4.340   2.075  12.373 -1.3654 -1.2929 -0.4290
 6686TIP3   OH241548   6.645   6.213   2.508  1.0638 -0.0561  0.3639
 6686TIP3    H141549   6.576   6.157   2.473  1.4359 -0.6589  0.5745
 6686TIP3    H241550   6.611   6.243   2.592  1.3017 -0.8750  0.7715
 6687TIP3   OH241551   0.411   2.231  13.475 -0.5951  0.2618  0.6471
 6687TIP3    H141552   0.405   2.140  13.502 -0.8675 -0.2909 -1.1509
 6687TIP3    H241553   0.335   2.273  13.514  0.1379 -0.0008  2.4218
 6688TIP3   OH241554   6.408   6.786   5.728 -0.0906 -0.2302 -0.2309
 6688TIP3    H141555   6.399   6.788   5.633  1.9510 -0.4079 -0.4719
 6688TIP3    H241556   6.502   6.771   5.743 -0.2335  0.6228  1.8095
 6689TIP3   OH241557   6.375   3.576   4.816 -0.3620 -0.5977 -0.7076
 6689TIP3    H141558   6.351   3.614   4.901  2.0586 -1.4464  0.4430
 6689TIP3    H241559   6.319   3.500   4.807  1.3852 -2.3278  1.7133
 6690TIP3   OH241560   3.468   6.447  16.216  0.6215 -0.0550  0.8611
 6690TIP3    H141561   3.548   6.462  16.266  0.2117  0.1360  1.4725
 6690TIP3    H241562   3.444   6.533  16.183  0.8041 -0.1542  0.4717
 6691TIP3   OH241563   5.410   2.112   6.432  0.1437  0.5352 -0.4846
 6691TIP3    H141564   5.443   2.069   6.511 -0.1078 -1.6086 -1.4838
 6691TIP3    H241565   5.488   2.143   6.386  0.5110 -0.7945 -0.7894
 6692TIP3   OH241566   0.579   4.149  15.888 -0.0024 -0.2590 -0.1442
 6692TIP3    H141567   0.596   4.070  15.939 -0.4345 -0.0428  0.3376
 6692TIP3    H241568   0.663   4.167  15.845  1.1128  0.8308  2.2624
 6693TIP3   OH241569   3.823   6.147  13.916  0.3653 -0.0421 -0.1513
 6693TIP3    H141570   3.835   6.100  13.834 -0.7888 -1.0417  0.2128
 6693TIP3    H241571   3.860   6.089  13.982 -1.4096 -0.6932  0.3489
 6694TIP3   OH241572   5.997   5.115  13.580  0.0255  0.3393 -0.3292
 6694TIP3    H141573   6.026   5.126  13.490  1.6870  2.0008  0.3510
 6694TIP3    H241574   6.075   5.131  13.633 -0.5251 -2.0528  1.4103
 6695TIP3   OH241575   4.673   5.151   2.194 -0.3976  0.2974 -0.6399
 6695TIP3    H141576   4.645   5.060   2.180 -1.9241  0.8003 -1.0995
 6695TIP3    H241577   4.768   5.147   2.196 -0.4036 -1.1881 -1.5924
 6696TIP3   OH241578   2.193   3.192  15.726 -0.0219  0.6823  0.1407
 6696TIP3    H141579   2.171   3.232  15.642 -1.2030 -0.6962 -0.2453
 6696TIP3    H241580   2.114   3.201  15.779 -0.1848 -0.7305  0.1789
 6697TIP3   OH241581   0.266   0.058   2.807 -0.0317  0.0359  1.0203
 6697TIP3    H141582   0.292  -0.031   2.786  0.9776  0.5062  0.2023
 6697TIP3    H241583   0.171   0.052   2.821 -0.3211 -0.8286 -0.9613
 6698TIP3   OH241584   5.447   0.158  11.662 -0.2372  0.0658 -0.0818
 6698TIP3    H141585   5.380   0.196  11.719 -0.6498 -0.2030 -0.3848
 6698TIP3    H241586   5.425   0.190  11.575 -0.0556 -0.1497 -0.2070
 6699TIP3   OH241587   6.023   2.018   1.533 -0.3226 -0.1556 -0.1631
 6699TIP3    H141588   5.951   2.051   1.588 -0.3061  1.3781 -1.0120
 6699TIP3    H241589   5.983   2.005   1.447  0.5223  1.3073 -0.8084
 6700TIP3   OH241590   1.479   4.825   0.568 -0.2021 -0.3231  0.6694
 6700TIP3    H141591   1.387   4.810   0.548 -0.0473  0.3618 -0.6645
 6700TIP3    H241592   1.496   4.770   0.645 -1.2738 -1.8272 -0.1112
 6701TIP3   OH241593   1.359   0.035  16.523 -0.0765 -0.0432 -0.3680
 6701TIP3    H141594   1.308   0.091  16.583 -1.7442 -2.2372  0.4000
 6701TIP3    H241595   1.340   0.070  16.436 -0.4102  1.0761  0.1369
 6702TIP3   OH241596   4.384   0.846  11.610 -0.2145  0.2235  0.3472
 6702TIP3    H141597   4.327   0.899  11.554  0.8456  1.5833  0.5276
 6702TIP3    H241598   4.324   0.806  11.673 -0.9879  1.5830  0.5136
 6703TIP3   OH241599   3.700   5.045   0.993  1.0428 -0.5365  0.0784
 6703TIP3    H141600   3.615   5.002   0.986  0.4397  0.6007  0.1867
 6703TIP3    H241601   3.711   5.091   0.910  1.3529 -0.3310  0.2334
 6704TIP3   OH241602   3.245   5.355   2.555 -0.3057 -0.5516  0.6626
 6704TIP3    H141603   3.288   5.380   2.473  1.0894 -2.2233  0.8387
 6704TIP3    H241604   3.299   5.393   2.624 -1.8541  1.4415  0.8804
 6705TIP3   OH241605   1.245   2.456   3.311 -0.0365 -0.2432  0.0382
 6705TIP3    H141606   1.328   2.412   3.290 -0.3926 -0.5661 -0.7258
 6705TIP3    H241607   1.266   2.549   3.306 -0.0315 -0.2956 -1.5751
 6706TIP3   OH241608   6.269   3.486  16.806 -0.4760 -0.2341 -0.4012
 6706TIP3    H141609   6.334   3.473  16.738 -0.4313  0.8404 -0.5872
 6706TIP3    H241610   6.296   3.567  16.850 -1.2156 -0.2184  0.0528
 6707TIP3   OH241611   0.924   4.984  16.133 -0.6205 -0.5480 -0.0040
 6707TIP3    H141612   0.910   4.959  16.224 -0.5047 -1.6614 -0.2763
 6707TIP3    H241613   1.003   5.038  16.135  0.1071 -1.5720  0.4300
 6708TIP3   OH241614   4.520   4.695  15.720  0.9111  0.4399 -0.4825
 6708TIP3    H141615   4.493   4.704  15.812 -0.1478  0.6997 -0.7984
 6708TIP3    H241616   4.505   4.603  15.700  1.9123  0.2002 -0.1755
 6709TIP3   OH241617   2.065   1.144   0.337  0.2240  0.3244  0.6841
 6709TIP3    H141618   2.046   1.181   0.251  1.1236 -0.8847 -0.0702
 6709TIP3    H241619   2.158   1.163   0.352 -0.3471  2.2566  2.3208
 6710TIP3   OH241620   1.663   1.905   4.566  0.5133  0.4428  0.4221
 6710TIP3    H141621   1.649   1.841   4.635  1.4430  0.4572  0.6426
 6710TIP3    H241622   1.577   1.944   4.551 -0.4084 -1.8726 -0.7595
 6711TIP3   OH241623   2.286   5.309   3.048 -0.1288  0.4389 -0.4416
 6711TIP3    H141624   2.210   5.356   3.081  0.3062  1.3634 -0.7355
 6711TIP3    H241625   2.284   5.225   3.094 -0.3382  1.1423  0.8764
 6712TIP3   OH241626   1.268   2.191  12.270 -0.6490  0.5053 -0.0922
 6712TIP3    H141627   1.287   2.210  12.179 -0.3048 -0.9467 -0.3456
 6712TIP3    H241628   1.278   2.275  12.315  1.6526  0.7662 -0.9722
 6713TIP3   OH241629   2.572   2.325   5.417  0.4699  0.5644  0.0658
 6713TIP3    H141630   2.630   2.277   5.475 -0.1957  1.0627  1.1804
 6713TIP3    H241631   2.505   2.363   5.475 -1.6413 -0.9079 -1.2440
 6714TIP3   OH241632   5.001   4.234   4.461 -0.2340 -0.6856 -0.3771
 6714TIP3    H141633   5.094   4.256   4.455  0.0335 -1.9238 -1.5190
 6714TIP3    H241634   4.962   4.272   4.382 -1.2103  1.8462  1.2275
 6715TIP3   OH241635   6.195   1.075  15.863 -0.8440  0.2427  0.5792
 6715TIP3    H141636   6.278   1.122  15.856 -0.8415  0.4683  1.8683
 6715TIP3    H241637   6.132   1.141  15.892 -0.7279 -0.6019  2.9432
 6716TIP3   OH241638   4.517   5.797  13.607  0.1670  0.2420  0.0667
 6716TIP3    H141639   4.556   5.871  13.653  1.5231 -2.2758  3.4673
 6716TIP3    H241640   4.584   5.768  13.546  0.7935  0.2119  0.7485
 6717TIP3   OH241641   5.409   1.052   5.197 -0.2415 -0.2514 -0.0523
 6717TIP3    H141642   5.374   1.140   5.181  0.7228 -0.1376 -1.8965
 6717TIP3    H241643   5.463   1.034   5.120  1.2584 -1.6436  1.2560
 6718TIP3   OH241644   6.017   0.769   0.081  0.0104  0.2471 -0.1948
 6718TIP3    H141645   6.056   0.778   0.168 -1.3515 -0.7908  0.5597
 6718TIP3    H241646   6.036   0.679   0.056 -2.3795 -0.5075  0.4823
 6719TIP3   OH241647   1.228   4.840  14.783  0.1706 -0.0612 -0.2325
 6719TIP3    H141648   1.247   4.753  14.749  0.1736  0.5310 -1.8089
 6719TIP3    H241649   1.151   4.870  14.734  0.2806  0.9078  0.1497
 6720TIP3   OH241650   1.959   4.164  16.960 -0.2278  0.1261 -0.4368
 6720TIP3    H141651   2.052   4.153  16.980 -0.3475  1.9156  1.3786
 6720TIP3    H241652   1.958   4.191  16.868  1.0155 -0.2634 -0.5830
 6721TIP3   OH241653   2.567   2.993   3.857 -0.2925 -0.1399  0.1444
 6721TIP3    H141654   2.538   2.912   3.900  2.1389 -0.2241  1.7790
 6721TIP3    H241655   2.544   2.980   3.765  2.8388 -4.2587 -0.3530
 6722TIP3   OH241656   2.260   1.308  15.834 -0.0602 -0.5062 -0.0858
 6722TIP3    H141657   2.180   1.343  15.796 -1.2411 -1.9096  0.9912
 6722TIP3    H241658   2.249   1.213  15.831  0.5677 -0.7107  2.0950
 6723TIP3   OH241659   0.777   2.247  15.468 -0.1137 -0.4539  0.0139
 6723TIP3    H141660   0.779   2.155  15.442 -1.4037 -0.4403 -0.2216
 6723TIP3    H241661   0.868   2.277  15.462  0.2787 -1.6514 -0.1148
 6724TIP3   OH241662   4.199   1.205   2.599 -0.2358 -0.7063  0.3982
 6724TIP3    H141663   4.269   1.267   2.620  0.9367 -1.6940 -0.4421
 6724TIP3    H241664   4.143   1.252   2.537  0.5791 -0.4303 -0.1455
 6725TIP3   OH241665   2.083   5.730   3.287 -0.4795  0.2296  0.2952
 6725TIP3    H141666   2.014   5.783   3.246 -0.5232  0.8533  1.1606
 6725TIP3    H241667   2.164   5.778   3.268 -0.2579 -0.4792 -0.6826
 6726TIP3   OH241668   3.735   6.611   3.651  0.4848  0.1745  0.0137
 6726TIP3    H141669   3.678   6.661   3.711 -0.4599  0.4956 -1.1131
 6726TIP3    H241670   3.822   6.618   3.690  0.2249  1.9388  0.3992
 6727TIP3   OH241671   2.391   2.426   3.016  0.3879 -0.6701  0.2952
 6727TIP3    H141672   2.465   2.368   3.002  0.0147 -1.3889  1.1712
 6727TIP3    H241673   2.316   2.379   2.978  0.1027 -0.7227  0.9117
 6728TIP3   OH241674   1.908   0.668  15.789  0.9130 -0.8660 -1.0678
 6728TIP3    H141675   1.878   0.699  15.874 -0.3307 -2.1925 -0.9816
 6728TIP3    H241676   1.843   0.699  15.727  1.8565  0.1602 -1.5647
 6729TIP3   OH241677   1.280   6.353   5.468  0.0201 -0.1933  0.1527
 6729TIP3    H141678   1.352   6.414   5.450 -0.2041  0.2024  0.5840
 6729TIP3    H241679   1.209   6.381   5.411  0.2160 -0.6177 -0.3133
 6730TIP3   OH241680   3.160   2.803  10.312  0.4366 -0.4227 -0.3049
 6730TIP3    H141681   3.124   2.746  10.380  1.9526 -1.9042 -0.6861
 6730TIP3    H241682   3.253   2.781  10.308  0.2192 -1.3011 -3.6743
 6731TIP3   OH241683   4.458   5.698  17.301 -0.0217 -0.0754  0.1303
 6731TIP3    H141684   4.386   5.639  17.325 -0.4797 -0.3651 -1.7738
 6731TIP3    H241685   4.461   5.762  17.371 -1.1202 -0.9572  1.0284
 6732TIP3   OH241686   2.698   4.913  12.774  0.4803 -0.5608  0.8762
 6732TIP3    H141687   2.727   4.873  12.855  1.5954  0.8904  1.2334
 6732TIP3    H241688   2.736   5.001  12.775  0.9527 -0.6724 -1.4410
 6733TIP3   OH241689   5.621   3.628  16.887 -0.0202 -0.2603  0.2728
 6733TIP3    H141690   5.558   3.698  16.873 -2.0339 -2.1823 -1.0740
 6733TIP3    H241691   5.630   3.622  16.982  0.8528  2.2522  0.4251
 6734TIP3   OH241692   2.647   2.365   2.150  0.1570  0.0732 -0.1887
 6734TIP3    H141693   2.644   2.456   2.181 -0.8168 -0.1799  0.5293
 6734TIP3    H241694   2.714   2.365   2.082  1.2473  1.0156  0.8312
 6735TIP3   OH241695   2.526   3.875  16.651  0.0433  0.2514  0.9723
 6735TIP3    H141696   2.593   3.808  16.660  0.1460  0.2882  0.4985
 6735TIP3    H241697   2.542   3.935  16.724  0.9796  0.6560  0.4543
 6736TIP3   OH241698   3.267   4.421   1.169  0.6006  0.3009 -0.2638
 6736TIP3    H141699   3.274   4.348   1.108 -2.2599 -0.9146  0.6905
 6736TIP3    H241700   3.310   4.390   1.249 -0.5222 -0.3292  0.1074
 6737TIP3   OH241701   6.021   4.064  16.164  0.2635 -0.9173 -0.6190
 6737TIP3    H141702   5.984   4.003  16.100 -0.6791 -0.2085 -0.7818
 6737TIP3    H241703   6.115   4.052  16.158  0.1118 -2.1514 -0.8476
 6738TIP3   OH241704   4.764   3.996  14.498  0.1108 -0.5165  0.5150
 6738TIP3    H141705   4.805   4.040  14.423 -0.3384 -0.3895  0.3385
 6738TIP3    H241706   4.683   4.045  14.513  0.3416 -0.3483  1.2816
 6739TIP3   OH241707   2.615   5.868   3.129 -0.7197 -0.3760 -0.1877
 6739TIP3    H141708   2.621   5.824   3.214  0.1434 -0.0716 -0.0811
 6739TIP3    H241709   2.620   5.961   3.150  0.2888 -0.3246 -0.6327
 6740TIP3   OH241710   2.992   0.290  13.713 -0.3640 -0.0809 -0.2414
 6740TIP3    H141711   2.953   0.204  13.726  1.0805 -0.7828 -0.3469
 6740TIP3    H241712   3.072   0.273  13.662 -0.3590  1.3881 -0.7955
 6741TIP3   OH241713   3.165   6.508   0.390 -0.7234  0.4830  0.0777
 6741TIP3    H141714   3.195   6.534   0.302  2.7236 -2.0373  0.2699
 6741TIP3    H241715   3.142   6.590   0.432  1.1446  2.2438 -2.0290
 6742TIP3   OH241716   0.435   3.242   4.605 -0.1505 -0.9103  0.0050
 6742TIP3    H141717   0.502   3.201   4.550 -0.2996 -0.9892 -0.1156
 6742TIP3    H241718   0.370   3.174   4.619 -0.5054 -0.6529 -0.3738
 6743TIP3   OH241719   2.856   2.161   0.797  0.1393  0.4382  0.3233
 6743TIP3    H141720   2.879   2.243   0.754 -2.1991  0.6544 -0.6431
 6743TIP3    H241721   2.919   2.153   0.869  2.0635  1.7233 -1.1324
 6744TIP3   OH241722   4.645   6.514  15.330 -0.1437 -0.0342  0.5788
 6744TIP3    H141723   4.567   6.493  15.279 -0.1235 -0.5448  0.7515
 6744TIP3    H241724   4.647   6.447  15.399  0.7039 -0.3122  0.2917
 6745TIP3   OH241725   5.257   1.462  16.505 -0.0097 -0.3140  0.4004
 6745TIP3    H141726   5.232   1.541  16.553 -0.9244  0.0379 -0.6242
 6745TIP3    H241727   5.351   1.471  16.492  0.1540 -0.1391  1.6076
 6746TIP3   OH241728   0.410   5.688  15.945 -0.4723  0.4307 -0.2226
 6746TIP3    H141729   0.385   5.777  15.968  3.0077  0.7476  3.4857
 6746TIP3    H241730   0.355   5.632  15.999 -0.7263  0.4593 -0.4475
 6747TIP3   OH241731   1.857   5.971   2.932 -0.2886  0.3835  0.0461
 6747TIP3    H141732   1.842   6.065   2.924 -1.4525  0.2452  0.3403
 6747TIP3    H241733   1.788   5.932   2.878  0.6504 -0.2984 -0.6897
 6748TIP3   OH241734   2.461   0.637  15.120  0.0830 -0.4703 -0.0490
 6748TIP3    H141735   2.529   0.614  15.056 -1.0165 -0.9549 -1.0779
 6748TIP3    H241736   2.401   0.694  15.073 -0.4125 -0.3063  0.7506
 6749TIP3   OH241737   3.639   4.324  12.105 -0.0264 -0.1563 -0.2512
 6749TIP3    H141738   3.666   4.413  12.130  1.9194 -0.7731 -0.0477
 6749TIP3    H241739   3.701   4.298  12.037 -1.1996 -1.0061 -1.0313
 6750TIP3   OH241740   0.283   0.623  12.525  0.5646 -0.2330 -0.0546
 6750TIP3    H141741   0.191   0.628  12.498  0.2125 -2.2005  0.6384
 6750TIP3    H241742   0.330   0.604  12.444 -0.0156 -2.1337  0.0116
 6751TIP3   OH241743   4.748   6.079   2.943  0.2290 -0.1334  0.1035
 6751TIP3    H141744   4.682   6.011   2.958 -0.0077  0.0921  0.0941
 6751TIP3    H241745   4.829   6.031   2.925  0.0509 -0.4121  0.0440
 6752TIP3   OH241746   4.238   0.949   5.526 -0.8348 -0.0780  0.1724
 6752TIP3    H141747   4.229   0.980   5.617 -2.2317  1.9719 -0.5838
 6752TIP3    H241748   4.183   1.009   5.475  1.7162  0.3344 -2.3759
 6753TIP3   OH241749   3.370   0.170   3.269 -0.6160  0.0012  0.9140
 6753TIP3    H141750   3.405   0.223   3.197  0.6628 -0.0254  1.4933
 6753TIP3    H241751   3.277   0.162   3.249 -0.4809  0.8702 -0.1875
 6754TIP3   OH241752   2.447   0.963   2.695  0.5913 -0.0610 -0.2335
 6754TIP3    H141753   2.484   0.986   2.610  0.0269 -0.5790 -0.6294
 6754TIP3    H241754   2.402   1.043   2.725  1.9051  0.5442  0.2099
 6755TIP3   OH241755   5.594   4.360  15.096 -0.0883  0.3392  0.3580
 6755TIP3    H141756   5.643   4.397  15.023  0.7257  0.1839  0.8039
 6755TIP3    H241757   5.502   4.370  15.072  0.1637  0.5038 -0.5714
 6756TIP3   OH241758   3.374   2.941  14.480 -0.0721 -0.2815  0.2960
 6756TIP3    H141759   3.348   3.030  14.504  0.5416 -0.2026  0.6924
 6756TIP3    H241760   3.469   2.946  14.468 -0.0282 -0.8908  0.3599
 6757TIP3   OH241761   3.256   5.898  12.114 -0.1618 -0.7546  0.1537
 6757TIP3    H141762   3.271   5.806  12.135  1.0415 -0.3992  0.9488
 6757TIP3    H241763   3.240   5.940  12.198 -0.6797 -0.2208 -0.2006
 6758TIP3   OH241764   6.058   6.113  12.650 -0.0556 -0.2132  0.1331
 6758TIP3    H141765   6.014   6.036  12.614  0.3318  0.2315 -1.3394
 6758TIP3    H241766   6.092   6.083  12.734 -0.5213 -1.4407 -0.0855
 6759TIP3   OH241767   6.379   3.805   6.030  0.9821 -0.3245 -0.2761
 6759TIP3    H141768   6.430   3.771   6.104  0.4290 -0.3233  0.1133
 6759TIP3    H241769   6.289   3.781   6.051  0.7985 -0.1563 -0.8639
 6760TIP3   OH241770   2.297   5.486  12.998 -0.3979 -0.7752 -0.1844
 6760TIP3    H141771   2.243   5.522  13.068  0.3194  0.8360 -0.4224
 6760TIP3    H241772   2.236   5.470  12.926 -0.9817 -1.5754  0.4602
 6761TIP3   OH241773   4.952   2.321  12.308  0.4672  0.2423 -0.3660
 6761TIP3    H141774   4.960   2.328  12.213 -1.8102  0.1819 -0.6275
 6761TIP3    H241775   4.914   2.405  12.335  1.7785  0.5564  0.6266
 6762TIP3   OH241776   0.641   0.667   1.466  0.6335  0.0262 -0.1891
 6762TIP3    H141777   0.712   0.708   1.515  0.8514 -0.6915  0.1173
 6762TIP3    H241778   0.636   0.578   1.501  0.2935 -0.2678 -0.9495
 6763TIP3   OH241779   0.468   2.803  14.133  0.2200  0.0156  0.3477
 6763TIP3    H141780   0.554   2.844  14.126 -0.3930  1.2384 -0.5791
 6763TIP3    H241781   0.477   2.720  14.087  0.7793  0.3622 -0.1864
 6764TIP3   OH241782   2.331   2.764  13.682  1.1681  0.3062 -0.0216
 6764TIP3    H141783   2.420   2.753  13.648  1.0045  1.9300 -1.1195
 6764TIP3    H241784   2.280   2.790  13.605 -0.5994 -2.0189  0.2893
 6765TIP3   OH241785   3.797   5.791  11.305 -0.0428 -0.4404  0.3112
 6765TIP3    H141786   3.791   5.879  11.267 -0.1420 -0.0403  1.2328
 6765TIP3    H241787   3.709   5.772  11.336  0.3976  0.0023  1.9659
 6766TIP3   OH241788   0.760   1.716  13.770  0.0692 -0.5977  0.2499
 6766TIP3    H141789   0.789   1.627  13.754  0.8793 -0.3313  0.1927
 6766TIP3    H241790   0.724   1.745  13.686 -1.2263 -1.2319  0.5581
 6767TIP3   OH241791   4.492   5.807  17.041  0.2086 -0.4343 -0.2885
 6767TIP3    H141792   4.415   5.855  17.071 -0.0969  0.4134 -2.2321
 6767TIP3    H241793   4.544   5.791  17.120 -0.6171  1.4207  0.6748
 6768TIP3   OH241794   5.499   4.372   4.431  0.1283  0.4838 -0.5611
 6768TIP3    H141795   5.527   4.299   4.375  0.2342 -0.7741  1.0280
 6768TIP3    H241796   5.546   4.448   4.397 -0.7531  0.0696 -2.9062
 6769TIP3   OH241797   5.889   1.639   0.398 -0.4983 -0.2423  0.4569
 6769TIP3    H141798   5.932   1.717   0.364 -1.2452  0.1045  0.2893
 6769TIP3    H241799   5.829   1.672   0.465 -0.4473 -0.7261  0.7478
 6770TIP3   OH241800   2.864   5.812   6.216  0.7038  0.2848  0.0614
 6770TIP3    H141801   2.793   5.875   6.203  0.4689 -0.2690 -1.6167
 6770TIP3    H241802   2.917   5.850   6.286  0.4154  2.2170 -0.6955
 6771TIP3   OH241803   5.793   3.135   1.431  0.1018 -0.2082 -0.5053
 6771TIP3    H141804   5.711   3.177   1.405 -0.1622 -0.9822 -0.9665
 6771TIP3    H241805   5.767   3.067   1.493  0.6958  1.4271  1.6696
 6772TIP3   OH241806   2.354   0.797  10.939 -0.0015 -0.1071 -0.7238
 6772TIP3    H141807   2.306   0.879  10.935  0.4182  0.2695  1.0972
 6772TIP3    H241808   2.289   0.730  10.919 -0.9123  0.5058  0.1173
 6773TIP3   OH241809   3.303   3.037   0.904 -0.3687 -0.0164  0.3376
 6773TIP3    H141810   3.297   3.037   0.809 -1.9207  1.7324  0.3827
 6773TIP3    H241811   3.213   3.053   0.934  0.2598  0.4898  2.0685
 6774TIP3   OH241812   0.539   3.301   0.977  0.1106 -0.2737 -0.1802
 6774TIP3    H141813   0.596   3.238   0.933  0.5566 -0.7820  1.0867
 6774TIP3    H241814   0.452   3.285   0.938 -0.3460 -3.4378  1.7602
 6775TIP3   OH241815   5.109   2.888  15.596 -0.2003 -0.1103 -0.0528
 6775TIP3    H141816   5.033   2.917  15.545 -1.1166 -0.5979  0.9846
 6775TIP3    H241817   5.163   2.966  15.604  0.0755 -0.0640 -1.9081
 6776TIP3   OH241818   0.325   3.224  17.029 -0.1441  0.3936  0.0562
 6776TIP3    H141819   0.351   3.296  16.972  0.0586 -1.1437 -1.9001
 6776TIP3    H241820   0.405   3.197  17.073 -0.2890  1.5416  1.0849
 6777TIP3   OH241821   4.000   1.464  14.450  0.8405  0.0559 -0.0326
 6777TIP3    H141822   4.040   1.548  14.431  1.6240  0.2987  2.2791
 6777TIP3    H241823   4.019   1.449  14.543 -2.3624 -0.9825  0.5944
 6778TIP3   OH241824   5.279   5.635   5.421  0.2358  0.1707 -0.0827
 6778TIP3    H141825   5.355   5.630   5.480 -0.6863  0.1126  1.1242
 6778TIP3    H241826   5.313   5.678   5.342  1.5428  0.0611  0.3917
 6779TIP3   OH241827   3.020   4.560   3.491  0.2792  0.4137 -0.2030
 6779TIP3    H141828   3.113   4.545   3.471  1.0004  3.1063  0.7796
 6779TIP3    H241829   2.985   4.472   3.508  2.4548 -0.7402 -1.2282
 6780TIP3   OH241830   5.983   0.458   3.631 -0.0768  0.4001 -0.3249
 6780TIP3    H141831   6.006   0.551   3.626 -0.4608  0.4618 -1.1145
 6780TIP3    H241832   5.907   0.456   3.690  1.2935  0.3053  1.5156
 6781TIP3   OH241833   0.820   3.973  13.391 -0.0201 -0.2152  1.0193
 6781TIP3    H141834   0.744   4.024  13.364 -0.9662 -0.5878  2.8735
 6781TIP3    H241835   0.839   3.916  13.316 -1.1102  0.3798  0.2719
 6782TIP3   OH241836   3.471   3.163   1.879  0.0106 -0.2157 -0.3769
 6782TIP3    H141837   3.415   3.098   1.921 -0.2052  1.0780  1.4873
 6782TIP3    H241838   3.422   3.245   1.886  1.2976  0.5891 -0.4452
 6783TIP3   OH241839   3.606   2.757   1.656 -0.3056 -0.7391 -0.4725
 6783TIP3    H141840   3.663   2.833   1.641 -0.2534 -0.5776  0.4553
 6783TIP3    H241841   3.664   2.682   1.648  0.1948 -0.5516  1.0078
 6784TIP3   OH241842   6.133   1.409  10.781  0.6029  0.1216 -0.6103
 6784TIP3    H141843   6.179   1.329  10.805 -0.0355  0.0345  0.3473
 6784TIP3    H241844   6.102   1.445  10.863 -2.9059 -0.9594 -1.2900
 6785TIP3   OH241845   3.233   3.091  15.571 -0.0483  0.2848 -0.8122
 6785TIP3    H141846   3.162   3.033  15.545  0.9166 -0.0171 -3.0477
 6785TIP3    H241847   3.198   3.179  15.560 -0.8214  0.1536  0.4677
 6786TIP3   OH241848   3.586   1.965   3.722 -0.2515  0.5278  0.3117
 6786TIP3    H141849   3.589   1.907   3.646  1.4905 -0.8680  1.3676
 6786TIP3    H241850   3.497   2.001   3.722 -0.7563 -0.6237 -1.4977
 6787TIP3   OH241851   6.414   1.103  16.570  0.1640 -0.3908  0.5560
 6787TIP3    H141852   6.391   1.118  16.479  0.4876  0.1015  0.5521
 6787TIP3    H241853   6.400   1.009  16.583 -0.1596 -0.4115  0.0835
 6788TIP3   OH241854   5.464   1.274   3.225 -0.3556  0.2149  0.6151
 6788TIP3    H141855   5.529   1.266   3.156  0.6713 -0.4741  1.6325
 6788TIP3    H241856   5.512   1.308   3.300 -1.2945  0.2478  1.2173
 6789TIP3   OH241857   0.951   3.426   4.633  0.7724 -0.2075 -0.6135
 6789TIP3    H141858   1.032   3.400   4.676 -0.3310 -1.5826  0.7603
 6789TIP3    H241859   0.892   3.352   4.646 -0.8424  0.9039 -1.2192
 6790TIP3   OH241860   0.116   6.081  14.271  0.5240  1.1407 -0.9470
 6790TIP3    H141861   0.083   6.091  14.182 -3.1227 -0.8318 -0.0474
 6790TIP3    H241862   0.091   6.163  14.314 -1.1701  0.6306 -0.8943
 6791TIP3   OH241863   4.223   2.029  15.903 -0.2178 -0.3795 -0.7610
 6791TIP3    H141864   4.214   2.051  15.996 -0.8716 -1.7907 -0.4658
 6791TIP3    H241865   4.162   2.088  15.858 -0.1251  0.0997 -0.2554
 6792TIP3   OH241866   5.150   6.238   0.927 -0.2312 -0.7036  0.1626
 6792TIP3    H141867   5.086   6.241   0.998 -0.9643  2.9813 -0.4580
 6792TIP3    H241868   5.105   6.192   0.856 -1.3903 -0.0786  0.4664
 6793TIP3   OH241869   0.954   5.689  16.557  0.2281 -0.0749 -0.6905
 6793TIP3    H141870   1.049   5.698  16.563  0.3376 -1.6624  0.8709
 6793TIP3    H241871   0.920   5.741  16.630 -0.0971  0.2995 -1.1029
 6794TIP3   OH241872   1.866   1.551   0.681  0.8071 -0.3908 -0.3272
 6794TIP3    H141873   1.865   1.491   0.756  0.6111 -0.5392 -0.4462
 6794TIP3    H241874   1.904   1.631   0.715  2.8941 -1.2038 -0.6368
 6795TIP3   OH241875   5.089   5.542   4.420 -0.5926  0.7415 -0.4858
 6795TIP3    H141876   5.040   5.501   4.349  0.1552  0.5956 -0.9361
 6795TIP3    H241877   5.165   5.485   4.432 -0.8179  0.6405  0.5931
 6796TIP3   OH241878   1.819   6.405  12.122  0.0809 -0.0997 -0.4521
 6796TIP3    H141879   1.772   6.471  12.173  1.4914 -0.6436  1.6724
 6796TIP3    H241880   1.880   6.455  12.068 -0.9942  0.4517 -1.1995
 6797TIP3   OH241881   5.798   4.345  10.688 -0.1737 -0.1949  0.2346
 6797TIP3    H141882   5.750   4.276  10.642  0.1140  0.1133 -0.5242
 6797TIP3    H241883   5.734   4.382  10.749 -0.4113 -0.9328  0.4442
 6798TIP3   OH241884   0.056   0.682  16.919 -0.8581  0.2448  0.3581
 6798TIP3    H141885   0.094   0.620  16.982 -0.6188  0.1604  0.1306
 6798TIP3    H241886  -0.022   0.716  16.963  0.1602  1.3810  1.3724
 6799TIP3   OH241887   4.315   0.676   6.512 -0.1725  0.2223 -0.2725
 6799TIP3    H141888   4.316   0.593   6.558  3.5037  0.5082  0.4818
 6799TIP3    H241889   4.274   0.656   6.427  1.3415 -2.6074 -0.4594
 6800TIP3   OH241890   0.208   0.928   4.912 -0.2901 -0.2049 -0.5116
 6800TIP3    H141891   0.298   0.897   4.899  0.0204 -0.0263  0.9967
 6800TIP3    H241892   0.176   0.877   4.986 -0.9716  0.6696 -0.1904
 6801TIP3   OH241893   0.372   3.505   0.368  0.2313  0.7158  0.5077
 6801TIP3    H141894   0.344   3.413   0.365  0.5769  0.5205  2.2111
 6801TIP3    H241895   0.300   3.553   0.328  0.2698 -0.3171 -0.8972
 6802TIP3   OH241896   3.827   4.907   0.468 -0.4209 -0.5291  0.3409
 6802TIP3    H141897   3.837   4.897   0.373 -1.4311  0.6510  0.0943
 6802TIP3    H241898   3.816   4.817   0.500  0.9497 -1.0427 -0.5137
 6803TIP3   OH241899   0.217   1.319  16.182 -0.8457 -0.0085  0.6673
 6803TIP3    H141900   0.296   1.370  16.201 -0.0122 -0.5045 -1.2680
 6803TIP3    H241901   0.249   1.230  16.167 -1.7324 -0.1607 -0.4178
 6804TIP3   OH241902   4.875   6.519   0.909  0.4029 -0.3044 -0.0363
 6804TIP3    H141903   4.853   6.518   1.002  0.0644 -1.8269 -0.0994
 6804TIP3    H241904   4.937   6.591   0.900  1.9454 -1.2963  1.7464
 6805TIP3   OH241905   0.348   5.759  16.843  0.3096  0.3385 -0.2238
 6805TIP3    H141906   0.441   5.761  16.818  0.7192 -1.0439  1.0578
 6805TIP3    H241907   0.333   5.670  16.873 -1.1031  0.8918  0.8300
 6806TIP3   OH241908   2.438   3.851   3.823  0.2327  0.2822 -0.1596
 6806TIP3    H141909   2.396   3.889   3.746 -1.8618 -2.5179 -0.5690
 6806TIP3    H241910   2.391   3.888   3.897 -1.5238 -1.0590 -0.5309
 6807TIP3   OH241911   6.133   0.251  17.125  0.2817  0.0033 -0.4596
 6807TIP3    H141912   6.070   0.242  17.196 -0.5103  0.8098 -1.0431
 6807TIP3    H241913   6.219   0.242  17.168 -0.2070 -1.5843  0.2675
 6808TIP3   OH241914   1.779   4.345   0.680  0.1190 -0.1125  0.9509
 6808TIP3    H141915   1.853   4.290   0.705  0.5641 -1.0771 -2.0775
 6808TIP3    H241916   1.816   4.409   0.619 -1.3891 -0.0692  0.0424
 6809TIP3   OH241917   5.785   2.348   4.165  0.1088 -0.3219 -0.4177
 6809TIP3    H141918   5.711   2.319   4.112  0.3896 -0.2433 -0.8617
 6809TIP3    H241919   5.782   2.444   4.160  1.0625 -0.3362 -1.6109
 6810TIP3   OH241920   1.108   1.062   2.938  0.6227 -0.6648  0.6328
 6810TIP3    H141921   1.110   0.974   2.900  0.2099 -0.6717  0.6183
 6810TIP3    H241922   1.139   1.119   2.867 -1.1769 -0.5493 -0.1209
 6811TIP3   OH241923   4.955   1.028   1.302 -0.1088 -0.6749 -0.5359
 6811TIP3    H141924   4.930   1.120   1.298 -0.7679 -0.8616 -0.9241
 6811TIP3    H241925   4.937   1.003   1.392 -1.5067 -0.8377 -0.8369
 6812TIP3   OH241926   6.479   5.658  15.772 -0.4258  0.2211  0.7523
 6812TIP3    H141927   6.451   5.747  15.749  0.8835  1.0586  2.1373
 6812TIP3    H241928   6.398   5.610  15.787 -1.2272  0.5913 -1.9455
 6813TIP3   OH241929   6.573   1.930  13.342 -0.0514 -0.7658  0.0744
 6813TIP3    H141930   6.479   1.925  13.322  0.5673 -0.1185 -4.0065
 6813TIP3    H241931   6.603   1.839  13.336 -0.1223 -0.7383 -0.9531
 6814TIP3   OH241932   6.684   5.688  10.874 -0.6780 -0.1724 -0.1361
 6814TIP3    H141933   6.631   5.676  10.953 -0.6008 -0.8494 -0.1782
 6814TIP3    H241934   6.685   5.602  10.833 -0.7038  0.1739 -0.8707
 6815TIP3   OH241935   0.071   1.503  13.423 -0.0891  0.5918 -0.3174
 6815TIP3    H141936   0.079   1.598  13.431 -1.0767  0.6069  0.9156
 6815TIP3    H241937   0.018   1.477  13.498 -1.1031 -0.7626 -1.4327
 6816TIP3   OH241938   3.180   2.279  14.588 -0.3991  0.0051 -0.2237
 6816TIP3    H141939   3.094   2.298  14.626 -1.3360 -0.5244 -1.9999
 6816TIP3    H241940   3.197   2.352  14.529  0.1745 -0.1188 -0.2148
 6817TIP3   OH241941   4.896   2.389  14.854  0.6896  0.5780  0.2033
 6817TIP3    H141942   4.847   2.369  14.774  1.0096  2.5672 -0.5595
 6817TIP3    H241943   4.918   2.303  14.890 -1.7057 -0.3905 -0.4092
 6818TIP3   OH241944   4.877   6.063   1.488  0.4591  0.3173 -0.0721
 6818TIP3    H141945   4.804   6.047   1.429  1.8544 -1.2805 -1.4787
 6818TIP3    H241946   4.837   6.084   1.572 -1.5815  0.0414 -0.9344
 6819TIP3   OH241947   3.353   5.115  15.214 -0.4777  0.2936 -0.4759
 6819TIP3    H141948   3.385   5.181  15.275  1.2121 -0.3183 -0.6746
 6819TIP3    H241949   3.397   5.135  15.131  2.6038 -2.8434  0.1712
 6820TIP3   OH241950   5.747   5.159  11.455 -0.2883  0.6883  0.5359
 6820TIP3    H141951   5.821   5.219  11.467  1.1337 -0.6512 -1.0013
 6820TIP3    H241952   5.682   5.211  11.408  0.3997  1.3911  0.3297
 6821TIP3   OH241953   2.720   6.632  17.081  0.0315  0.0133  0.2023
 6821TIP3    H141954   2.664   6.651  17.006  1.8748  1.0268 -1.0112
 6821TIP3    H241955   2.765   6.714  17.099  3.4028 -1.3731 -0.9671
 6822TIP3   OH241956   1.858   5.793  17.138  0.0370 -0.2281  0.3429
 6822TIP3    H141957   1.880   5.714  17.088 -1.1121  0.0661 -0.6795
 6822TIP3    H241958   1.903   5.864  17.092 -0.0791 -0.1026  0.4231
 6823TIP3   OH241959   6.213   1.190   6.030 -0.3554  0.4681  0.0831
 6823TIP3    H141960   6.259   1.207   6.112  1.5161 -1.5793 -0.4573
 6823TIP3    H241961   6.134   1.243   6.036 -0.3439  0.3300  3.2581
 6824TIP3   OH241962   6.542   6.598   0.035  0.3819 -0.0422  0.5555
 6824TIP3    H141963   6.603   6.622  -0.034 -1.7282 -1.0456 -1.8220
 6824TIP3    H241964   6.523   6.680   0.080 -0.2842  1.2721 -1.9115
 6825TIP3   OH241965   6.049   4.984  12.082  0.1526 -0.1188 -0.5150
 6825TIP3    H141966   6.055   5.076  12.108  0.1172  0.0258 -1.0104
 6825TIP3    H241967   5.959   4.959  12.106  0.0139  0.1062 -0.7897
 6826TIP3   OH241968   0.663   6.472  16.470  0.1345 -0.0139  0.0487
 6826TIP3    H141969   0.671   6.393  16.524  2.0810  0.6274  0.8024
 6826TIP3    H241970   0.693   6.444  16.384  1.1416 -0.0472  0.3945
 6827TIP3   OH241971   1.307   5.962  13.141  0.2256  0.4508 -0.4125
 6827TIP3    H141972   1.232   5.969  13.081  0.2208  2.0959 -0.2630
 6827TIP3    H241973   1.383   5.953  13.083 -0.0221 -0.9383 -0.5700
 6828TIP3   OH241974   5.213   1.297   4.539  0.4076  0.8156 -0.3607
 6828TIP3    H141975   5.186   1.386   4.517  1.2560  1.3000  0.4777
 6828TIP3    H241976   5.220   1.298   4.635 -1.4553 -0.7070 -0.1482
 6829TIP3   OH241977   4.905   4.576  13.247  0.3334 -0.4269  0.0363
 6829TIP3    H141978   4.996   4.585  13.274  0.2574 -0.3979  0.2901
 6829TIP3    H241979   4.866   4.662  13.266  0.2183 -0.4864  0.0720
 6830TIP3   OH241980   3.386   4.018  15.643 -0.3449  0.2331 -0.1793
 6830TIP3    H141981   3.393   3.923  15.654 -0.2656  0.3319  0.6887
 6830TIP3    H241982   3.388   4.052  15.732  0.6079  1.1186 -0.5284
 6831TIP3   OH241983   2.129   4.025   1.769 -0.4080 -0.2114  0.1269
 6831TIP3    H141984   2.184   3.948   1.761  0.4353  0.3452  0.4500
 6831TIP3    H241985   2.057   3.999   1.827 -0.0426 -0.6992  0.3573
 6832TIP3   OH241986   2.673   1.137  12.144 -0.5626  0.9092  0.0256
 6832TIP3    H141987   2.722   1.150  12.225  1.3134  0.5905 -0.9824
 6832TIP3    H241988   2.596   1.087  12.170 -0.2341  1.2094  1.6733
 6833TIP3   OH241989   2.021   4.341  13.081 -0.0704  0.2527  0.4340
 6833TIP3    H141990   2.007   4.433  13.102  0.0306 -0.1069  2.1774
 6833TIP3    H241991   2.060   4.342  12.994  0.2273  1.8642  0.5641
 6834TIP3   OH241992   2.615   5.568  14.499 -0.2077 -0.7286 -0.3058
 6834TIP3    H141993   2.672   5.521  14.560 -0.3388  0.5184  0.8156
 6834TIP3    H241994   2.571   5.499  14.450  0.1671 -1.7704  0.7654
 6835TIP3   OH241995   4.806   3.795   4.522  0.2033  0.9134 -0.2012
 6835TIP3    H141996   4.815   3.834   4.609  0.2867  1.0884 -0.2890
 6835TIP3    H241997   4.719   3.755   4.523 -1.6275  4.4225 -1.4215
 6836TIP3   OH241998   1.420   3.680  13.002  0.4518  0.2366  0.5895
 6836TIP3    H141999   1.454   3.611  13.058  0.4401 -1.1966 -1.0802
 6836TIP3    H242000   1.351   3.638  12.950 -3.0589  2.6430  2.7880
 6837TIP3   OH242001   5.200   6.503  13.811 -0.0112  0.1821 -0.3896
 6837TIP3    H142002   5.244   6.442  13.751 -1.2632  1.0439 -2.2540
 6837TIP3    H242003   5.264   6.573  13.825  0.6528 -0.4991  0.1170
 6838TIP3   OH242004   2.791   6.124   3.092 -0.1039 -0.4329  0.2326
 6838TIP3    H142005   2.737   6.078   3.028 -3.2719  0.5396  2.0152
 6838TIP3    H242006   2.800   6.213   3.057  1.0421 -0.7698 -0.3940
 6839TIP3   OH242007   5.105   1.246   6.568 -0.2805 -0.4032  0.4010
 6839TIP3    H142008   5.026   1.297   6.553 -0.9815 -1.3812  0.6459
 6839TIP3    H242009   5.073   1.159   6.594  0.8711 -0.7123  0.8589
 6840TIP3   OH242010   2.049   5.771  14.132 -0.0587  0.2710  0.0573
 6840TIP3    H142011   2.050   5.765  14.036  0.7647  0.5560  0.0345
 6840TIP3    H242012   1.960   5.800  14.153  0.1463  1.5799 -0.7277
 6841TIP3   OH242013   4.318   2.413   5.397 -0.5865  0.5197  0.0149
 6841TIP3    H142014   4.307   2.454   5.482  0.6414  1.9913 -0.4866
 6841TIP3    H242015   4.413   2.400   5.389 -0.5983  1.1852 -1.4569
 6842TIP3   OH242016   5.533   0.168   4.348 -0.4033  0.3357 -0.0737
 6842TIP3    H142017   5.606   0.177   4.409 -0.8941  0.3214  0.5288
 6842TIP3    H242018   5.573   0.147   4.264  0.2719  0.1884  0.2847
 6843TIP3   OH242019   6.533   3.094  11.805  0.3479 -0.8617  0.3770
 6843TIP3    H142020   6.597   3.038  11.763  1.1223 -0.0341  0.4107
 6843TIP3    H242021   6.528   3.171  11.748 -0.7231 -0.9681  0.3038
 6844TIP3   OH242022   4.282   2.264   1.781 -0.1920 -0.1289 -0.3475
 6844TIP3    H142023   4.259   2.203   1.710 -0.6940  0.5675 -0.8012
 6844TIP3    H242024   4.240   2.227   1.858 -0.3403 -0.4554 -0.5791
 6845TIP3   OH242025   0.310   4.109  15.870  0.6655 -0.1085  0.8349
 6845TIP3    H142026   0.405   4.097  15.860  0.4479 -0.4667 -1.2281
 6845TIP3    H242027   0.278   4.119  15.781 -1.3682 -0.7625  1.4428
 6846TIP3   OH242028   1.294   1.746   2.105 -0.8174  1.1930 -0.3754
 6846TIP3    H142029   1.360   1.677   2.115 -0.6072  1.5446  0.8033
 6846TIP3    H242030   1.222   1.703   2.058 -0.9165  0.0044  0.8002
 6847TIP3   OH242031   2.332   3.139  15.379 -0.3775  0.1209 -0.4959
 6847TIP3    H142032   2.239   3.146  15.354 -0.4800 -0.0729 -0.1705
 6847TIP3    H242033   2.354   3.047  15.363 -0.7709 -0.3143  1.2150
 6848TIP3   OH242034   5.712   0.341   0.909 -0.0326 -0.1793 -0.3835
 6848TIP3    H142035   5.775   0.314   0.842  0.5265 -0.4640  0.2440
 6848TIP3    H242036   5.700   0.435   0.894  0.1994 -0.2106 -0.7837
 6849TIP3   OH242037   3.990   6.202  11.337  0.0191 -0.8703 -0.6062
 6849TIP3    H142038   4.085   6.212  11.329  0.0998 -2.3121 -1.8307
 6849TIP3    H242039   3.956   6.290  11.323  1.0875 -0.6432 -2.0684
 6850TIP3   OH242040   5.624   4.692  10.673 -0.0536  0.3582 -0.1287
 6850TIP3    H142041   5.631   4.775  10.625 -0.9905  0.0984 -0.7206
 6850TIP3    H242042   5.601   4.628  10.607 -2.3816  0.1609  0.7968
 6851TIP3   OH242043   0.520   6.271  16.168  0.3000  0.2297 -0.5501
 6851TIP3    H142044   0.506   6.327  16.092  1.3762  0.4268 -0.6159
 6851TIP3    H242045   0.552   6.188  16.132  1.0247  0.4007 -0.2980
 6852TIP3   OH242046   3.044   4.514  10.494 -1.0337 -0.2907 -0.9373
 6852TIP3    H142047   3.031   4.604  10.466  0.5459  0.4914  0.6141
 6852TIP3    H242048   3.116   4.482  10.439  1.4849  0.9673  1.3485
 6853TIP3   OH242049   2.600   3.374   2.002 -0.3982  0.0603  0.1307
 6853TIP3    H142050   2.562   3.336   2.080  1.8222 -0.1042  1.2044
 6853TIP3    H242051   2.585   3.468   2.011 -0.7811 -0.0217  0.3640
 6854TIP3   OH242052   0.663   3.139   2.009  0.4021  0.5134 -0.0033
 6854TIP3    H142053   0.735   3.146   2.072 -0.1141 -0.1189  0.6881
 6854TIP3    H242054   0.594   3.195   2.045  0.7314  1.5339 -0.9380
 6855TIP3   OH242055   4.078   1.876   2.195  0.0585 -0.0566  0.2018
 6855TIP3    H142056   4.028   1.880   2.276  0.3371 -0.4699  0.3999
 6855TIP3    H242057   4.013   1.882   2.126 -0.3029 -0.9072  0.4545
 6856TIP3   OH242058   3.875   0.870  15.284 -0.1368  0.3077 -0.0550
 6856TIP3    H142059   3.951   0.883  15.228 -0.2187 -0.3921 -0.3449
 6856TIP3    H242060   3.831   0.955  15.286  0.4781  0.6319 -0.1367
 6857TIP3   OH242061   4.488   0.273   1.798 -0.4780  0.1172 -0.2481
 6857TIP3    H142062   4.505   0.180   1.783 -0.6368  0.1531 -0.6412
 6857TIP3    H242063   4.575   0.313   1.801 -0.3095 -0.2854  1.5497
 6858TIP3   OH242064   4.121   0.700   2.202  0.3367  0.1320 -0.7787
 6858TIP3    H142065   4.139   0.724   2.293  0.3963 -1.4040 -0.3418
 6858TIP3    H242066   4.148   0.608   2.197 -2.1704 -0.6434 -1.6124
 6859TIP3   OH242067   1.396   6.054  13.989  0.3451  0.2440 -0.8935
 6859TIP3    H142068   1.333   6.017  13.927 -1.1280  1.3049 -0.1118
 6859TIP3    H242069   1.382   6.004  14.070 -1.4674  2.1533  0.0838
 6860TIP3   OH242070   0.854   5.088   0.512 -0.4375 -0.3020  0.2666
 6860TIP3    H142071   0.825   5.041   0.590  0.9716 -1.3052  0.2305
 6860TIP3    H242072   0.857   5.022   0.443 -0.0474  0.1933 -0.2082
 6861TIP3   OH242073   4.486   1.325   1.801  0.3290 -0.0781  0.2383
 6861TIP3    H142074   4.400   1.323   1.759  0.4749  0.1267 -0.0751
 6861TIP3    H242075   4.542   1.275   1.742  1.0308  1.9812 -0.9607
 6862TIP3   OH242076   6.482   4.894  15.901  0.4230  0.2746 -0.4600
 6862TIP3    H142077   6.421   4.872  15.972  2.6173 -1.1734  1.1303
 6862TIP3    H242078   6.432   4.879  15.821 -1.7191  0.5522  0.7240
 6863TIP3   OH242079   4.984   5.821   3.214  0.0432  0.3695  0.2977
 6863TIP3    H142080   4.933   5.863   3.284  0.9577  1.2796  0.4354
 6863TIP3    H242081   5.049   5.886   3.189  0.2414 -0.2492 -0.8653
 6864TIP3   OH242082   5.474   4.191  11.255 -0.2051 -0.1253 -0.5800
 6864TIP3    H142083   5.448   4.185  11.163 -1.2573 -2.6960 -0.1779
 6864TIP3    H242084   5.548   4.131  11.263 -0.5285 -0.4133  0.3794
 6865TIP3   OH242085   2.809   5.196   5.850 -0.5863  0.5762  0.0306
 6865TIP3    H142086   2.768   5.283   5.847  0.2401  0.9656 -2.8040
 6865TIP3    H242087   2.902   5.214   5.859 -0.2270  0.1321 -2.2704
 6866TIP3   OH242088   5.468   4.511  12.997 -0.1517  0.0035  0.0496
 6866TIP3    H142089   5.555   4.534  13.029 -1.1603  0.9172  2.4140
 6866TIP3    H242090   5.473   4.418  12.978  1.0356 -0.2556  1.3911
 6867TIP3   OH242091   2.946   3.396  17.083  0.0202  0.8464  0.1831
 6867TIP3    H142092   2.981   3.343  17.154 -1.5297 -0.2261  0.2112
 6867TIP3    H242093   3.005   3.380  17.010 -1.8131 -3.3100 -0.6912
 6868TIP3   OH242094   4.210   2.059  14.821 -0.6162  0.0477  0.2454
 6868TIP3    H142095   4.304   2.068  14.807 -0.2707 -1.7956  1.0393
 6868TIP3    H242096   4.193   2.108  14.901 -0.5764  1.4065 -0.5626
 6869TIP3   OH242097   4.640   5.800  11.010  0.1966  0.7588  0.5065
 6869TIP3    H142098   4.606   5.711  11.001  0.8552  0.3955  1.4572
 6869TIP3    H242099   4.611   5.845  10.931 -2.0790  0.3420  1.0276
 6870TIP3   OH242100   6.319   3.367  14.564 -0.2718 -0.0980  0.4167
 6870TIP3    H142101   6.334   3.409  14.479  0.3910 -0.6303  0.2627
 6870TIP3    H242102   6.298   3.277  14.543  0.8539 -0.4840  0.8424
 6871TIP3   OH242103   6.026   6.079   2.670  0.0702  0.0852  1.0526
 6871TIP3    H142104   5.998   6.099   2.581 -1.2119 -2.9892  0.6356
 6871TIP3    H242105   5.945   6.074   2.721  0.5060 -0.9950  1.6898
 6872TIP3   OH242106   5.767   2.968   1.869  0.0822  0.1106  0.8028
 6872TIP3    H142107   5.723   2.895   1.912 -3.3769  3.4154  3.5885
 6872TIP3    H242108   5.847   2.982   1.920  0.4402 -1.2508  0.6410
 6873TIP3   OH242109   2.901   5.343  14.934  0.0154  0.6638 -0.1213
 6873TIP3    H142110   2.947   5.380  15.009  2.5164 -1.1871 -0.6022
 6873TIP3    H242111   2.896   5.249  14.953 -0.2971  0.3076 -1.7635
 6874TIP3   OH242112   5.299   1.650  13.338 -0.1901  0.2840  0.0755
 6874TIP3    H142113   5.247   1.649  13.418 -1.9237 -1.4217 -0.9799
 6874TIP3    H242114   5.276   1.732  13.295  0.8035  1.2473  1.2857
 6875TIP3   OH242115   6.140   6.740   3.894  0.3812  0.0750  0.4333
 6875TIP3    H142116   6.074   6.766   3.830 -0.3500  0.4098  1.3157
 6875TIP3    H242117   6.109   6.775   3.977  1.1169 -0.6935  1.0542
 6876TIP3   OH242118   3.116   4.699   4.558 -0.1515  0.1781 -0.1214
 6876TIP3    H142119   3.170   4.644   4.502 -0.9097  1.5502 -2.3100
 6876TIP3    H242120   3.132   4.788   4.528 -1.8656  0.8121  0.7005
 6877TIP3   OH242121   0.287   6.412   0.238  0.0678  0.3277  0.9041
 6877TIP3    H142122   0.235   6.398   0.316  0.6874  0.4360  1.3454
 6877TIP3    H242123   0.233   6.378   0.166  0.8872 -3.1715  1.7176
 6878TIP3   OH242124   2.742   6.212   0.058 -0.0336  0.1796 -0.2725
 6878TIP3    H142125   2.739   6.280   0.125  0.1877  1.2448 -1.3151
 6878TIP3    H242126   2.798   6.248  -0.011 -1.8134 -0.0433 -1.9278
 6879TIP3   OH242127   2.156   6.755  15.657  0.5014  0.2695  0.0242
 6879TIP3    H142128   2.153   6.663  15.683 -0.4061 -0.3466 -2.0633
 6879TIP3    H242129   2.241   6.766  15.616 -0.4246 -0.4596 -2.2631
 6880TIP3   OH242130   2.183   6.051  15.870 -0.0231 -0.2960 -0.3069
 6880TIP3    H142131   2.110   5.998  15.836 -0.2221 -1.5261  1.8472
 6880TIP3    H242132   2.237   5.989  15.919  0.4305  1.2583  1.2671
 6881TIP3   OH242133   2.726   2.053  16.181  0.6470  0.1702  0.1582
 6881TIP3    H142134   2.815   2.085  16.194  1.4342 -2.5265  2.2303
 6881TIP3    H242135   2.735   1.979  16.122 -0.2429 -0.0749  0.3197
 6882TIP3   OH242136   3.163   4.470  12.817  0.3973 -0.1355  0.0317
 6882TIP3    H142137   3.175   4.436  12.905  1.1716  0.4717  0.1757
 6882TIP3    H242138   3.165   4.565  12.828 -1.9337  0.0092 -0.3264
 6883TIP3   OH242139   2.258   6.550  14.824  0.6298 -0.3466 -0.0029
 6883TIP3    H142140   2.209   6.470  14.807 -0.1247 -0.1802  1.2415
 6883TIP3    H242141   2.237   6.607  14.751 -1.3852 -0.1427  0.6670
 6884TIP3   OH242142   6.274   6.822   1.209 -0.4418  0.2733 -0.8827
 6884TIP3    H142143   6.289   6.893   1.271  0.3857 -0.4750 -0.1782
 6884TIP3    H242144   6.182   6.828   1.186 -0.9813  0.1002  1.0516
 6885TIP3   OH242145   3.465   1.648  10.280 -0.1989 -0.3418 -0.0631
 6885TIP3    H142146   3.422   1.730  10.255 -1.2923 -1.6528 -2.8134
 6885TIP3    H242147   3.550   1.676  10.314 -0.3431  1.9102 -1.3596
 6886TIP3   OH242148   2.727   6.632   1.883 -0.2835  0.0399  0.6639
 6886TIP3    H142149   2.805   6.625   1.938 -1.2443 -0.3707  2.0400
 6886TIP3    H242150   2.757   6.676   1.804  1.2816  0.1243  1.2711
 6887TIP3   OH242151   0.392   5.889  13.436  0.7169  0.2119 -0.2133
 6887TIP3    H142152   0.413   5.965  13.490 -0.1167  0.3656 -0.0935
 6887TIP3    H242153   0.355   5.826  13.497  0.3150  0.1610 -0.5043
 6888TIP3   OH242154   0.404   2.131  13.830  0.1591 -0.0990 -0.1910
 6888TIP3    H142155   0.496   2.113  13.810 -0.2641 -4.0736  0.7637
 6888TIP3    H242156   0.357   2.108  13.750 -0.2683 -1.7671  0.5051
 6889TIP3   OH242157   1.998   3.779   4.402 -0.5706  0.3032  0.0275
 6889TIP3    H142158   1.987   3.755   4.494 -0.9092  0.1110 -0.0654
 6889TIP3    H242159   1.910   3.782   4.366 -0.4166  0.0270 -0.3817
 6890TIP3   OH242160   1.343   1.003   2.658  0.0638 -0.3325  0.9044
 6890TIP3    H142161   1.269   0.957   2.617  1.8770 -1.0772 -1.8304
 6890TIP3    H242162   1.410   0.936   2.668  1.1883  0.7965  1.1609
 6891TIP3   OH242163   0.577   3.604   1.332 -0.2656  0.0578 -0.3940
 6891TIP3    H142164   0.531   3.669   1.384  0.0173 -0.5095  0.5934
 6891TIP3    H242165   0.589   3.645   1.246 -1.1807  0.8146 -0.1693
 6892TIP3   OH242166   6.323   1.088   3.032  0.0677 -0.2817  0.5007
 6892TIP3    H142167   6.262   1.015   3.021  0.4629 -0.6247  0.5447
 6892TIP3    H242168   6.270   1.166   3.019 -0.3253 -0.5815  0.2843
 6893TIP3   OH242169   1.781   2.956   4.040  0.1092  0.1556 -0.8180
 6893TIP3    H142170   1.755   2.975   4.130 -0.0214 -0.1982 -0.7788
 6893TIP3    H242171   1.735   3.021   3.987  0.7767  0.8412 -0.5674
 6894TIP3   OH242172   1.333   6.116  15.706  0.8846 -0.0078 -0.4600
 6894TIP3    H142173   1.382   6.061  15.644  0.6695 -1.9695  1.0280
 6894TIP3    H242174   1.397   6.139  15.774  0.7053  0.7748 -0.5395
 6895TIP3   OH242175   6.521   2.933   4.577  0.4178  0.0776 -0.7119
 6895TIP3    H142176   6.500   2.892   4.493  0.2836 -0.2080 -0.5429
 6895TIP3    H242177   6.592   2.994   4.557  1.1913 -0.8309 -0.8363
 6896TIP3   OH242178   2.026   2.650  12.334 -0.2571  0.4336 -0.0630
 6896TIP3    H142179   1.960   2.691  12.278  0.2459  0.9813 -0.2652
 6896TIP3    H242180   2.105   2.649  12.281  0.0722  0.4110  0.4225
 6897TIP3   OH242181   3.437   3.371  12.540  0.0709  0.0338  0.0918
 6897TIP3    H142182   3.506   3.328  12.592  0.4042  0.7757  0.2862
 6897TIP3    H242183   3.429   3.458  12.580  0.3527  0.6303 -1.1224
 6898TIP3   OH242184   4.078   5.001  15.328  0.2421  0.4200  0.4350
 6898TIP3    H142185   4.156   5.056  15.321  0.5923  0.2293  2.4456
 6898TIP3    H242186   4.012   5.057  15.368 -0.0571  0.0127  0.5190
 6899TIP3   OH242187   3.064   3.826  16.309 -0.5403 -0.2601  0.0360
 6899TIP3    H142188   3.110   3.747  16.281  1.7021  0.7889  0.4830
 6899TIP3    H242189   3.090   3.892  16.244 -1.2636  0.4371  0.4437
 6900TIP3   OH242190   4.718   4.141   1.499  0.6924  0.1123  0.0213
 6900TIP3    H142191   4.672   4.084   1.437  0.4768  1.3301 -0.9865
 6900TIP3    H242192   4.810   4.136   1.473  0.6747  0.2002 -0.0615
 6901TIP3   OH242193   0.422   6.094  11.477 -0.5379  0.7274  0.1668
 6901TIP3    H142194   0.478   6.059  11.407 -1.5156 -0.0413 -0.2541
 6901TIP3    H242195   0.434   6.189  11.472  1.6447  0.5418  0.8883
 6902TIP3   OH242196   1.866   6.192  14.267  0.1976 -0.3875 -0.0356
 6902TIP3    H142197   1.779   6.169  14.233 -0.4836  0.1268  1.2673
 6902TIP3    H242198   1.908   6.240  14.195 -0.6414 -0.5400 -0.6438
 6903TIP3   OH242199   1.548   1.038   4.871 -0.3842 -0.2007  0.0278
 6903TIP3    H142200   1.497   0.957   4.865 -1.5043  0.5438 -1.1026
 6903TIP3    H242201   1.505   1.098   4.810  2.1377  0.3462 -1.3457
 6904TIP3   OH242202   2.645   6.003  14.162  0.5690 -0.1662 -0.0967
 6904TIP3    H142203   2.623   5.928  14.217  1.1267  1.3692  2.3702
 6904TIP3    H242204   2.583   6.071  14.188  0.2522  0.3851 -2.0849
 6905TIP3   OH242205   5.607   4.074   4.543 -0.0104 -0.8920 -0.3198
 6905TIP3    H142206   5.650   3.989   4.551  1.4742 -0.5596 -3.2388
 6905TIP3    H242207   5.523   4.055   4.501  0.3408 -0.9544 -1.0157
 6906TIP3   OH242208   1.004   0.466  16.505  0.0849 -0.6565 -0.0305
 6906TIP3    H142209   0.914   0.480  16.476  0.1694  0.9682  0.3880
 6906TIP3    H242210   1.004   0.493  16.597  0.8865 -1.0948  0.1075
 6907TIP3   OH242211   4.000   3.310  11.241 -0.5423  0.1277 -0.5213
 6907TIP3    H142212   4.020   3.223  11.274 -0.4417  0.4407  0.2486
 6907TIP3    H242213   4.061   3.323  11.169  0.6194  0.2496  0.4675
 6908TIP3   OH242214   6.095   0.306   5.989 -0.4115 -0.1831 -0.8041
 6908TIP3    H142215   6.143   0.257   5.922 -1.4822 -0.0755 -1.6638
 6908TIP3    H242216   6.005   0.277   5.981 -0.4091 -0.9746  1.3306
 6909TIP3   OH242217   3.477   2.867  14.115  0.3044 -0.7034 -0.0548
 6909TIP3    H142218   3.559   2.834  14.150  0.6759  0.7991  0.5552
 6909TIP3    H242219   3.496   2.888  14.024  0.3989 -0.9906 -0.1016
 6910TIP3   OH242220   5.681   0.196  10.955  0.2130  0.2891  0.2363
 6910TIP3    H142221   5.606   0.235  11.000  1.1046  0.5484  1.5631
 6910TIP3    H242222   5.705   0.261  10.889 -0.4821  0.3860  0.0702
 6911TIP3   OH242223   4.142   1.831   6.882  0.0391 -0.2598 -0.7224
 6911TIP3    H142224   4.232   1.862   6.894 -0.3626  0.6949 -0.1018
 6911TIP3    H242225   4.150   1.735   6.883  1.0582 -0.1883 -0.7743
 6912TIP3   OH242226   5.838   4.924   6.536  0.1195 -0.0587 -0.5790
 6912TIP3    H142227   5.801   4.899   6.620  0.1790  0.0543 -0.5194
 6912TIP3    H242228   5.842   4.842   6.486 -1.2204  0.0970 -0.9864
 6913TIP3   OH242229   2.613   3.653   5.014 -0.4042 -0.0753 -0.1011
 6913TIP3    H142230   2.699   3.679   5.049 -0.5827  0.0144  0.2722
 6913TIP3    H242231   2.610   3.559   5.027 -1.0517  0.1315  1.4474
 6914TIP3   OH242232   6.260   4.048  11.317  0.0468  0.1711 -0.4965
 6914TIP3    H142233   6.243   3.979  11.381  0.3183 -1.2265 -1.8754
 6914TIP3    H242234   6.204   4.027  11.243  2.5179 -0.5812 -2.3150
 6915TIP3   OH242235   6.658   2.479   3.969  0.0280  0.4509 -0.0845
 6915TIP3    H142236   6.749   2.459   3.993 -0.6186  0.1598  2.3658
 6915TIP3    H242237   6.648   2.572   3.988 -0.2711  0.4102 -0.0338
 6916TIP3   OH242238   4.221   1.748   0.452 -0.0748 -0.3932 -0.4830
 6916TIP3    H142239   4.134   1.726   0.419  0.8416 -3.5856 -1.1123
 6916TIP3    H242240   4.255   1.814   0.392 -1.6776  0.1786 -0.7846
 6917TIP3   OH242241   0.470   0.173  14.364 -0.0326 -0.9912 -0.0085
 6917TIP3    H142242   0.419   0.102  14.403 -1.6254  0.1507  0.0912
 6917TIP3    H242243   0.441   0.251  14.411  2.4972 -0.3726  0.6715
 6918TIP3   OH242244   0.663   4.684   1.641 -0.1647 -0.1199 -0.3116
 6918TIP3    H142245   0.644   4.653   1.730  0.6368  2.0637  0.6977
 6918TIP3    H242246   0.758   4.673   1.631 -0.0135  0.9779 -0.2891
 6919TIP3   OH242247   1.195   3.665  12.096  0.5041 -0.6036 -0.4625
 6919TIP3    H142248   1.276   3.621  12.121  1.3528  0.8631 -0.5449
 6919TIP3    H242249   1.219   3.718  12.021 -0.2798  0.6694  0.1600
 6920TIP3   OH242250   0.125   4.639  10.858 -0.2282 -0.0530 -0.2718
 6920TIP3    H142251   0.187   4.711  10.845  0.2710 -0.3264  0.5424
 6920TIP3    H242252   0.180   4.561  10.863 -0.8357 -0.6751 -2.3068
 6921TIP3   OH242253   6.320   2.619   1.733  0.3145 -0.0130 -0.8760
 6921TIP3    H142254   6.406   2.592   1.701  0.5099  0.4765 -0.7755
 6921TIP3    H242255   6.258   2.567   1.682  0.6700 -0.3306 -0.9852
 6922TIP3   OH242256   4.686   0.812   0.826 -0.8799  0.4405 -0.4988
 6922TIP3    H142257   4.654   0.799   0.915  0.1307  1.8155  0.1016
 6922TIP3    H242258   4.699   0.723   0.792 -0.6014 -0.1142  0.9714
 6923TIP3   OH242259   2.002   3.608   0.660 -0.1333 -0.1853  0.3232
 6923TIP3    H142260   1.960   3.584   0.577  0.9328  1.1768 -0.6681
 6923TIP3    H242261   1.932   3.606   0.724 -1.3996  0.4462 -0.9696
 6924TIP3   OH242262   2.902   4.388   1.309  0.2069  0.3853  0.3824
 6924TIP3    H142263   2.948   4.472   1.310 -1.8138  1.5614  0.8029
 6924TIP3    H242264   2.965   4.325   1.345  1.7634  1.7054  0.0717
 6925TIP3   OH242265   1.928   3.733  10.531  0.1436  0.0281  0.0073
 6925TIP3    H142266   1.943   3.819  10.571 -0.3580  0.4251 -0.6264
 6925TIP3    H242267   2.013   3.707  10.496  0.4931 -0.1367  0.9668
 6926TIP3   OH242268   5.132   0.722  15.759  0.2028  0.0694  0.2382
 6926TIP3    H142269   5.054   0.757  15.717  1.3067  1.4513 -0.7414
 6926TIP3    H242270   5.186   0.798  15.779  0.5841 -0.7017  2.4975
 6927TIP3   OH242271   6.802   6.729  11.036  0.1717  0.0914  0.2234
 6927TIP3    H142272   6.764   6.685  11.112 -2.2451  0.3680 -0.7119
 6927TIP3    H242273   6.862   6.665  10.999  3.0917  0.6868  3.4318
 6928TIP3   OH242274   4.870   2.987  15.762  0.5356  0.0748  0.0487
 6928TIP3    H142275   4.845   2.927  15.692  2.5162 -2.5427  1.3883
 6928TIP3    H242276   4.792   3.039  15.779 -0.9187 -1.2958 -2.0452
 6929TIP3   OH242277   0.062   6.343  11.066  0.0887 -0.0588 -0.4436
 6929TIP3    H142278   0.095   6.423  11.025  0.4786 -0.1534 -0.3197
 6929TIP3    H242279   0.044   6.284  10.993 -1.7783  0.7154 -0.6486
 6930TIP3   OH242280   2.646   4.082   0.354 -0.4501 -0.0617  0.6254
 6930TIP3    H142281   2.617   4.131   0.277 -0.0957 -0.6626  0.0990
 6930TIP3    H242282   2.578   4.016   0.367 -0.5652  0.1084  0.9012
 6931TIP3   OH242283   3.195   3.237  11.982 -0.1128  0.0359  0.0546
 6931TIP3    H142284   3.201   3.143  12.002 -0.4958  0.0657  0.3283
 6931TIP3    H242285   3.101   3.255  11.980 -0.0384  0.4366  0.1105
 6932TIP3   OH242286   0.022   0.665  14.969 -0.8251  0.3736  0.5738
 6932TIP3    H142287   0.056   0.704  14.888 -0.2426  0.1116  0.6878
 6932TIP3    H242288  -0.035   0.594  14.940 -0.1850 -0.0783  0.3941
 6933TIP3   OH242289   3.728   5.149  14.827  0.2952  0.2658 -0.0010
 6933TIP3    H142290   3.801   5.088  14.835  0.6632  0.1935 -2.8091
 6933TIP3    H242291   3.681   5.120  14.749 -0.7001  2.3788 -0.2716
 6934TIP3   OH242292   1.643   0.338  11.832 -0.0457 -0.0759 -0.0896
 6934TIP3    H142293   1.657   0.405  11.899 -2.6631 -1.2135  1.7453
 6934TIP3    H242294   1.599   0.384  11.760 -0.9268  0.3586  0.7236
 6935TIP3   OH242295   3.551   2.360  16.804  0.3638  0.6606  0.3046
 6935TIP3    H142296   3.589   2.447  16.821 -0.7316  0.8907  1.9253
 6935TIP3    H242297   3.618   2.298  16.834  0.9353  0.9543 -0.3475
 6936TIP3   OH242298   6.439   1.298  14.436 -0.1843 -0.1938  0.1276
 6936TIP3    H142299   6.415   1.245  14.512  0.0575  2.1066  1.9213
 6936TIP3    H242300   6.512   1.351  14.466  1.4469 -0.7863 -2.4863
 6937TIP3   OH242301   1.357   5.263   1.393 -0.2075 -0.2579 -0.3010
 6937TIP3    H142302   1.271   5.283   1.356 -0.7130 -0.7170  0.5904
 6937TIP3    H242303   1.344   5.182   1.441  0.4909  0.1811  0.6589
 6938TIP3   OH242304   1.875   3.679   3.848 -0.2501  0.0669 -0.0238
 6938TIP3    H142305   1.970   3.672   3.845 -0.2283  0.5270 -1.7584
 6938TIP3    H242306   1.857   3.772   3.837 -0.8972  0.0589  0.8654
 6939TIP3   OH242307   2.592   1.088   2.166 -0.5852  0.0325  0.1603
 6939TIP3    H142308   2.583   0.996   2.192  1.4593 -0.4403 -0.5778
 6939TIP3    H242309   2.524   1.101   2.100 -0.5587 -1.1234 -0.1196
 6940TIP3   OH242310   5.809   0.881   5.939 -0.0831  0.8385  0.2350
 6940TIP3    H142311   5.808   0.890   5.844 -0.9369  0.3303  0.1842
 6940TIP3    H242312   5.878   0.940   5.968 -0.0735  1.2916 -0.6712
 6941TIP3   OH242313   0.159   3.645   1.711 -0.2234  0.7805  0.0695
 6941TIP3    H142314   0.066   3.630   1.726 -0.3051  1.1579 -0.0436
 6941TIP3    H242315   0.162   3.723   1.656  0.0902 -0.2745 -1.4840
 6942TIP3   OH242316   1.412   6.037  15.440 -0.0221 -0.1163 -0.2566
 6942TIP3    H142317   1.331   5.997  15.409  0.7571 -1.4653 -0.6351
 6942TIP3    H242318   1.430   6.108  15.378 -1.0251  0.3588 -0.0210
 6943TIP3   OH242319   0.197   3.028  16.780  0.3953  0.5001 -0.2209
 6943TIP3    H142320   0.172   3.014  16.689 -2.7752 -0.8035  0.6938
 6943TIP3    H242321   0.275   3.083  16.776  1.4657 -1.0118 -3.7174
 6944TIP3   OH242322   1.311   2.075   6.539  0.7872 -0.5534  0.5683
 6944TIP3    H142323   1.267   2.160   6.530 -2.5731 -2.0803  1.0451
 6944TIP3    H242324   1.380   2.077   6.473  0.1539  2.1307 -0.1524
 6945TIP3   OH242325   2.949   4.072  14.799 -0.3920 -0.1725  0.2236
 6945TIP3    H142326   3.001   4.110  14.728 -1.3288  1.9781  0.6031
 6945TIP3    H242327   2.935   3.981  14.773  2.9464 -0.6918 -0.1911
 6946TIP3   OH242328   4.107   0.953  15.096 -0.2509  0.2055 -0.4665
 6946TIP3    H142329   4.078   1.043  15.076  0.5029  0.2157 -1.6168
 6946TIP3    H242330   4.200   0.952  15.072 -0.3805 -1.0311 -0.9898
 6947TIP3   OH242331   5.385   0.385   2.881  0.3077 -0.0297  0.8023
 6947TIP3    H142332   5.455   0.329   2.917  0.3239 -0.9453 -0.5876
 6947TIP3    H242333   5.304   0.344   2.911  0.3284 -0.5627  0.1455
 6948TIP3   OH242334   1.552   0.306   2.890 -0.5526  0.3596  0.0361
 6948TIP3    H142335   1.542   0.254   2.810  1.7005 -0.1332  0.0143
 6948TIP3    H242336   1.645   0.331   2.892 -0.7169  1.0391  2.0933
 6949TIP3   OH242337   4.624   1.132  15.737 -0.3239 -0.5268  0.2831
 6949TIP3    H142338   4.700   1.089  15.775  0.2870 -0.0228 -0.3355
 6949TIP3    H242339   4.552   1.071  15.752 -0.5150  0.3213  3.7363
 6950TIP3   OH242340   5.061   0.442   5.149  0.0684  0.5024  1.3459
 6950TIP3    H142341   5.098   0.427   5.063 -1.3154  0.9877  0.6291
 6950TIP3    H242342   5.035   0.355   5.180 -2.7019  0.5972 -0.3263
 6951TIP3   OH242343   5.496   1.132  12.094 -0.3744  0.6109  0.3674
 6951TIP3    H142344   5.571   1.134  12.154  0.2897  2.5569 -0.4498
 6951TIP3    H242345   5.530   1.165  12.011 -1.5505 -0.9589 -0.8167
 6952TIP3   OH242346   1.287   6.361   4.615 -0.2104 -0.3234 -0.2818
 6952TIP3    H142347   1.375   6.393   4.596 -0.9597  0.5960 -2.5931
 6952TIP3    H242348   1.247   6.431   4.667  0.7412 -1.2911  1.8803
 6953TIP3   OH242349   1.604   5.093  11.682  0.0354  0.0587  0.3367
 6953TIP3    H142350   1.679   5.119  11.735  0.4102  0.9921 -0.6091
 6953TIP3    H242351   1.640   5.082  11.593 -1.0188  1.0476 -0.2426
 6954TIP3   OH242352   0.719   4.734  17.214 -0.5565  0.5863 -0.8397
 6954TIP3    H142353   0.759   4.816  17.243 -0.9369  0.1617  1.0425
 6954TIP3    H242354   0.677   4.756  17.131 -2.8120  3.0297  0.7646
 6955TIP3   OH242355   2.533   3.372   3.432 -0.7582 -0.3933 -0.9652
 6955TIP3    H142356   2.441   3.369   3.461 -0.8898  4.0982 -0.0477
 6955TIP3    H242357   2.529   3.411   3.345  0.2559 -1.5848 -1.5643
 6956TIP3   OH242358   2.523   0.539   2.142  0.1270 -0.3691  0.3370
 6956TIP3    H142359   2.571   0.498   2.213 -0.5857 -2.0112 -0.0891
 6956TIP3    H242360   2.540   0.484   2.066  0.1119  0.8246 -0.5672
 6957TIP3   OH242361   1.241   3.494  12.908  0.6451  0.1061  0.0282
 6957TIP3    H142362   1.241   3.486  12.813 -2.0594 -1.7647  0.0628
 6957TIP3    H242363   1.161   3.543  12.928  0.6885 -0.3060  1.3526
 6958TIP3   OH242364   1.606   1.111   3.228  0.2403 -0.0121 -0.1883
 6958TIP3    H142365   1.526   1.059   3.218  0.3594 -0.2457  0.0656
 6958TIP3    H242366   1.665   1.055   3.279 -0.4145  1.1739  1.9996
 6959TIP3   OH242367   6.191   0.161   4.816  0.0150 -0.1895 -0.0041
 6959TIP3    H142368   6.263   0.108   4.851  1.9423  2.2809  0.0390
 6959TIP3    H242369   6.161   0.212   4.891  0.3848  1.0772 -0.6917
 6960TIP3   OH242370   3.565   4.479  15.534  0.1843  0.2744  0.1743
 6960TIP3    H142371   3.645   4.471  15.586 -0.3071 -1.9041  0.6595
 6960TIP3    H242372   3.551   4.392  15.497 -1.6701  0.7609 -0.3653
 6961TIP3   OH242373   2.855   4.661   0.800  0.1216  0.0826  0.4352
 6961TIP3    H142374   2.930   4.624   0.754  0.5413  0.0048  1.1640
 6961TIP3    H242375   2.789   4.674   0.732  0.5856 -0.3938 -0.1185
 6962TIP3   OH242376   6.213   1.473  15.129 -0.1202  0.4469 -0.4401
 6962TIP3    H142377   6.228   1.472  15.035 -1.4752  1.4506 -0.6990
 6962TIP3    H242378   6.147   1.405  15.144 -0.5167  0.8507 -0.3408
 6963TIP3   OH242379   0.440   6.450  10.673 -0.6065 -0.5592 -0.7969
 6963TIP3    H142380   0.531   6.475  10.686 -0.2007 -1.2341 -2.1491
 6963TIP3    H242381   0.413   6.495  10.593 -1.7036  0.2028 -0.0307
 6964TIP3   OH242382   0.760   1.134   1.671  0.0769  0.0298 -0.2397
 6964TIP3    H142383   0.725   1.072   1.734 -0.2731  0.8186  0.3505
 6964TIP3    H242384   0.855   1.125   1.679  0.1058  1.4758  1.8230
 6965TIP3   OH242385   2.082   5.125   5.262  0.1942 -0.3465 -0.0570
 6965TIP3    H142386   2.020   5.154   5.329  1.2904 -1.6974  1.6444
 6965TIP3    H242387   2.079   5.029   5.267  0.1796 -0.4982 -2.1237
 6966TIP3   OH242388   3.040   2.158  11.542 -0.5221 -0.2207  0.8519
 6966TIP3    H142389   3.115   2.155  11.482 -0.8102 -0.3317  0.4915
 6966TIP3    H242390   3.063   2.099  11.613  0.4451  0.9981  1.5902
 6967TIP3   OH242391   6.113   6.003  15.216  0.0935 -0.2302  0.1121
 6967TIP3    H142392   6.151   6.074  15.164  0.7710  0.6962  1.8198
 6967TIP3    H242393   6.180   5.981  15.280  0.1853 -2.9418 -0.7956
 6968TIP3   OH242394   4.935   3.554  17.024  0.1622  0.2666 -0.3137
 6968TIP3    H142395   5.024   3.543  17.057 -0.1437 -1.0207  0.1716
 6968TIP3    H242396   4.890   3.605  17.091  0.8019  1.9112 -1.0909
 6969TIP3   OH242397   4.042   0.747  15.785  0.1937  0.5175 -0.5160
 6969TIP3    H142398   3.977   0.772  15.719  2.0635  1.6902 -2.0139
 6969TIP3    H242399   4.079   0.665  15.752 -0.0736  0.1756  0.0156
 6970TIP3   OH242400   0.047   5.906  11.900  0.2203  0.3904  1.2327
 6970TIP3    H142401  -0.021   5.848  11.935 -0.0130  1.2537  2.2748
 6970TIP3    H242402   0.110   5.915  11.971  1.7404 -0.8035  0.1057
 6971TIP3   OH242403   3.546   6.038  13.935  0.0375 -0.2592 -0.2837
 6971TIP3    H142404   3.641   6.028  13.943  0.3551  0.8017 -2.2492
 6971TIP3    H242405   3.512   6.000  14.016  2.2986  2.5057  2.2076
 6972TIP3   OH242406   4.280   3.597  14.795 -0.4638  0.7088 -0.0805
 6972TIP3    H142407   4.315   3.509  14.811 -0.5585  0.7425  0.3179
 6972TIP3    H242408   4.217   3.611  14.866  0.0196  1.3557  0.2313
 6973TIP3   OH242409   4.520   5.738  14.502 -0.5237 -0.0299  0.3887
 6973TIP3    H142410   4.440   5.709  14.547 -0.0866 -1.1530  0.4751
 6973TIP3    H242411   4.558   5.658  14.468  0.1026  0.6112 -0.4381
 6974TIP3   OH242412   1.240   1.161   0.923  0.0273 -0.7291  0.6325
 6974TIP3    H142413   1.249   1.071   0.890 -0.5457 -0.8653  0.8323
 6974TIP3    H242414   1.152   1.187   0.897  0.4981  0.0974 -0.1802
 6975TIP3   OH242415   2.182   1.623  16.997  0.1754 -0.3507  0.0909
 6975TIP3    H142416   2.237   1.702  16.999 -1.6173  0.9537  1.6697
 6975TIP3    H242417   2.186   1.593  16.906  1.5773  1.0598 -0.3541
 6976TIP3   OH242418   6.215   1.324  15.621  0.8510 -0.1266  0.2569
 6976TIP3    H142419   6.284   1.283  15.673  1.7629 -0.8736 -1.4872
 6976TIP3    H242420   6.240   1.416  15.616  2.1657 -0.5337 -1.0122
 6977TIP3   OH242421   0.635   4.340   3.822 -0.3024  0.3521  0.1349
 6977TIP3    H142422   0.626   4.429   3.788  0.4793  1.2802  2.1797
 6977TIP3    H242423   0.674   4.291   3.750  0.0125  1.8523 -0.7670
 6978TIP3   OH242424   6.428   1.412   3.340  0.4444  0.2334 -0.7005
 6978TIP3    H142425   6.335   1.395   3.322  0.5510 -0.5290 -0.5504
 6978TIP3    H242426   6.467   1.427   3.254  0.1667  0.6911 -0.7544
 6979TIP3   OH242427   0.910   3.919   5.435  0.5084 -0.0787 -0.2726
 6979TIP3    H142428   0.909   3.843   5.493  3.2293  0.4034  0.5543
 6979TIP3    H242429   0.880   3.885   5.351 -0.3535 -1.5558  0.5789
 6980TIP3   OH242430   6.346   4.494   2.459  0.6759 -0.5415 -0.5243
 6980TIP3    H142431   6.433   4.464   2.483 -0.1284 -2.1240  0.6363
 6980TIP3    H242432   6.352   4.590   2.457  1.6304 -0.4029  2.9725
 6981TIP3   OH242433   6.411   5.023  12.145  0.0183  0.4413  0.0829
 6981TIP3    H142434   6.320   5.041  12.167  0.1103  1.2380 -0.1546
 6981TIP3    H242435   6.426   5.070  12.064  0.3762 -0.4801 -0.4022
 6982TIP3   OH242436   3.830   2.035  11.120 -0.1329  0.6915  0.4867
 6982TIP3    H142437   3.752   1.981  11.134 -0.6591  1.6614  1.4708
 6982TIP3    H242438   3.880   1.989  11.053 -1.6562  0.1545 -0.3181
 6983TIP3   OH242439   6.156   1.032   0.877  0.3362  0.4681  0.4695
 6983TIP3    H142440   6.098   1.004   0.948 -2.9182  1.2075 -1.6652
 6983TIP3    H242441   6.190   1.116   0.906 -1.8361  1.3063  0.7885
 6984TIP3   OH242442   5.610   4.473  10.872  0.4689  0.1738  0.2314
 6984TIP3    H142443   5.626   4.556  10.829 -1.4161  0.1606 -0.5656
 6984TIP3    H242444   5.522   4.447  10.844  0.8295 -1.8729  0.8032
 6985TIP3   OH242445   5.028   4.954  14.819  0.0983 -0.5452  0.2080
 6985TIP3    H142446   4.983   4.870  14.820  0.6106 -0.8538 -0.9961
 6985TIP3    H242447   5.109   4.939  14.869  0.4269 -0.9139 -0.4281
 6986TIP3   OH242448   4.460   3.882  10.589  0.5600 -0.0444 -0.1172
 6986TIP3    H142449   4.368   3.855  10.580  0.1752  0.8340  0.9727
 6986TIP3    H242450   4.500   3.858  10.506 -0.8240  0.1973 -0.8831
 6987TIP3   OH242451   2.095   4.004   0.607  0.1507  0.0911 -0.3789
 6987TIP3    H142452   2.183   3.988   0.574 -0.3982 -0.1577 -1.7652
 6987TIP3    H242453   2.067   3.918   0.640  0.1364 -0.0143 -0.6616
 6988TIP3   OH242454   4.752   4.113  16.262  0.3129 -0.2933 -0.3477
 6988TIP3    H142455   4.814   4.146  16.327 -0.7768 -2.0712  1.7144
 6988TIP3    H242456   4.690   4.061  16.312 -1.9525  0.0963 -2.5414
 6989TIP3   OH242457   3.190   3.441   3.339 -0.1465 -0.0849 -0.0094
 6989TIP3    H142458   3.112   3.492   3.315  0.0723  0.6575  0.7875
 6989TIP3    H242459   3.163   3.350   3.330 -1.3340  0.1555  0.9222
 6990TIP3   OH242460   1.526   2.344  14.166 -0.0683  0.0825  0.0269
 6990TIP3    H142461   1.457   2.322  14.228  0.1976 -1.2431 -0.1101
 6990TIP3    H242462   1.492   2.317  14.081  0.1000  0.6457 -0.2247
 6991TIP3   OH242463   3.660   3.930   4.223  0.0497 -0.7425 -0.0603
 6991TIP3    H142464   3.699   3.881   4.296  0.0590 -0.3340  0.2120
 6991TIP3    H242465   3.586   3.875   4.194 -0.6896 -0.3464  1.0319
 6992TIP3   OH242466   6.796   4.828   3.891  0.0660 -0.0112  0.1970
 6992TIP3    H142467   6.797   4.733   3.894  0.4250 -0.0372 -0.5206
 6992TIP3    H242468   6.876   4.855   3.935  0.0672 -0.0444  0.2147
 6993TIP3   OH242469   2.127   0.570   4.396 -0.0952 -0.1809 -0.3206
 6993TIP3    H142470   2.101   0.539   4.309 -1.2369  0.3978 -0.1951
 6993TIP3    H242471   2.215   0.534   4.409 -1.1226 -2.9679 -0.4044
 6994TIP3   OH242472   4.482   4.938  15.184  0.5564 -0.5970 -0.0301
 6994TIP3    H142473   4.435   5.021  15.175  2.0229  0.2044 -0.5555
 6994TIP3    H242474   4.441   4.895  15.259  0.8034  1.3223  1.2676
 6995TIP3   OH242475   5.136   0.386   6.751 -0.2400  0.5335 -0.2710
 6995TIP3    H142476   5.102   0.305   6.790  0.1582  1.0258  1.1586
 6995TIP3    H242477   5.230   0.383   6.769 -0.3843  1.8727  0.9216
 6996TIP3   OH242478   6.093   6.692   3.071  0.2849  0.3261 -0.1670
 6996TIP3    H142479   6.179   6.734   3.068  0.1972  0.6702  1.5037
 6996TIP3    H242480   6.043   6.741   3.136 -0.6737 -0.7853 -0.0160
 6997TIP3   OH242481   6.154   1.722   2.479  0.3282  0.0554  0.0493
 6997TIP3    H142482   6.153   1.691   2.388 -0.3393 -0.1084  0.1108
 6997TIP3    H242483   6.138   1.816   2.472  0.3203  0.0504 -0.0048
 6998TIP3   OH242484   3.257   0.236   5.717  0.2008 -0.2881 -0.0555
 6998TIP3    H142485   3.310   0.314   5.701 -1.0829  0.6314  0.0418
 6998TIP3    H242486   3.316   0.163   5.697  1.3672  0.6911 -0.3431
 6999TIP3   OH242487   4.436   0.997   1.021 -0.1720 -0.2659  0.6317
 6999TIP3    H142488   4.444   1.092   1.025  0.1978 -0.2189 -0.6079
 6999TIP3    H242489   4.519   0.964   1.055  1.5852  0.0081 -2.8888
 7000TIP3   OH242490   0.672   1.545  12.573 -0.3170 -0.1920  0.2925
 7000TIP3    H142491   0.636   1.613  12.629 -0.9332 -0.0513 -0.2715
 7000TIP3    H242492   0.609   1.473  12.579  0.6132 -0.9644  1.3486
 7001TIP3   OH242493   1.978   1.739   3.152  0.0404 -0.2952 -0.2824
 7001TIP3    H142494   1.896   1.732   3.102  0.8031 -0.0996 -1.6258
 7001TIP3    H242495   1.955   1.793   3.228 -1.2721 -0.9695 -0.1642
 7002TIP3   OH242496   3.795   6.058  11.196 -0.2340 -0.0711  0.5692
 7002TIP3    H142497   3.837   6.136  11.232  0.5705 -0.4493  0.4707
 7002TIP3    H242498   3.711   6.090  11.161 -0.1549  0.6458  1.0094
 7003TIP3   OH242499   5.257   2.687   0.996  0.3240  0.0135 -1.1430
 7003TIP3    H142500   5.218   2.618   0.942 -0.3032 -1.5979  1.1778
 7003TIP3    H242501   5.344   2.654   1.018  1.1945  1.3892 -2.4311
 7004TIP3   OH242502   3.215   2.637   0.211  0.1072  0.0187  0.1600
 7004TIP3    H142503   3.297   2.594   0.234  0.8365  1.6654  0.8461
 7004TIP3    H242504   3.147   2.581   0.248  0.8719 -1.5551 -0.7168
 7005TIP3   OH242505   3.145   6.316  11.566 -0.0271  0.3544 -0.1331
 7005TIP3    H142506   3.229   6.362  11.564 -0.4677  1.2064  0.3285
 7005TIP3    H242507   3.112   6.331  11.655 -1.0577  0.7575 -0.5685
 7006TIP3   OH242508   4.830   5.196   6.386  0.3096 -0.4008 -0.0351
 7006TIP3    H142509   4.825   5.182   6.480 -0.4625 -2.3481 -0.3297
 7006TIP3    H242510   4.741   5.222   6.361  0.1191 -1.3696 -0.4136
 7007TIP3   OH242511   4.984   3.599   4.146  0.1496 -0.3950  0.5234
 7007TIP3    H142512   4.978   3.682   4.098 -0.7180 -0.6793  0.1161
 7007TIP3    H242513   5.007   3.625   4.235  2.1759  0.1177 -0.0987
 7008TIP3   OH242514   3.182   0.129  13.949 -0.2977 -0.3886 -0.1376
 7008TIP3    H142515   3.180   0.089  14.036 -1.1265  0.7693  0.4013
 7008TIP3    H242516   3.105   0.093  13.905 -1.0511  0.5691  0.3521
 7009TIP3   OH242517   6.482   5.549  12.870 -0.4752 -0.2850  0.1801
 7009TIP3    H142518   6.487   5.468  12.921 -0.9539  0.7080  1.8878
 7009TIP3    H242519   6.496   5.521  12.780  1.6250 -1.9875  0.9395
 7010TIP3   OH242520   3.666   4.290   4.457 -0.0001 -0.2154 -1.0656
 7010TIP3    H142521   3.690   4.337   4.537  0.8277  0.5343 -1.7434
 7010TIP3    H242522   3.574   4.311   4.444 -0.2380 -0.6112 -0.1399
 7011TIP3   OH242523   4.167   2.592   1.183 -0.1001  0.0530 -0.5895
 7011TIP3    H142524   4.194   2.672   1.138  3.3644  0.2110  1.4114
 7011TIP3    H242525   4.103   2.552   1.124 -1.0104  3.5840 -2.2834
 7012TIP3   OH242526   4.103   6.085  12.137 -0.2676  0.3890 -0.0072
 7012TIP3    H142527   4.096   6.153  12.070 -0.5235 -0.0367 -0.4196
 7012TIP3    H242528   4.162   6.019  12.098 -1.7279 -0.6683 -0.5331
 7013TIP3   OH242529   4.145   4.189  12.048 -0.0945 -0.0309 -0.1200
 7013TIP3    H142530   4.175   4.256  11.986  1.4823 -0.7362 -0.1627
 7013TIP3    H242531   4.225   4.146  12.077 -0.5077  1.5477  3.9768
 7014TIP3   OH242532   1.130   5.377   3.914  0.5373  0.2630  0.2102
 7014TIP3    H142533   1.083   5.450   3.956 -0.4562 -0.9812  1.3465
 7014TIP3    H242534   1.152   5.410   3.827  0.1833  1.9495  0.7220
 7015TIP3   OH242535   4.893   1.141  17.278  0.1692 -0.6971 -0.1105
 7015TIP3    H142536   4.958   1.092  17.328 -0.7275 -1.6094  0.1898
 7015TIP3    H242537   4.811   1.127  17.325  0.1694  2.8739  1.2827
 7016TIP3   OH242538   3.656   3.330   4.059 -0.5704  0.3313  0.0633
 7016TIP3    H142539   3.715   3.362   3.992 -1.0033  2.0118  0.4341
 7016TIP3    H242540   3.568   3.351   4.026 -0.7487  2.8712  1.8708
 7017TIP3   OH242541   0.309   0.220   0.332 -0.3977  0.0958  0.1127
 7017TIP3    H142542   0.243   0.192   0.268 -0.6423 -0.5460  0.6358
 7017TIP3    H242543   0.359   0.287   0.286 -0.3890 -0.5548 -0.8563
 7018TIP3   OH242544   1.857   4.013   5.542 -0.0160  0.3532 -0.5625
 7018TIP3    H142545   1.818   4.075   5.480 -2.0995 -0.2714  0.0490
 7018TIP3    H242546   1.882   3.938   5.488 -3.0605 -0.7750 -0.6253
 7019TIP3   OH242547   2.784   4.627   6.711  0.4071  0.4498 -0.1612
 7019TIP3    H142548   2.788   4.701   6.771 -1.7782 -0.2057  0.8760
 7019TIP3    H242549   2.738   4.661   6.634 -0.1077  0.3242  0.0885
 7020TIP3   OH242550   0.598   6.160   0.075 -0.0899 -0.1530  0.0349
 7020TIP3    H142551   0.586   6.215  -0.002  1.7110 -0.3634 -0.4303
 7020TIP3    H242552   0.691   6.167   0.095 -0.1082 -1.8678  0.8554
 7021TIP3   OH242553   1.930   1.223   1.777  0.6738  0.1509  0.5271
 7021TIP3    H142554   1.879   1.147   1.748  1.7589 -0.0529 -0.9751
 7021TIP3    H242555   2.003   1.185   1.825 -1.0364  0.4842  3.6186
 7022TIP3   OH242556   0.924   5.922   3.085  0.0747  0.2920 -0.5855
 7022TIP3    H142557   0.834   5.909   3.056 -0.3010 -0.9133  0.9993
 7022TIP3    H242558   0.927   6.013   3.114 -0.5157  0.4602 -1.0326
 7023TIP3   OH242559   1.558   4.588  14.742  0.0271  0.2473  0.1502
 7023TIP3    H142560   1.574   4.674  14.704 -0.5942 -0.2112 -1.1801
 7023TIP3    H242561   1.637   4.570  14.793  1.1518  0.6469 -1.3806
 7024TIP3   OH242562   0.475   5.750   2.865  0.2405  0.0386 -0.3629
 7024TIP3    H142563   0.457   5.659   2.844 -0.7192  0.2060 -0.2972
 7024TIP3    H242564   0.404   5.777   2.923  0.4782  0.8450 -0.4244
 7025TIP3   OH242565   4.146   6.076   5.260 -0.0500 -0.2103  0.1539
 7025TIP3    H142566   4.205   6.152   5.264 -0.6773  0.3056 -0.1172
 7025TIP3    H242567   4.153   6.045   5.170  0.2019 -0.4771  0.2634
 7026TIP3   OH242568   5.596   4.676   6.504 -0.3835  0.0492  0.4379
 7026TIP3    H142569   5.684   4.706   6.481 -0.1890 -0.8492 -0.0284
 7026TIP3    H242570   5.595   4.584   6.478 -1.2421 -0.1215  1.0621
 7027TIP3   OH242571   2.477   3.218   2.442  0.0329  0.3404  0.0148
 7027TIP3    H142572   2.431   3.138   2.468  0.8440  0.2179  1.1279
 7027TIP3    H242573   2.459   3.280   2.512  0.6409  0.6471 -0.0968
 7028TIP3   OH242574   3.375   0.825   0.909  0.6043 -0.3977 -0.0991
 7028TIP3    H142575   3.353   0.906   0.864 -1.4807  0.1196  1.6715
 7028TIP3    H242576   3.468   0.812   0.892  0.2005  0.3350 -3.4605
 7029TIP3   OH242577   1.862   5.748   4.379 -0.3534  0.2640 -0.0778
 7029TIP3    H142578   1.769   5.733   4.394 -0.5538  1.0530 -0.5175
 7029TIP3    H242579   1.884   5.688   4.307  0.0211 -1.5975  1.4858
 7030TIP3   OH242580   0.782   4.861  13.198  0.1089  0.0353 -0.0874
 7030TIP3    H142581   0.785   4.772  13.233  2.7756 -0.3262 -0.9666
 7030TIP3    H242582   0.761   4.916  13.273  1.1767 -1.1163  1.1110
 7031TIP3   OH242583   1.601   1.251  12.233 -0.2863  0.1655  0.1527
 7031TIP3    H142584   1.510   1.227  12.219 -0.1846  0.0696 -0.3579
 7031TIP3    H242585   1.626   1.207  12.314 -0.5386 -0.2248  0.0173
 7032TIP3   OH242586   4.640   2.671  17.168 -0.3168  0.3280 -0.3525
 7032TIP3    H142587   4.726   2.713  17.177 -1.2135  2.4529 -1.0695
 7032TIP3    H242588   4.609   2.698  17.082 -2.5413  1.3019  0.6841
 7033TIP3   OH242589   0.132   1.644  14.453  0.3183 -0.3485 -0.0357
 7033TIP3    H142590   0.133   1.738  14.438  0.0089 -0.2640  0.4405
 7033TIP3    H242591   0.219   1.623  14.485  0.3983 -0.2324 -0.1757
 7034TIP3   OH242592   3.847   6.426   2.972 -0.8595  0.1148  0.1442
 7034TIP3    H142593   3.845   6.337   3.008  0.3252  0.5671  1.4666
 7034TIP3    H242594   3.820   6.482   3.045 -0.6999  0.8965 -0.3807
 7035TIP3   OH242595   0.867   3.805  14.408 -0.0331 -0.2405  0.2186
 7035TIP3    H142596   0.932   3.869  14.438 -1.4891  1.9404 -1.0222
 7035TIP3    H242597   0.789   3.857  14.387 -2.0746 -2.6672  1.1714
 7036TIP3   OH242598   1.239   5.070   1.122 -0.8774 -0.0589 -0.2905
 7036TIP3    H142599   1.223   4.977   1.139  0.4161 -0.1257  0.6697
 7036TIP3    H242600   1.235   5.078   1.027  1.9868 -1.7162 -0.6565
 7037TIP3   OH242601   4.131   0.375  16.294  0.4059  0.0815 -0.1608
 7037TIP3    H142602   4.158   0.291  16.332 -0.9415 -0.1533  0.3174
 7037TIP3    H242603   4.213   0.418  16.271  1.2044 -0.5302  1.3863
 7038TIP3   OH242604   1.207   3.864   6.124  0.1290 -0.8582  0.0920
 7038TIP3    H142605   1.171   3.930   6.183 -1.1775 -1.4527 -0.0062
 7038TIP3    H242606   1.290   3.837   6.164 -0.1555 -0.3867  1.0093
 7039TIP3   OH242607   2.256   1.868  15.234  0.2007 -0.6718 -0.1599
 7039TIP3    H142608   2.238   1.863  15.327 -1.3526 -1.7121 -0.4912
 7039TIP3    H242609   2.207   1.945  15.204 -0.2838 -1.0356 -0.3153
 7040TIP3   OH242610   1.071   1.454  12.700 -0.1763 -0.5031  0.3982
 7040TIP3    H142611   1.022   1.501  12.767 -0.0073 -2.8859  2.3237
 7040TIP3    H242612   1.013   1.452  12.624 -1.5891 -0.1826  1.4421
 7041TIP3   OH242613   1.634   0.139  15.360 -0.0096 -0.0438 -0.7584
 7041TIP3    H142614   1.553   0.186  15.378 -0.4681 -0.7392 -0.9712
 7041TIP3    H242615   1.647   0.082  15.436 -0.9083 -1.5431 -1.6709
 7042TIP3   OH242616   1.251   0.709   1.732 -0.0709 -0.2094 -0.6439
 7042TIP3    H142617   1.264   0.792   1.685  1.5647 -0.5663 -0.8783
 7042TIP3    H242618   1.175   0.670   1.690 -0.1905  0.6685 -1.2772
 7043TIP3   OH242619   5.783   1.281   1.299 -0.2572  0.3882  0.1551
 7043TIP3    H142620   5.761   1.341   1.371  0.7313 -0.3101  1.0715
 7043TIP3    H242621   5.870   1.249   1.321  0.5775  1.0523 -1.9894
 7044TIP3   OH242622   1.890   2.628   0.020  0.3744 -0.4812 -0.1389
 7044TIP3    H142623   1.924   2.654  -0.065 -0.0759  0.4004 -0.0583
 7044TIP3    H242624   1.836   2.550   0.002  2.1639 -1.7441 -0.3027
 7045TIP3   OH242625   1.989   6.752   4.890 -0.5410 -0.1739 -0.3381
 7045TIP3    H142626   2.049   6.768   4.963  1.4039 -0.0881 -1.9026
 7045TIP3    H242627   2.005   6.824   4.829 -2.3349 -0.0916 -0.7920
 7046TIP3   OH242628   0.107   1.043   5.848 -0.3385  0.2602 -0.5412
 7046TIP3    H142629   0.090   1.128   5.888 -0.6611  0.3111 -0.7858
 7046TIP3    H242630   0.130   0.986   5.922 -0.3580  0.5003 -0.3494
 7047TIP3   OH242631   1.530   3.392  13.511 -0.4491 -0.0156  0.1215
 7047TIP3    H142632   1.467   3.462  13.493 -3.7405 -2.9713 -1.0129
 7047TIP3    H242633   1.595   3.399  13.441 -0.9738  1.5725 -0.2499
 7048TIP3   OH242634   1.870   0.568   2.105  0.5072 -0.0939  0.5302
 7048TIP3    H142635   1.848   0.555   2.197  3.6917 -0.6013  1.3648
 7048TIP3    H242636   1.834   0.653   2.083 -2.5665 -1.0469  1.3889
 7049TIP3   OH242637   6.823   0.518  14.046 -0.8076 -0.2458 -0.4559
 7049TIP3    H142638   6.889   0.578  14.011 -0.8624  1.1474  1.6303
 7049TIP3    H242639   6.772   0.491  13.970  0.6857  0.5227 -1.7752
 7050TIP3   OH242640   0.648   3.002   2.454 -0.4500  0.0494 -0.3080
 7050TIP3    H142641   0.640   3.055   2.374  1.2255 -0.2241 -0.6937
 7050TIP3    H242642   0.614   2.916   2.429  0.2285 -0.0847 -0.7887
 7051TIP3   OH242643   5.684   0.633  16.221  0.0553  0.2158  1.2186
 7051TIP3    H142644   5.710   0.648  16.131 -0.9041  0.2449  0.9403
 7051TIP3    H242645   5.767   0.633  16.270  0.4920  1.3529  0.5158
 7052TIP3   OH242646   2.593   2.732  13.624 -0.2262 -0.0205 -0.5713
 7052TIP3    H142647   2.626   2.802  13.567 -0.7592  0.4080 -0.3653
 7052TIP3    H242648   2.659   2.726  13.694 -0.5700  0.8326 -0.1592
 7053TIP3   OH242649   4.269   0.404   0.449 -0.0691  0.6381 -0.3600
 7053TIP3    H142650   4.306   0.429   0.364 -0.3270  1.4816 -0.2311
 7053TIP3    H242651   4.342   0.365   0.497  0.2058  0.6432 -0.7768
 7054TIP3   OH242652   3.754   0.958  13.577  0.1822  0.0473  0.1639
 7054TIP3    H142653   3.755   0.996  13.665  1.2346  0.8834 -0.1917
 7054TIP3    H242654   3.734   1.031  13.519  1.1630 -0.1429 -0.4370
 7055TIP3   OH242655   6.026   2.370  17.077 -0.0073  0.1152  0.1012
 7055TIP3    H142656   6.006   2.281  17.047 -0.6236 -0.2496  1.4887
 7055TIP3    H242657   5.952   2.423  17.046  0.2510  0.1055 -0.5402
 7056TIP3   OH242658   4.661   1.156   4.725  0.4477  0.5029  0.3242
 7056TIP3    H142659   4.590   1.139   4.662  1.0188 -0.8361  0.0256
 7056TIP3    H242660   4.618   1.206   4.795 -0.4470  1.0516 -0.5740
 7057TIP3   OH242661   1.149   4.080   4.290  0.3154  0.1270 -0.7085
 7057TIP3    H142662   1.176   4.055   4.202  1.2101 -2.1950  0.1460
 7057TIP3    H242663   1.190   4.015   4.347 -0.1961  1.5837  1.4404
 7058TIP3   OH242664   3.966   1.978   0.476 -0.4118  0.3564  0.0657
 7058TIP3    H142665   3.876   1.945   0.472 -1.2159  2.2204  1.3953
 7058TIP3    H242666   3.994   1.960   0.566 -0.4000  1.9674  0.4234
 7059TIP3   OH242667   4.662   3.156  12.257 -0.0017 -0.4068  0.1946
 7059TIP3    H142668   4.650   3.159  12.352  0.9513 -1.1331  0.3460
 7059TIP3    H242669   4.614   3.079  12.229 -0.7001  0.0830  0.0063
 7060TIP3   OH242670   4.792   5.178   1.496 -0.0966  0.2300 -0.0109
 7060TIP3    H142671   4.791   5.261   1.447  0.0881  0.0914 -0.2457
 7060TIP3    H242672   4.865   5.129   1.460 -1.0540 -0.6287 -0.8525
 7061TIP3   OH242673   2.553   2.598  13.180  0.1006  0.8044  0.0230
 7061TIP3    H142674   2.511   2.513  13.197  0.9058  0.5377  0.7579
 7061TIP3    H242675   2.538   2.614  13.087 -2.5014  1.1964  0.4117
 7062TIP3   OH242676   1.578   5.187  17.201  0.2261  0.5399  0.2315
 7062TIP3    H142677   1.627   5.132  17.141 -2.7678 -0.9578 -1.0556
 7062TIP3    H242678   1.624   5.179  17.284  1.2985 -1.9810 -0.5081
 7063TIP3   OH242679   2.825   2.908   4.764  0.2192 -0.3903 -0.1880
 7063TIP3    H142680   2.733   2.912   4.739  0.4539 -2.1690 -1.5840
 7063TIP3    H242681   2.832   2.831   4.821  0.4908  1.0593  1.8429
 7064TIP3   OH242682   3.538   6.636   6.974 -0.0728 -0.2390 -0.1744
 7064TIP3    H142683   3.512   6.697   6.904  0.7007 -0.4407 -0.6453
 7064TIP3    H242684   3.615   6.591   6.940 -0.4318 -1.2556  0.3019
 7065TIP3   OH242685   3.789   4.462  15.731  0.3393  0.1492  0.0770
 7065TIP3    H142686   3.850   4.513  15.678  0.2740  0.8628  0.6647
 7065TIP3    H242687   3.763   4.522  15.801 -1.0214 -0.1378 -0.1530
 7066TIP3   OH242688   4.452   0.079  10.809  0.3018 -0.0342  0.1062
 7066TIP3    H142689   4.389   0.050  10.876 -0.3851  0.5864 -0.2559
 7066TIP3    H242690   4.419   0.164  10.781 -0.1092 -0.7857 -1.8733
 7067TIP3   OH242691   5.616   6.824   3.204  0.0529  0.3829  0.2362
 7067TIP3    H142692   5.695   6.792   3.249 -0.5713 -0.3607  0.8287
 7067TIP3    H242693   5.545   6.807   3.265 -0.9142 -1.2558 -1.2538
 7068TIP3   OH242694   6.824   5.108  12.777 -0.1166 -0.2932  0.0781
 7068TIP3    H142695   6.849   5.055  12.853 -2.2064 -1.9735 -0.3188
 7068TIP3    H242696   6.852   5.057  12.701 -0.3135  0.1652 -0.3107
 7069TIP3   OH242697   4.398   3.600  14.182  0.2964  0.1074  0.2515
 7069TIP3    H142698   4.382   3.627  14.273 -0.6394 -0.0463  0.1395
 7069TIP3    H242699   4.434   3.679  14.140 -0.8066  0.6862  0.3516
 7070TIP3   OH242700   4.785   6.337  12.109 -0.2075 -0.3444 -0.1295
 7070TIP3    H142701   4.701   6.323  12.152  0.0774 -1.1672  0.1704
 7070TIP3    H242702   4.828   6.252  12.110  1.0210  0.2554  0.5303
 7071TIP3   OH242703   0.478   6.135   2.598  0.4403  0.2353  0.7693
 7071TIP3    H142704   0.491   6.046   2.564  1.7554  0.5271  0.4371
 7071TIP3    H242705   0.532   6.190   2.541 -2.7236  1.7442 -1.0733
 7072TIP3   OH242706   5.250   3.306  12.392  0.2152  0.1183  0.3108
 7072TIP3    H142707   5.288   3.337  12.474 -1.8483  0.1355  1.2992
 7072TIP3    H242708   5.325   3.299  12.333  1.4813  1.9886  1.5881
 7073TIP3   OH242709   0.034   4.875  14.904 -0.0164 -0.3611  0.0390
 7073TIP3    H142710   0.096   4.859  14.833 -0.0552  0.7949 -0.2601
 7073TIP3    H242711  -0.048   4.897  14.860 -0.3466 -0.7653  0.4423
 7074TIP3   OH242712   1.823   1.579   4.501  0.0715 -0.4301  0.4821
 7074TIP3    H142713   1.902   1.526   4.513 -0.1598 -1.0798 -0.7552
 7074TIP3    H242714   1.754   1.528   4.544  0.3054  0.1781  1.6389
 7075TIP3   OH242715   3.360   1.258  16.465 -0.2255  0.5338  0.0349
 7075TIP3    H142716   3.308   1.337  16.479 -0.5691 -0.0247  2.4601
 7075TIP3    H242717   3.429   1.262  16.531  0.6972 -0.4361 -0.8315
 7076TIP3   OH242718   4.193   1.048   5.777  0.5676  0.4027  0.4045
 7076TIP3    H142719   4.182   1.142   5.791  1.8787  0.6583 -0.1544
 7076TIP3    H242720   4.213   1.014   5.864 -1.6000  0.3340  0.9407
 7077TIP3   OH242721   6.291   0.199   1.923 -0.3143 -0.0040  0.0228
 7077TIP3    H142722   6.261   0.181   2.011  0.8552 -2.0822  0.0655
 7077TIP3    H242723   6.261   0.124   1.871 -0.5397  0.9258 -1.2550
 7078TIP3   OH242724   5.077   6.261  11.580  0.1548  0.3648  0.1729
 7078TIP3    H142725   5.058   6.186  11.636 -3.4728  1.7318  1.0319
 7078TIP3    H242726   5.128   6.224  11.507 -0.7844 -2.7563  0.9630
 7079TIP3   OH242727   5.195   2.664  14.804  0.3408 -0.6248  0.3385
 7079TIP3    H142728   5.211   2.759  14.807 -2.2435 -0.1349  1.4433
 7079TIP3    H242729   5.188   2.644  14.711 -0.7601  0.6609  0.0975
 7080TIP3   OH242730   2.632   0.632   2.842  0.0655 -0.2120 -0.4028
 7080TIP3    H142731   2.565   0.640   2.775 -0.6944  0.7036  0.4419
 7080TIP3    H242732   2.684   0.712   2.834 -0.3485  0.1507  0.4231
 7081TIP3   OH242733   6.080   1.376  15.938  0.4270  0.6909 -0.1586
 7081TIP3    H142734   6.013   1.390  15.871 -1.1832 -0.0455  1.2186
 7081TIP3    H242735   6.082   1.458  15.988 -1.0653  0.0117  1.1155
 7082TIP3   OH242736   2.560   0.828   2.282 -0.1711 -0.2514 -0.0245
 7082TIP3    H142737   2.484   0.776   2.258 -0.6738  0.1115  0.7565
 7082TIP3    H242738   2.618   0.767   2.328 -0.6764 -0.1773  0.7256
 7083TIP3   OH242739   1.196   1.719   4.540 -0.2634 -0.0002 -1.4807
 7083TIP3    H142740   1.240   1.773   4.606 -3.3931  0.6458  0.2947
 7083TIP3    H242741   1.267   1.672   4.496  2.0637 -1.1746  2.9283
 7084TIP3   OH242742   3.143   1.396  13.641 -0.4219 -0.9392 -0.0984
 7084TIP3    H142743   3.117   1.485  13.664  1.1765 -0.0692 -1.4810
 7084TIP3    H242744   3.086   1.340  13.694 -1.0209  0.8917  1.2851
 7085TIP3   OH242745   3.575   5.114   5.829 -0.8463 -0.3328 -0.0548
 7085TIP3    H142746   3.511   5.164   5.879 -1.6523 -0.9856 -0.4147
 7085TIP3    H242747   3.655   5.117   5.883 -1.4112 -0.2092  0.8024
 7086TIP3   OH242748   5.863   4.194   1.153 -0.0226  0.2521 -0.0016
 7086TIP3    H142749   5.879   4.261   1.220 -1.5166  2.3114 -1.5759
 7086TIP3    H242750   5.774   4.162   1.173 -0.8792  1.5710 -1.4540
 7087TIP3   OH242751   4.937   3.656   5.525 -0.4958 -0.0209 -0.6336
 7087TIP3    H142752   4.920   3.739   5.481 -1.3580 -0.6378 -1.5119
 7087TIP3    H242753   4.876   3.594   5.484  1.1019 -1.4216 -1.0133
 7088TIP3   OH242754   6.367   4.903  11.212 -1.0182  0.4379  0.3982
 7088TIP3    H142755   6.420   4.936  11.139 -2.0612 -0.3631 -0.7645
 7088TIP3    H242756   6.367   4.808  11.200  1.5528 -0.1332  3.4040
 7089TIP3   OH242757   0.816   5.634   1.820  0.0321 -0.9697  0.0428
 7089TIP3    H142758   0.823   5.723   1.855 -1.8872 -1.4666  1.8742
 7089TIP3    H242759   0.861   5.578   1.883  0.7333 -1.4070 -0.8089
 7090TIP3   OH242760   4.087   5.606   4.980  0.0465 -0.4776 -0.5660
 7090TIP3    H142761   4.132   5.529   4.943 -1.4354 -0.9741 -1.4106
 7090TIP3    H242762   4.155   5.674   4.981  1.3854 -1.7598  0.1780
 7091TIP3   OH242763   2.250   1.351   0.211  0.3546 -0.3854 -0.2022
 7091TIP3    H142764   2.239   1.375   0.303  1.1867 -2.2149  0.4405
 7091TIP3    H242765   2.314   1.413   0.177 -1.7371  1.8548 -0.2824
 7092TIP3   OH242766   0.368   3.192  16.156  0.1487 -0.4018  0.1963
 7092TIP3    H142767   0.324   3.250  16.218 -0.5302 -1.8709  1.1409
 7092TIP3    H242768   0.448   3.239  16.132 -0.1000  0.6715  1.3683
 7093TIP3   OH242769   0.571   4.259   0.658 -0.4564  0.1618 -0.6632
 7093TIP3    H142770   0.578   4.169   0.626 -3.8522 -0.1799 -0.7528
 7093TIP3    H242771   0.510   4.302   0.599 -0.9434  1.7467  0.8858
 7094TIP3   OH242772   2.428   2.373   5.647  0.0012 -0.4400  0.0887
 7094TIP3    H142773   2.408   2.299   5.704  1.8465 -0.6950  0.4467
 7094TIP3    H242774   2.489   2.427   5.696  1.2394 -0.3953 -1.4099
 7095TIP3   OH242775   3.169   3.785  13.627 -0.8178 -0.5398  0.5023
 7095TIP3    H142776   3.132   3.698  13.646 -1.3470 -0.7499 -1.3561
 7095TIP3    H242777   3.097   3.834  13.587 -0.5025  0.7726  1.4586
 7096TIP3   OH242778   5.965   5.075  10.177  0.0950 -0.1714  0.2927
 7096TIP3    H142779   6.045   5.081  10.124 -0.2280 -1.4295 -0.3609
 7096TIP3    H242780   5.997   5.057  10.265  0.5218 -1.4051 -0.0968
 7097TIP3   OH242781   0.081   0.979  15.829  0.0795  1.1360  0.5853
 7097TIP3    H142782   0.169   0.992  15.794 -0.5775  0.0781 -1.6608
 7097TIP3    H242783   0.079   0.889  15.859 -0.9570  0.2042 -1.9808
 7098TIP3   OH242784   0.921   4.027   3.682 -0.0593 -0.1815 -0.3182
 7098TIP3    H142785   1.013   4.053   3.692 -0.5160  1.1358  0.8282
 7098TIP3    H242786   0.915   3.993   3.593  1.9878 -2.3095  0.2581
 7099TIP3   OH242787   6.189   6.545   5.590  0.0846  0.6627  0.1662
 7099TIP3    H142788   6.284   6.533   5.593 -0.0318 -0.4385 -0.1836
 7099TIP3    H242789   6.161   6.495   5.514 -0.9730 -0.4462  1.2399
 7100TIP3   OH242790   5.774   6.727  12.064  0.2105 -0.0745 -0.4156
 7100TIP3    H142791   5.845   6.668  12.040  0.2743 -0.7609  1.3386
 7100TIP3    H242792   5.777   6.797  11.998  0.3558 -1.8068 -2.3364
 7101TIP3   OH242793   5.774   0.221  11.257 -0.6194  0.8357  0.2348
 7101TIP3    H142794   5.701   0.279  11.234  0.1183  0.7228 -2.7228
 7101TIP3    H242795   5.847   0.253  11.204  0.3545 -1.5528  0.0408
 7102TIP3   OH242796   0.881   4.649   4.031  0.3432  0.3655 -0.3173
 7102TIP3    H142797   0.965   4.606   4.048 -0.1472 -0.7449 -0.6149
 7102TIP3    H242798   0.879   4.660   3.936  0.5317  1.1989 -0.2276
 7103TIP3   OH242799   2.051   5.198  15.120  0.5440 -0.3903  0.4255
 7103TIP3    H142800   2.108   5.139  15.170 -0.6357 -1.3209  0.7247
 7103TIP3    H242801   1.964   5.184  15.157 -0.0140  0.4448 -0.5179
 7104TIP3   OH242802   3.140   0.083   6.392  0.0764 -0.0927  0.3951
 7104TIP3    H142803   3.092   0.023   6.451 -0.2559 -1.4618 -1.1917
 7104TIP3    H242804   3.077   0.151   6.371 -0.4544 -0.6551  0.1186
 7105TIP3   OH242805   2.956   1.222  15.465  0.0856 -0.1493 -0.1508
 7105TIP3    H142806   2.965   1.137  15.508  0.4503  0.3825  0.8327
 7105TIP3    H242807   2.972   1.203  15.372  0.8641 -1.0311  0.1505
 7106TIP3   OH242808   3.801   4.889  11.290  0.0153 -0.1087 -0.5609
 7106TIP3    H142809   3.708   4.912  11.284 -0.1562 -1.0903 -2.2866
 7106TIP3    H242810   3.839   4.918  11.207  1.3443  0.5767  0.2466
 7107TIP3   OH242811   3.450   6.080   0.669  0.0442 -0.2832  0.1932
 7107TIP3    H142812   3.368   6.053   0.709  0.2690  1.0175  1.6108
 7107TIP3    H242813   3.430   6.090   0.576 -1.1371 -0.9388  0.3705
 7108TIP3   OH242814   5.144   1.722  14.307 -0.4899 -0.4720 -0.6273
 7108TIP3    H142815   5.212   1.723  14.374 -1.3920  0.3624  0.3034
 7108TIP3    H242816   5.176   1.660  14.241  0.8883 -0.5291  0.0687
 7109TIP3   OH242817   2.768   1.805  12.747  0.8133 -0.2122  0.5506
 7109TIP3    H142818   2.742   1.770  12.832  1.6193 -0.8403  0.5558
 7109TIP3    H242819   2.863   1.793  12.744  0.6430 -1.6789 -1.0701
 7110TIP3   OH242820   6.496   3.311   2.327 -0.1845 -0.2188 -0.7591
 7110TIP3    H142821   6.516   3.399   2.358 -3.1203 -0.0993  1.2049
 7110TIP3    H242822   6.446   3.325   2.246  1.2993 -0.2514 -1.7263
 7111TIP3   OH242823   3.271   5.399  15.026  0.3488  0.4528  0.3299
 7111TIP3    H142824   3.220   5.325  15.057 -0.4034  0.7932 -0.0682
 7111TIP3    H242825   3.348   5.401  15.083  0.1670 -0.3699  0.6156
 7112TIP3   OH242826   1.996   0.872  12.411 -0.4385 -0.1277  0.4382
 7112TIP3    H142827   2.017   0.949  12.464 -1.8950  0.9033 -0.4145
 7112TIP3    H242828   2.015   0.899  12.321  0.4831 -1.3162  0.2511
 7113TIP3   OH242829   0.194   3.893   0.477  0.6168 -0.1182 -0.2121
 7113TIP3    H142830   0.185   3.858   0.566 -0.2081 -1.6432 -0.8633
 7113TIP3    H242831   0.216   3.816   0.423 -1.7505  0.2140 -1.7839
 7114TIP3   OH242832   3.906   5.454   4.666 -0.0870 -0.3019 -0.3744
 7114TIP3    H142833   3.924   5.361   4.654 -0.1724 -0.4235  0.3671
 7114TIP3    H242834   3.992   5.495   4.676  0.0573 -0.0337 -2.3326
 7115TIP3   OH242835   1.494   2.430  16.963 -0.3993 -0.1156  0.1519
 7115TIP3    H142836   1.555   2.468  16.901 -1.2654  3.2869  1.1985
 7115TIP3    H242837   1.468   2.503  17.020 -1.8452 -2.4141  2.7016
 7116TIP3   OH242838   5.071   3.592  10.426  0.1690  0.4796 -0.1279
 7116TIP3    H142839   5.161   3.605  10.454 -0.4117  0.0764  2.1602
 7116TIP3    H242840   5.062   3.498  10.415  0.0599  0.5293 -0.4741
 7117TIP3   OH242841   4.596   3.628   5.242 -0.3313 -0.0148 -0.4269
 7117TIP3    H142842   4.594   3.664   5.153 -1.1789  1.5070  0.1761
 7117TIP3    H242843   4.644   3.545   5.233  1.6324  1.1831 -1.9108
 7118TIP3   OH242844   1.988   0.302   3.528  0.0112 -0.1207 -0.2735
 7118TIP3    H142845   2.011   0.223   3.480 -1.8170 -0.5478 -0.5104
 7118TIP3    H242846   2.029   0.292   3.614 -0.5437 -1.5441 -0.1561
 7119TIP3   OH242847   6.387   0.272   5.599  0.4218  0.4356  1.0106
 7119TIP3    H142848   6.369   0.183   5.567  1.8793  0.0399  1.2106
 7119TIP3    H242849   6.440   0.258   5.678  1.4021  1.4749  0.5628
 7120TIP3   OH242850   4.911   2.993   0.854  0.0677 -0.4843  0.0064
 7120TIP3    H142851   4.997   3.030   0.834 -0.6974  0.9760 -0.7972
 7120TIP3    H242852   4.886   3.033   0.937  0.1866 -0.9355  0.2582
 7121TIP3   OH242853   3.326   5.956  12.587 -0.1162  0.0276 -0.2493
 7121TIP3    H142854   3.369   5.893  12.645  0.1507 -0.0018 -0.4778
 7121TIP3    H242855   3.366   6.040  12.609 -0.8658  0.2201  0.4467
 7122TIP3   OH242856   2.832   5.935  11.114  0.3353  0.2605  0.4837
 7122TIP3    H142857   2.916   5.909  11.152  1.1513  1.9924  0.0084
 7122TIP3    H242858   2.829   5.891  11.029  1.1797  0.7993  0.1503
 7123TIP3   OH242859   5.694   5.069  10.907  0.1780  0.6438 -0.0294
 7123TIP3    H142860   5.624   5.056  10.843 -0.9070  1.5547  0.9265
 7123TIP3    H242861   5.739   5.148  10.878 -0.5259  1.2499  0.4835
 7124TIP3   OH242862   3.954   6.067  10.969  0.7447 -0.0017 -0.1843
 7124TIP3    H142863   3.970   6.161  10.962  1.7113 -0.0765  0.8239
 7124TIP3    H242864   3.911   6.055  11.053  1.1447 -0.5281 -0.0517
 7125TIP3   OH242865   2.871   2.326   1.980  0.2134  0.2340  0.2586
 7125TIP3    H142866   2.903   2.249   2.027 -0.7307 -0.4260 -0.1474
 7125TIP3    H242867   2.925   2.398   2.012 -0.9745 -0.0071  3.0725
 7126TIP3   OH242868   1.143   2.026  11.273 -0.4383 -0.1897 -0.6588
 7126TIP3    H142869   1.078   2.061  11.334 -0.7085  1.1713 -1.6558
 7126TIP3    H242870   1.093   1.966  11.217  0.0432 -2.3456  1.1148
 7127TIP3   OH242871   1.294   5.328   3.462  0.3089 -0.0120 -0.6581
 7127TIP3    H142872   1.367   5.279   3.426  0.0457  0.9862 -2.6683
 7127TIP3    H242873   1.271   5.281   3.542  0.1163 -3.1522 -2.4062
 7128TIP3   OH242874   2.031   0.371   1.297  0.3077  0.4445 -0.1529
 7128TIP3    H142875   2.124   0.394   1.298  0.0597  1.4945 -0.0133
 7128TIP3    H242876   2.010   0.353   1.388  0.0757  1.5463  0.0308
 7129TIP3   OH242877   4.395   4.673   3.782 -0.7747  0.3396  0.3399
 7129TIP3    H142878   4.372   4.726   3.858 -1.4342 -0.6694  0.8494
 7129TIP3    H242879   4.371   4.584   3.806  2.7495 -0.6955  0.5504
 7130TIP3   OH242880   0.063   5.811   3.689  0.5693  0.3596 -0.4702
 7130TIP3    H142881  -0.004   5.836   3.752  0.2788  1.2955 -1.1219
 7130TIP3    H242882   0.130   5.767   3.741 -0.0700  0.3353  0.3508
 7131TIP3   OH242883   1.929   5.106  16.403 -0.4929  0.2449  0.5745
 7131TIP3    H142884   1.898   5.187  16.362  0.0731  1.0630  1.7126
 7131TIP3    H242885   2.015   5.129  16.439 -0.5694 -0.7082  1.4016
 7132TIP3   OH242886   4.798   2.729   3.668  0.0695  0.0635 -0.5486
 7132TIP3    H142887   4.724   2.670   3.681 -1.8512  2.5988  0.8744
 7132TIP3    H242888   4.790   2.759   3.577 -0.1434 -0.2875 -0.6466
 7133TIP3   OH242889   3.374   2.268  11.073 -0.2251 -0.4342  0.0168
 7133TIP3    H142890   3.410   2.197  11.126 -0.2049 -1.2374 -1.0517
 7133TIP3    H242891   3.337   2.224  10.997 -0.0512  0.7214 -0.7492
 7134TIP3   OH242892   6.626   0.868  15.658 -0.6053 -0.4103 -0.1261
 7134TIP3    H142893   6.642   0.775  15.640 -1.7394 -0.3239 -1.7875
 7134TIP3    H242894   6.713   0.904  15.678 -0.2291 -1.9161  1.0973
 7135TIP3   OH242895   2.151   3.407   3.054  0.4750  0.1737 -0.2653
 7135TIP3    H142896   2.061   3.439   3.049  0.4989  0.1741 -0.7202
 7135TIP3    H242897   2.205   3.480   3.021  0.6874  0.3529  0.4456
 7136TIP3   OH242898   5.687   1.988   4.280 -0.1629  1.0644  0.3811
 7136TIP3    H142899   5.730   2.073   4.269  0.2083  0.8200 -0.0835
 7136TIP3    H242900   5.612   2.007   4.337  0.2174  1.6042  0.7167
 7137TIP3   OH242901   2.489   4.147   4.886  0.3488  0.5157 -0.0964
 7137TIP3    H142902   2.572   4.195   4.880  1.1423 -0.8795 -0.6138
 7137TIP3    H242903   2.487   4.094   4.806 -1.0976  0.6053 -0.1332
 7138TIP3   OH242904   1.100   4.365  14.371  0.1846  0.4496  0.0987
 7138TIP3    H142905   1.069   4.332  14.455 -0.2140  0.3220 -0.0970
 7138TIP3    H242906   1.118   4.287  14.319 -3.0803  0.4351 -1.2383
 7139TIP3   OH242907   4.016   6.207  11.875 -0.2525 -0.1242  0.4576
 7139TIP3    H142908   4.097   6.210  11.825  0.1262 -1.0112  1.0069
 7139TIP3    H242909   3.954   6.161  11.818 -1.7288  4.1136 -1.7999
 7140TIP3   OH242910   1.354   0.164   2.313  0.0085  0.2625 -0.6919
 7140TIP3    H142911   1.404   0.209   2.382 -0.6847  0.4965 -0.3298
 7140TIP3    H242912   1.407   0.175   2.234  0.4979  0.5593 -0.3317
 7141TIP3   OH242913   5.611   2.117  11.447  0.2680  0.1236 -0.4477
 7141TIP3    H142914   5.577   2.171  11.376 -2.2284 -0.6865  0.0360
 7141TIP3    H242915   5.586   2.027  11.423  1.0322 -0.3840  0.5632
 7142TIP3   OH242916   1.304   6.764   4.975  0.3321 -0.1480 -0.3782
 7142TIP3    H142917   1.247   6.704   4.927  0.5291  0.4708 -1.4348
 7142TIP3    H242918   1.366   6.795   4.909 -0.8720  2.5980 -0.3503
 7143TIP3   OH242919   1.922   3.551   1.606  0.3259 -0.3289  0.1203
 7143TIP3    H142920   1.985   3.598   1.660  0.0968  1.3467 -0.9721
 7143TIP3    H242921   1.948   3.459   1.612  1.2224 -0.0090  1.7996
 7144TIP3   OH242922   5.837   0.610   1.479  0.2906  0.3874  0.0674
 7144TIP3    H142923   5.760   0.653   1.516  1.3602  0.9970  1.7011
 7144TIP3    H242924   5.803   0.530   1.440 -1.3863  1.4258 -0.7412
 7145TIP3   OH242925   0.851   6.317   2.012 -0.0200  0.5607 -0.8396
 7145TIP3    H142926   0.843   6.230   2.052  1.3919  1.7670  2.4295
 7145TIP3    H242927   0.765   6.333   1.972 -0.6121 -1.9348 -0.7403
 7146TIP3   OH242928   6.562   1.665   1.724 -0.0044 -0.4544  0.3946
 7146TIP3    H142929   6.538   1.577   1.695  0.6111 -0.0611 -1.4003
 7146TIP3    H242930   6.593   1.709   1.645 -1.6523  1.8606  0.9372
 7147TIP3   OH242931   3.042   2.270   1.002 -0.1414 -0.1738  0.4438
 7147TIP3    H142932   3.044   2.357   1.043  0.4199  1.4312 -2.7167
 7147TIP3    H242933   3.122   2.267   0.949 -1.5537 -1.4591 -1.7268
 7148TIP3   OH242934   4.074   5.862   0.572  0.5884  0.5441 -0.0294
 7148TIP3    H142935   4.143   5.799   0.593  0.0049 -0.0163  0.2159
 7148TIP3    H242936   4.005   5.810   0.531  0.3823  1.1307 -0.4547
 7149TIP3   OH242937   0.710   6.562  14.369 -0.3253 -0.3513 -0.0316
 7149TIP3    H142938   0.690   6.478  14.327 -1.2192  0.4691 -1.3358
 7149TIP3    H242939   0.683   6.627  14.304  0.3894  0.9430  0.9456
 7150TIP3   OH242940   1.880   2.922  15.078 -0.0123  0.5606  0.5069
 7150TIP3    H142941   1.849   2.852  15.020  1.7710  0.4124 -0.3506
 7150TIP3    H242942   1.853   3.003  15.034 -1.1182  0.4564  0.9457
 7151TIP3   OH242943   3.990   6.242   5.806 -0.2193  0.1903  0.1296
 7151TIP3    H142944   4.049   6.302   5.760  0.6174  0.3786  1.3707
 7151TIP3    H242945   4.048   6.176   5.844 -0.7713  0.4369  1.4719
 7152TIP3   OH242946   3.410   3.187  11.395 -0.5089  0.0051  0.1824
 7152TIP3    H142947   3.365   3.128  11.455  0.8529 -2.2038 -0.8321
 7152TIP3    H242948   3.503   3.179  11.419 -0.2566  1.6401 -0.1113
 7153TIP3   OH242949   5.863   3.890  13.738  0.0366 -1.1464 -0.2552
 7153TIP3    H142950   5.851   3.985  13.731  1.2122 -1.0954 -2.5134
 7153TIP3    H242951   5.775   3.856  13.754 -0.4018  0.3090  0.5758
 7154TIP3   OH242952   0.876   3.066  12.322 -0.1900 -0.6053 -0.1354
 7154TIP3    H142953   0.889   2.973  12.303  0.1801 -0.4981 -0.4216
 7154TIP3    H242954   0.907   3.111  12.243 -1.8138 -0.3034 -0.6261
 7155TIP3   OH242955   6.563   6.023   2.794  0.0550 -0.3158 -0.0420
 7155TIP3    H142956   6.478   6.004   2.756 -1.6681  3.5333  1.3607
 7155TIP3    H242957   6.558   5.989   2.884  0.1455 -0.4350 -0.0820
 7156TIP3   OH242958   1.091   1.247  12.042  0.4222  0.1764  0.6159
 7156TIP3    H142959   1.042   1.173  12.005  0.8577 -0.2439  0.8717
 7156TIP3    H242960   1.026   1.296  12.093 -0.0502  0.4213 -0.1869
 7157TIP3   OH242961   1.779   3.126   5.311 -0.2001  0.6701 -0.3123
 7157TIP3    H142962   1.688   3.111   5.338 -0.6341  1.8145 -1.0488
 7157TIP3    H242963   1.809   3.197   5.368 -0.2686  1.3017 -1.0391
 7158TIP3   OH242964   5.069   2.972  14.727  0.7689  0.3449  0.6580
 7158TIP3    H142965   5.146   2.986  14.782  0.3015  1.4030  1.0612
 7158TIP3    H242966   5.043   3.060  14.700 -1.1972  0.1530  1.7709
 7159TIP3   OH242967   0.472   4.853   2.201  0.0421  0.0665 -0.2206
 7159TIP3    H142968   0.459   4.784   2.266 -1.8406  0.6457  0.0841
 7159TIP3    H242969   0.397   4.844   2.142  1.8242 -0.6214 -2.5373
 7160TIP3   OH242970   6.305   4.820   3.186  0.2276  0.0373 -0.6956
 7160TIP3    H142971   6.401   4.824   3.196  0.2363 -2.0514  0.8837
 7160TIP3    H242972   6.271   4.871   3.260  0.0957  0.9270 -1.3577
 7161TIP3   OH242973   3.757   1.306  14.495 -0.6011 -0.5584 -0.2666
 7161TIP3    H142974   3.803   1.368  14.438 -0.7612 -0.2421 -0.0528
 7161TIP3    H242975   3.771   1.221  14.453  1.3008 -0.6657  0.4819
 7162TIP3   OH242976   5.216   3.380   0.499  0.0905 -0.1271 -0.1591
 7162TIP3    H142977   5.300   3.425   0.507 -0.0794  0.0458  0.7897
 7162TIP3    H242978   5.232   3.310   0.436  0.4123  1.1349 -1.5527
 7163TIP3   OH242979   3.089   3.021  10.980  0.2496  0.2225  0.9041
 7163TIP3    H142980   3.023   2.967  11.025 -1.6849  0.8844 -0.9698
 7163TIP3    H242981   3.094   3.101  11.032 -1.8657  0.9285  0.1164
 7164TIP3   OH242982   4.538   4.642   4.250  0.1905 -0.1500  0.3052
 7164TIP3    H142983   4.573   4.631   4.162  1.7315 -2.4945  1.1357
 7164TIP3    H242984   4.491   4.560   4.267 -1.5576  0.9558  1.0898
 7165TIP3   OH242985   6.294   5.457   2.192 -0.5396  0.0643 -0.0152
 7165TIP3    H142986   6.269   5.490   2.278 -2.4653 -2.0703  0.3733
 7165TIP3    H242987   6.382   5.420   2.205 -0.2926  0.8671  0.6860
 7166TIP3   OH242988   2.893   1.759   0.827 -0.1796 -0.2567 -0.1387
 7166TIP3    H142989   2.830   1.821   0.863  1.4002 -0.2975  3.0121
 7166TIP3    H242990   2.963   1.813   0.792  0.8462 -0.1326  1.9441
 7167TIP3   OH242991   3.029   4.943   5.703  0.6592 -0.4644 -0.1200
 7167TIP3    H142992   3.061   4.855   5.722  0.1596 -0.4947  0.6190
 7167TIP3    H242993   2.943   4.946   5.744  0.3072  0.0793 -0.9002
 7168TIP3   OH242994   2.130   2.213   6.282 -0.8184 -0.1526 -0.4118
 7168TIP3    H142995   2.036   2.229   6.290 -1.0159 -2.1493  2.8624
 7168TIP3    H242996   2.136   2.122   6.253  0.1412  0.1004 -1.0496
 7169TIP3   OH242997   5.499   5.299  14.605  0.0921  0.3947  0.1893
 7169TIP3    H142998   5.438   5.336  14.670 -0.8781 -1.0777  0.1615
 7169TIP3    H242999   5.465   5.329  14.521 -1.7755 -1.8633  0.0227
 7170TIP3   OH243000   5.086   6.245   3.080 -0.0489  0.1080  0.1137
 7170TIP3    H143001   5.099   6.321   3.137  0.9935  0.9804 -1.2174
 7170TIP3    H243002   5.126   6.270   2.997  0.3116 -1.9070 -0.3776
 7171TIP3   OH243003   2.315   0.505  14.409 -0.0811 -0.3657  0.0757
 7171TIP3    H143004   2.320   0.578  14.347 -1.0378 -1.1686 -0.9678
 7171TIP3    H243005   2.229   0.516  14.451 -0.6918 -1.4939 -0.8565
 7172TIP3   OH243006   5.691   3.432   4.064  0.1548 -0.1896 -0.1605
 7172TIP3    H143007   5.757   3.407   3.998 -1.8631  0.1536 -2.4241
 7172TIP3    H243008   5.658   3.348   4.097  0.5385 -0.3713 -0.2298
 7173TIP3   OH243009   6.546   1.720  16.705  0.5927 -0.5054  0.0192
 7173TIP3    H143010   6.639   1.725  16.682  0.5612 -1.6065 -0.4171
 7173TIP3    H243011   6.527   1.803  16.748  1.8842 -0.4242  0.4690
 7174TIP3   OH243012   3.674   1.821  10.439 -0.0444  0.4707  0.4255
 7174TIP3    H143013   3.665   1.903  10.391  2.0744  0.0736 -0.8128
 7174TIP3    H243014   3.711   1.846  10.524 -0.4515  0.8786  0.4847
 7175TIP3   OH243015   6.735   1.929   0.309 -0.6614 -0.0540  0.3267
 7175TIP3    H143016   6.824   1.950   0.281 -0.2595 -1.1100  0.7450
 7175TIP3    H243017   6.746   1.855   0.369 -1.6369  1.0788  1.9612
 7176TIP3   OH243018   2.668   6.168   4.457 -0.2743 -0.1675 -0.2222
 7176TIP3    H143019   2.611   6.182   4.533 -1.5846 -4.2337 -0.2025
 7176TIP3    H243020   2.612   6.123   4.393  2.2524 -2.3626 -1.1090
 7177TIP3   OH243021   0.739   3.536   3.866 -0.3899 -0.3234 -0.2311
 7177TIP3    H143022   0.713   3.470   3.803 -1.0815 -0.1401 -0.1413
 7177TIP3    H243023   0.835   3.541   3.858  0.1610 -3.7558  2.1297
 7178TIP3   OH243024   0.627   0.212   4.348  0.5498  0.5255 -0.2777
 7178TIP3    H143025   0.572   0.177   4.419  2.5652  0.8753  1.5670
 7178TIP3    H243026   0.567   0.266   4.297 -1.1004 -0.0797  0.8948
 7179TIP3   OH243027   5.808   4.879   5.751  0.7989 -0.3221  0.4024
 7179TIP3    H143028   5.857   4.832   5.818 -0.0216 -1.7716  0.0352
 7179TIP3    H243029   5.733   4.822   5.732 -0.0562  0.9990 -0.3138
 7180TIP3   OH243030   4.803   3.194   1.414  0.3196 -0.5267  0.0468
 7180TIP3    H143031   4.827   3.250   1.488 -2.0675 -1.9846  2.0736
 7180TIP3    H243032   4.882   3.143   1.395  1.2043  0.4181  1.0783
 7181TIP3   OH243033   3.752   0.896   5.628 -0.4274  0.1141  0.0938
 7181TIP3    H143034   3.692   0.886   5.702  0.4652 -0.5714  0.7368
 7181TIP3    H243035   3.738   0.986   5.598  1.2477  1.4550  2.9265
 7182TIP3   OH243036   4.826   5.678   1.113  0.0443 -0.1951 -0.2316
 7182TIP3    H143037   4.787   5.635   1.189 -0.5492  1.2685  0.3415
 7182TIP3    H243038   4.805   5.620   1.039  0.7274 -1.6887  0.7067
 7183TIP3   OH243039   1.332   4.293  10.521 -0.6310 -0.2415  0.7146
 7183TIP3    H143040   1.316   4.375  10.474 -0.4974 -0.4200  0.3544
 7183TIP3    H243041   1.396   4.247  10.467 -2.0221 -1.3775 -0.0229
 7184TIP3   OH243042   1.277   2.273  16.849 -0.6940  0.2635  0.0745
 7184TIP3    H143043   1.211   2.305  16.910  0.0228  0.4551  0.7706
 7184TIP3    H243044   1.361   2.297  16.890 -0.1740 -0.8986 -0.2685
 7185TIP3   OH243045   5.966   0.462  12.893  0.2781 -0.2430  0.0257
 7185TIP3    H143046   5.915   0.446  12.972 -0.7321 -0.6417 -0.6787
 7185TIP3    H243047   6.027   0.532  12.917 -0.2607 -0.1068  1.0450
 7186TIP3   OH243048   6.097   6.123  13.818 -0.1967  0.0370 -0.3054
 7186TIP3    H143049   6.117   6.092  13.729 -1.2871 -0.9274 -0.2415
 7186TIP3    H243050   6.122   6.050  13.875 -0.4290  0.2591  0.0839
 7187TIP3   OH243051   3.488   2.304   0.685 -0.2650  0.0381 -0.7289
 7187TIP3    H143052   3.577   2.320   0.653  0.0480  1.0444  0.5389
 7187TIP3    H243053   3.438   2.381   0.657 -0.1583  0.5813  0.4764
 7188TIP3   OH243054   5.637   5.374   5.763 -0.1667 -0.4498 -0.1103
 7188TIP3    H143055   5.674   5.286   5.773  1.9743  0.4876  0.8984
 7188TIP3    H243056   5.711   5.432   5.780 -2.0020  1.5843  1.3104
 7189TIP3   OH243057   0.567   4.541   1.425  0.1765 -0.1444  0.1502
 7189TIP3    H143058   0.615   4.578   1.499  1.5715 -1.0455 -0.2867
 7189TIP3    H243059   0.572   4.447   1.437 -0.4097 -0.2801 -0.5915
 7190TIP3   OH243060   0.737   5.220  14.617 -0.1394 -0.1880 -0.0931
 7190TIP3    H143061   0.686   5.211  14.536 -0.1697  0.4968 -0.1550
 7190TIP3    H243062   0.784   5.136  14.625 -0.8704 -0.6281 -0.3070
 7191TIP3   OH243063   1.256   0.306  11.770 -0.2856 -0.0265 -0.4187
 7191TIP3    H143064   1.219   0.265  11.849 -1.4008 -1.2131 -1.5020
 7191TIP3    H243065   1.335   0.350  11.801 -1.4774  0.8219  1.6224
 7192TIP3   OH243066   0.085   4.736  16.575  0.1154 -0.1991 -0.3605
 7192TIP3    H143067   0.026   4.805  16.544 -0.1777 -0.7127 -0.9777
 7192TIP3    H243068   0.049   4.655  16.539  0.4569 -0.6804  0.3530
 7193TIP3   OH243069   0.469   6.289   2.141 -0.2788  0.4793  0.0450
 7193TIP3    H143070   0.405   6.360   2.142 -0.0978  0.6631 -0.8155
 7193TIP3    H243071   0.462   6.251   2.053  0.5543  0.2857  0.0557
 7194TIP3   OH243072   4.611   0.837  14.441  0.3745  0.0900  0.1167
 7194TIP3    H143073   4.600   0.931  14.426  1.4032  0.1213 -0.5976
 7194TIP3    H243074   4.562   0.819  14.521  0.9286  1.4145  0.7839
 7195TIP3   OH243075   2.342   2.204  11.194 -0.6795 -0.9899 -0.0510
 7195TIP3    H143076   2.345   2.110  11.177  1.0948 -0.3917 -4.2407
 7195TIP3    H243077   2.266   2.235  11.144 -0.6065 -0.0176  0.4104
 7196TIP3   OH243078   6.054   1.857  10.687  0.1389  0.3252 -0.0444
 7196TIP3    H143079   6.033   1.780  10.635 -0.5112  1.5967 -1.7755
 7196TIP3    H243080   5.969   1.889  10.718  0.1211  1.5819 -1.2652
 7197TIP3   OH243081   0.690   6.201   5.507 -0.1466  0.5175 -0.3200
 7197TIP3    H143082   0.759   6.250   5.552  0.2185  1.2297 -1.6087
 7197TIP3    H243083   0.612   6.213   5.561  0.7702 -0.5148  1.3009
 7198TIP3   OH243084   4.656   5.858  12.924  0.1255 -0.3531  0.3074
 7198TIP3    H143085   4.607   5.933  12.891 -0.4705 -0.3775  1.0910
 7198TIP3    H243086   4.681   5.883  13.013  1.7219 -0.2705 -0.1490
 7199TIP3   OH243087   0.982   2.495   5.112 -0.7034 -0.3438  0.8512
 7199TIP3    H143088   0.917   2.564   5.115 -0.4529 -0.1382  1.8638
 7199TIP3    H243089   0.980   2.456   5.199  0.6034 -0.2489  0.9455
 7200TIP3   OH243090   1.070   2.881  15.459  0.5200 -0.6831  0.2156
 7200TIP3    H143091   1.036   2.935  15.388 -1.5732 -1.5656  0.4678
 7200TIP3    H243092   0.992   2.846  15.502  1.7302 -0.4441  2.7661
 7201TIP3   OH243093   4.466   1.028   0.430  0.3230 -0.1425  0.1555
 7201TIP3    H143094   4.491   1.080   0.506 -0.7898  0.5070  0.0857
 7201TIP3    H243095   4.402   0.965   0.464  0.0414 -0.0442 -0.1921
 7202TIP3   OH243096   0.842   1.753  16.071 -0.3020  0.0805 -0.3781
 7202TIP3    H143097   0.823   1.846  16.062  0.3583  0.2275 -0.3285
 7202TIP3    H243098   0.857   1.723  15.982 -0.4390  0.0379 -0.3867
 7203TIP3   OH243099   1.813   2.126   3.829 -0.7258 -0.0784  0.5527
 7203TIP3    H143100   1.725   2.163   3.820 -1.3619 -1.8574 -1.3479
 7203TIP3    H243101   1.865   2.172   3.764 -1.2085 -1.4701 -0.9029
 7204TIP3   OH243102   0.814   1.950  14.975 -0.3456  0.3957  0.3496
 7204TIP3    H143103   0.876   1.905  14.917 -1.3943  0.3316 -0.7847
 7204TIP3    H243104   0.766   1.879  15.017 -1.8985  0.3768 -1.3267
 7205TIP3   OH243105   3.069   3.259  13.799 -0.1791  0.2491  0.2329
 7205TIP3    H143106   3.142   3.254  13.738 -0.2649 -2.4887  0.2428
 7205TIP3    H243107   3.110   3.270  13.885  0.1121  0.3663  0.0818
 7206TIP3   OH243108   6.105   3.600   6.360  0.2077 -0.2883 -0.6373
 7206TIP3    H143109   6.077   3.576   6.272  0.4688  1.2507 -1.1765
 7206TIP3    H243110   6.069   3.687   6.374  2.0353  0.4457 -0.1327
 7207TIP3   OH243111   0.363   2.730   3.834  0.1282 -0.0902  0.4525
 7207TIP3    H143112   0.442   2.742   3.886 -0.5705 -0.4534  1.6524
 7207TIP3    H243113   0.306   2.803   3.859 -0.4486 -0.5984  0.6763
 7208TIP3   OH243114   3.131   1.288   2.862  0.0834 -1.2725  0.3737
 7208TIP3    H143115   3.118   1.194   2.876  1.7142 -1.3510  1.5920
 7208TIP3    H243116   3.187   1.293   2.785 -0.0932 -1.2823  0.2432
 7209TIP3   OH243117   4.255   1.015   1.321 -0.6647 -0.0057 -0.2158
 7209TIP3    H143118   4.344   0.986   1.343 -0.8737  0.0578  0.7644
 7209TIP3    H243119   4.265   1.109   1.303 -0.6435  0.1694  0.6525
 7210TIP3   OH243120   4.522   5.189  15.082  0.1168  1.0819  0.8237
 7210TIP3    H143121   4.553   5.221  14.998 -1.1158  2.2319  0.7680
 7210TIP3    H243122   4.550   5.098  15.085  2.3006  1.6730  0.2554
 7211TIP3   OH243123   1.756   4.008  12.487 -0.0001 -0.1928  0.2228
 7211TIP3    H143124   1.681   4.066  12.475  0.2460  0.5507  2.0316
 7211TIP3    H243125   1.821   4.039  12.424 -0.4429  0.4963  0.0978
 7212TIP3   OH243126   1.233   1.356  11.817 -0.4761 -0.2051 -0.1149
 7212TIP3    H143127   1.274   1.271  11.807  1.8576  1.0632 -2.8109
 7212TIP3    H243128   1.169   1.344  11.887  0.4644 -3.8440  0.3166
 7213TIP3   OH243129   6.669   1.627   0.222  0.0431 -0.0087 -0.4018
 7213TIP3    H143130   6.756   1.596   0.249  0.3413  1.7520  0.8563
 7213TIP3    H243131   6.681   1.654   0.130  1.1205  1.1451  0.0529
 7214TIP3   OH243132   5.679   4.378   5.167 -0.1262 -0.7760 -0.1763
 7214TIP3    H143133   5.729   4.422   5.099 -3.1310  0.3350 -1.8923
 7214TIP3    H243134   5.662   4.446   5.232  2.1059 -1.6482  1.4269
 7215TIP3   OH243135   6.624   5.199   1.963  0.4717 -0.6815  1.0547
 7215TIP3    H143136   6.691   5.185   1.895  1.0084  0.2334  1.3909
 7215TIP3    H243137   6.579   5.278   1.936  0.3188 -0.6251  1.4791
 7216TIP3   OH243138   6.023   0.674  15.285  0.0571  0.1585  0.7510
 7216TIP3    H143139   5.940   0.683  15.331  0.9680 -1.1199  2.8205
 7216TIP3    H243140   6.033   0.579  15.272  0.4513  0.3984 -0.9567
 7217TIP3   OH243141   3.556   5.514  14.365  0.1622 -0.0106  0.4562
 7217TIP3    H143142   3.596   5.428  14.354  0.0120  0.0943 -1.1043
 7217TIP3    H243143   3.568   5.535  14.458  1.9327 -0.8565  0.4447
 7218TIP3   OH243144   5.347   4.641  16.779  1.0103 -0.5570  0.2127
 7218TIP3    H143145   5.365   4.734  16.787  1.8044 -0.5334 -1.5144
 7218TIP3    H243146   5.259   4.630  16.816  0.2869  1.1380 -0.9005
 7219TIP3   OH243147   2.842   0.514  13.542  0.5976 -0.2316 -0.7803
 7219TIP3    H143148   2.785   0.590  13.532 -0.7849 -0.5479  3.1458
 7219TIP3    H243149   2.930   0.552  13.551  0.3859  0.6165 -1.9890
 7220TIP3   OH243150   5.439   0.775   5.180 -0.1966 -0.0313  0.6350
 7220TIP3    H143151   5.440   0.752   5.087  0.8854 -0.6143  0.7674
 7220TIP3    H243152   5.431   0.871   5.181  1.2399  0.1293 -0.1253
 7221TIP3   OH243153   0.946   2.038   2.443  0.0114 -0.5357  0.4840
 7221TIP3    H143154   0.889   1.969   2.476 -0.8914  0.1188  0.3304
 7221TIP3    H243155   1.003   1.993   2.380 -0.4486 -1.1736  0.5077
 7222TIP3   OH243156   4.678   5.367  14.874  0.0435  0.0640  0.1317
 7222TIP3    H143157   4.753   5.425  14.884 -0.0230  0.6972 -2.4073
 7222TIP3    H243158   4.611   5.404  14.932  1.0139  0.6968  0.8739
 7223TIP3   OH243159   2.443   4.714  12.967  0.2997  0.2118  0.6431
 7223TIP3    H143160   2.454   4.691  12.875 -0.0305  0.4881  0.5306
 7223TIP3    H243161   2.479   4.802  12.973 -0.6344  0.6203  0.5427
 7224TIP3   OH243162   0.984   3.707   5.590  1.2295 -0.0522  0.1371
 7224TIP3    H143163   1.050   3.642   5.568  0.2363 -0.6460 -1.2666
 7224TIP3    H243164   1.030   3.770   5.645  2.7337 -0.8806 -0.1057
 7225TIP3   OH243165   0.463   5.227   5.929 -0.2968 -0.3991  0.0885
 7225TIP3    H143166   0.544   5.179   5.947  0.2418 -0.6636 -2.5843
 7225TIP3    H243167   0.396   5.159   5.927  0.2085 -0.9137 -2.1083
 7226TIP3   OH243168   4.042   5.450   0.343  0.6662  0.4927 -0.0405
 7226TIP3    H143169   4.012   5.538   0.318  1.0957  0.5543 -0.3500
 7226TIP3    H243170   4.133   5.463   0.370  1.4484 -0.1700 -2.1158
 7227TIP3   OH243171   6.581   2.839   5.011 -0.1925 -0.0037  0.1114
 7227TIP3    H143172   6.596   2.745   5.016 -0.7240 -0.2079 -1.5857
 7227TIP3    H243173   6.660   2.879   5.047  0.4756 -1.0912 -0.1241
 7228TIP3   OH243174   1.838   5.678  11.558 -0.2532  0.1163  0.2495
 7228TIP3    H143175   1.850   5.614  11.628 -0.9231  1.2880  1.4989
 7228TIP3    H243176   1.761   5.728  11.585 -0.3161  0.8416 -1.1631
 7229TIP3   OH243177   0.775   1.354  16.027  0.3178 -0.0153 -0.3575
 7229TIP3    H143178   0.727   1.362  16.110  1.4078 -1.5027  0.4632
 7229TIP3    H243179   0.791   1.445  16.001 -1.2170  0.4981  0.3306
 7230TIP3   OH243180   5.941   0.514  13.635 -0.0202  0.1867 -0.2459
 7230TIP3    H143181   5.980   0.434  13.670 -1.4706 -0.5894 -0.3349
 7230TIP3    H243182   5.902   0.557  13.711  0.3108  0.5639 -0.2829
 7231TIP3   OH243183   3.917   3.651   6.516 -0.4192 -0.0777  0.6333
 7231TIP3    H143184   3.914   3.557   6.497  0.4219  0.2104 -1.2238
 7231TIP3    H243185   3.840   3.687   6.472 -0.0029  0.2565  0.1657
 7232TIP3   OH243186   4.319   2.454  15.520 -0.7886 -0.2024  0.5453
 7232TIP3    H143187   4.380   2.391  15.482  0.6991  0.8303  1.1140
 7232TIP3    H243188   4.247   2.459  15.457  0.9812  0.5300 -1.5616
 7233TIP3   OH243189   1.354   3.650  14.434 -0.0876 -0.6219  0.1187
 7233TIP3    H143190   1.439   3.622  14.467 -0.7800 -1.3798  1.3560
 7233TIP3    H243191   1.351   3.618  14.344  1.6838  1.1228 -0.6494
 7234TIP3   OH243192   2.524   1.982   0.276  0.4269 -0.2464  0.9685
 7234TIP3    H143193   2.559   2.056   0.226  0.0816 -1.3592 -1.0521
 7234TIP3    H243194   2.600   1.948   0.325  0.6889  1.1116  1.5412
 7235TIP3   OH243195   4.186   3.854   1.558 -0.2004 -0.2510  0.2754
 7235TIP3    H143196   4.102   3.830   1.596 -0.6035  2.7736  1.5666
 7235TIP3    H243197   4.245   3.865   1.632  0.9844 -0.9636 -0.5151
 7236TIP3   OH243198   1.817   5.823  11.212  0.3347 -0.2694  0.4274
 7236TIP3    H143199   1.792   5.895  11.153  1.0264  1.2082  1.8619
 7236TIP3    H243200   1.744   5.761  11.206 -1.9810  2.1251  1.6267
 7237TIP3   OH243201   1.227   4.013   3.250  0.0254 -0.1658 -0.4437
 7237TIP3    H143202   1.190   4.101   3.259  1.9262  0.7029 -0.6910
 7237TIP3    H243203   1.230   3.998   3.155  1.0216  0.1166 -0.4680
 7238TIP3   OH243204   2.082   1.006   4.593 -0.1970  0.0821  0.0344
 7238TIP3    H143205   2.074   1.079   4.654  0.1822  1.4841 -1.5570
 7238TIP3    H243206   2.040   1.036   4.513 -1.8705 -2.2085 -0.0578
 7239TIP3   OH243207   4.578   0.051   0.576 -0.0536  0.6245  0.1023
 7239TIP3    H143208   4.538  -0.036   0.578  0.6751  0.2865  0.2142
 7239TIP3    H243209   4.653   0.044   0.635  1.1449  0.7737 -1.3654
 7240TIP3   OH243210   6.751   4.844  11.766  0.1921 -0.0226 -0.7637
 7240TIP3    H143211   6.821   4.874  11.708 -0.8441 -1.1349 -2.6940
 7240TIP3    H243212   6.773   4.753  11.785  2.0052  1.0116  3.0205
 7241TIP3   OH243213   3.645   1.839  11.083  0.2168  0.5357  0.5685
 7241TIP3    H143214   3.562   1.798  11.108 -0.3977 -0.9524 -3.1945
 7241TIP3    H243215   3.710   1.797  11.139 -1.2700 -0.0759  1.9132
 7242TIP3   OH243216   2.518   2.370  12.205 -0.2056 -0.1494 -0.0729
 7242TIP3    H143217   2.450   2.380  12.271 -0.8526  0.6613 -0.8424
 7242TIP3    H243218   2.583   2.314  12.246 -0.1796  1.0331  1.5658
 7243TIP3   OH243219   3.704   4.479  14.316 -0.0113  0.2622  0.4163
 7243TIP3    H143220   3.743   4.561  14.284 -1.5858  0.8611 -0.0825
 7243TIP3    H243221   3.648   4.506  14.388 -1.3003 -0.2156 -0.3756
 7244TIP3   OH243222   4.405   0.996   2.210  0.5502 -0.1659 -0.0244
 7244TIP3    H143223   4.476   1.007   2.146 -0.1201  0.5272 -0.6693
 7244TIP3    H243224   4.449   1.005   2.295  1.3662 -0.5660 -0.3877
 7245TIP3   OH243225   3.262   5.652   0.304  0.0739 -0.0465 -0.5694
 7245TIP3    H143226   3.314   5.651   0.385 -0.8789  0.6933  0.0812
 7245TIP3    H243227   3.296   5.728   0.256 -0.8934  0.9331  0.2255
 7246TIP3   OH243228   1.811   4.593   0.380 -0.1079  0.2232  0.7517
 7246TIP3    H143229   1.809   4.633   0.467 -2.3558  1.3836  0.2452
 7246TIP3    H243230   1.813   4.667   0.320  2.0398 -0.5597 -0.2572
 7247TIP3   OH243231   6.428   3.272   0.685 -0.2408  0.4005 -0.1186
 7247TIP3    H143232   6.417   3.208   0.755  0.5048  1.1803  0.7493
 7247TIP3    H243233   6.418   3.357   0.729 -1.1491  0.8937 -1.2222
 7248TIP3   OH243234   6.467   0.354  11.420 -0.4678 -0.8647 -0.6372
 7248TIP3    H143235   6.501   0.443  11.426 -0.7840 -0.7587 -0.3990
 7248TIP3    H243236   6.400   0.357  11.352 -1.0963 -0.7176 -0.0240
 7249TIP3   OH243237   2.214   1.256  17.008 -0.4230  0.3575 -0.5233
 7249TIP3    H143238   2.194   1.303  17.089 -1.3819  3.9132 -2.5858
 7249TIP3    H243239   2.139   1.197  16.995  0.8905 -2.1763  2.2307
 7250TIP3   OH243240   2.927   3.529  15.208  0.3797 -0.4478 -0.0108
 7250TIP3    H143241   2.915   3.617  15.244  2.1550 -0.1972  0.0569
 7250TIP3    H243242   2.914   3.540  15.114  0.4770 -0.1226  0.0122
 7251TIP3   OH243243   1.605   1.855  13.449 -0.1403 -0.3067 -0.2083
 7251TIP3    H143244   1.520   1.836  13.489 -0.6352  0.7180 -0.7271
 7251TIP3    H243245   1.614   1.950  13.456  1.8557 -0.5542  1.5472
 7252TIP3   OH243246   5.683   5.319  14.360  0.3546  0.1817  0.3544
 7252TIP3    H143247   5.737   5.367  14.297  1.7585 -1.2187  0.4540
 7252TIP3    H243248   5.593   5.347  14.340  0.6617 -0.7482 -2.7711
 7253TIP3   OH243249   2.870   5.857   4.815  0.0000 -0.0423 -0.4988
 7253TIP3    H143250   2.848   5.884   4.726 -0.6579  2.8019  0.3944
 7253TIP3    H243251   2.833   5.769   4.823 -2.3619  0.6671 -2.2185
 7254TIP3   OH243252   2.414   2.244   6.430 -0.5257  0.3737 -0.2398
 7254TIP3    H143253   2.460   2.190   6.366 -1.8289 -0.4591 -0.4994
 7254TIP3    H243254   2.408   2.189   6.508 -1.3227  0.3667 -0.3014
 7255TIP3   OH243255   3.537   5.322   1.220 -0.3799 -0.1388  0.9391
 7255TIP3    H143256   3.545   5.405   1.268  0.5213 -0.2039  0.9221
 7255TIP3    H243257   3.620   5.277   1.237  0.8403  0.6706 -2.2106
 7256TIP3   OH243258   6.794   1.327  16.694  0.3881  0.0764  0.1915
 7256TIP3    H143259   6.755   1.240  16.695 -0.4987  0.4615  1.5619
 7256TIP3    H243260   6.746   1.374  16.626 -0.9117  0.2305  1.1609
 7257TIP3   OH243261   0.929   2.067   1.319  0.2696  0.3233  0.1159
 7257TIP3    H143262   0.938   2.091   1.227 -0.1493 -0.1663 -0.0596
 7257TIP3    H243263   0.991   1.995   1.331  0.5016  0.5499  0.2798
 7258TIP3   OH243264   5.673   4.031   2.155 -0.5967 -0.2979  0.4354
 7258TIP3    H143265   5.624   3.999   2.079  0.1577 -0.3607 -0.0379
 7258TIP3    H243266   5.764   4.034   2.125 -0.3211 -0.0971  1.2681
 7259TIP3   OH243267   0.404   6.631   5.470 -0.4451  0.2767 -0.0727
 7259TIP3    H143268   0.391   6.710   5.522 -1.7864  0.5773 -0.8222
 7259TIP3    H243269   0.322   6.582   5.480 -0.1046 -0.4243 -0.6135
 7260TIP3   OH243270   0.259   5.440   4.613  0.0781 -0.7555  0.2523
 7260TIP3    H143271   0.181   5.436   4.667  0.0592 -1.1104  0.2033
 7260TIP3    H243272   0.243   5.376   4.543 -0.9031  1.3341 -1.5386
 7261TIP3   OH243273   1.518   0.949  16.334 -0.1349 -0.3577 -0.4470
 7261TIP3    H143274   1.511   1.045  16.338  0.6963 -0.2529 -1.2083
 7261TIP3    H243275   1.432   0.921  16.302  0.1291  0.2720 -1.7840
 7262TIP3   OH243276   3.573   1.884   2.477  1.0191 -0.5411  0.5309
 7262TIP3    H143277   3.617   1.968   2.463  1.9399 -1.4491 -2.9789
 7262TIP3    H243278   3.588   1.835   2.396 -1.4876 -3.2232  1.5130
 7263TIP3   OH243279   0.486   4.968  16.161  0.1535 -0.4865  0.4439
 7263TIP3    H143280   0.403   4.975  16.210  0.0283 -2.7785  0.6538
 7263TIP3    H243281   0.499   4.874  16.150  1.9542 -0.1096 -0.9735
 7264TIP3   OH243282   1.802   2.326   3.044  0.0459  0.0091  0.5722
 7264TIP3    H143283   1.890   2.359   3.060 -0.1060  0.4280  0.5516
 7264TIP3    H243284   1.815   2.253   2.983  0.1054  2.4571 -2.5960
 7265TIP3   OH243285   3.031   1.784   5.117  0.3947 -0.2779  0.1634
 7265TIP3    H143286   3.038   1.849   5.187 -0.7676  1.1307 -0.9672
 7265TIP3    H243287   3.106   1.803   5.060  0.9136 -0.9358  0.6138
 7266TIP3   OH243288   1.225   4.936  16.675 -0.5222 -0.5473 -0.1401
 7266TIP3    H143289   1.275   4.916  16.754  1.1138  1.9922 -0.4211
 7266TIP3    H243290   1.142   4.973  16.708 -0.7025 -1.3613  0.3456
 7267TIP3   OH243291   6.386   5.812   4.503  0.5809  1.3478  0.2569
 7267TIP3    H143292   6.302   5.768   4.513  1.3928  0.0093  1.5579
 7267TIP3    H243293   6.436   5.756   4.445  0.6272  2.0871 -0.4303
 7268TIP3   OH243294   0.411   0.708   5.344 -0.3216 -0.2256 -0.1075
 7268TIP3    H143295   0.476   0.714   5.413  1.8911 -1.8796 -1.8744
 7268TIP3    H243296   0.459   0.728   5.264 -2.4822  0.4071 -1.3246
 7269TIP3   OH243297   2.495   3.829   3.385  0.3389 -0.2644  0.1404
 7269TIP3    H143298   2.419   3.860   3.434 -0.9644 -0.7891 -1.4622
 7269TIP3    H243299   2.508   3.739   3.416 -0.1259 -0.3977 -0.0283
 7270TIP3   OH243300   0.963   5.344  11.951  0.2296  0.4657 -0.3410
 7270TIP3    H143301   0.990   5.426  11.910 -1.0106  2.3205  2.2401
 7270TIP3    H243302   0.894   5.310  11.894  1.3481  0.6922 -1.8986
 7271TIP3   OH243303   3.562   3.148  15.891  0.6713  0.2183 -0.2745
 7271TIP3    H143304   3.525   3.126  15.977  1.8585  1.0587  0.4733
 7271TIP3    H243305   3.566   3.244  15.891  0.5858  0.2254 -1.3175
 7272TIP3   OH243306   0.991   5.843   3.979 -0.8128 -0.2809 -0.3239
 7272TIP3    H143307   0.996   5.753   4.012  0.0838  0.1447  0.7929
 7272TIP3    H243308   0.920   5.883   4.028  0.4863  0.3367  1.1600
 7273TIP3   OH243309   1.937   6.268   0.683 -0.0786  0.5146  0.0885
 7273TIP3    H143310   1.892   6.349   0.659 -2.4437 -1.5001 -3.0772
 7273TIP3    H243311   2.024   6.278   0.645 -1.4504  0.3551 -3.4753
 7274TIP3   OH243312   1.110   4.949   1.995  0.0062  0.2862  0.1514
 7274TIP3    H143313   1.172   5.010   1.955 -0.4570  0.3655 -0.4663
 7274TIP3    H243314   1.043   4.936   1.928  0.3300 -1.2644  0.0831
 7275TIP3   OH243315   5.249   2.490   2.422  0.1649  0.1889 -0.1227
 7275TIP3    H143316   5.183   2.478   2.489  0.5093  0.9886  0.3689
 7275TIP3    H243317   5.206   2.543   2.355 -0.4628 -1.3192 -0.9889
 7276TIP3   OH243318   6.661   5.709   1.302 -0.7931  0.4694  0.3264
 7276TIP3    H143319   6.742   5.693   1.253 -1.4060 -0.0991 -0.5257
 7276TIP3    H243320   6.614   5.626   1.297 -0.8992  0.4113  1.8555
 7277TIP3   OH243321   2.168   2.157   2.645  0.5142 -0.0540 -0.1807
 7277TIP3    H143322   2.247   2.195   2.608  1.5180 -1.3983  0.4808
 7277TIP3    H243323   2.182   2.062   2.642 -0.5963 -0.2978  0.9269
 7278TIP3   OH243324   0.356   0.119  11.602 -0.3215  0.9153  0.2623
 7278TIP3    H143325   0.401   0.178  11.542 -0.2757 -0.5222 -1.1670
 7278TIP3    H243326   0.349   0.036  11.554 -1.8901  0.2488  1.5642
 7279TIP3   OH243327   6.186   0.817   5.214 -0.0810 -1.0082 -0.5509
 7279TIP3    H143328   6.133   0.747   5.175 -0.5882 -0.5507 -0.6847
 7279TIP3    H243329   6.133   0.896   5.206  0.7063 -0.4968 -0.8877
 7280TIP3   OH243330   6.013   0.184  13.192 -0.0158 -0.0383  0.7912
 7280TIP3    H143331   5.933   0.234  13.209  0.3974  1.1356 -0.5521
 7280TIP3    H243332   6.082   0.237  13.231  0.5767  1.1514 -1.7037
 7281TIP3   OH243333   0.085   5.998  10.645  0.1639 -0.2429 -0.3684
 7281TIP3    H143334   0.036   6.044  10.577  0.3361  0.3814 -0.0828
 7281TIP3    H243335   0.024   5.989  10.717  0.6696  1.2469  0.2913
 7282TIP3   OH243336   6.810   6.123   2.249  0.1309 -0.6404 -0.1947
 7282TIP3    H143337   6.871   6.053   2.224 -0.8299 -0.9108 -2.0344
 7282TIP3    H243338   6.822   6.134   2.343  0.8265 -2.8004  0.0230
 7283TIP3   OH243339   2.214   6.823  12.119  0.6510 -0.0761  0.3374
 7283TIP3    H143340   2.230   6.897  12.177 -0.1267 -0.2012  0.7389
 7283TIP3    H243341   2.188   6.751  12.178  0.3825 -0.3620 -0.1168
 7284TIP3   OH243342   2.356   5.255  11.397 -0.1337  0.4007 -0.4283
 7284TIP3    H143343   2.334   5.219  11.483  0.3205  0.7859 -0.1476
 7284TIP3    H243344   2.444   5.224  11.379 -0.6632 -0.6602 -1.2990
 7285TIP3   OH243345   3.222   1.716  15.775 -0.0254 -0.0952  0.2510
 7285TIP3    H143346   3.127   1.707  15.782 -0.1602 -1.0946 -1.9540
 7285TIP3    H243347   3.241   1.695  15.684  2.4423 -1.0619  0.9047
 7286TIP3   OH243348   6.452   0.875  13.279 -0.2607 -0.2173  0.6660
 7286TIP3    H143349   6.445   0.822  13.358 -0.4327 -0.9125  0.1961
 7286TIP3    H243350   6.365   0.870  13.239 -0.2108  0.2289  0.5007
 7287TIP3   OH243351   3.181   1.318  13.381  0.9060  0.1931 -0.2533
 7287TIP3    H143352   3.127   1.396  13.365  0.2440 -0.3402 -0.7006
 7287TIP3    H243353   3.184   1.311  13.477 -0.8064 -0.4073 -0.2106
 7288TIP3   OH243354   4.392   1.068  10.543 -0.4021 -0.0189  0.4978
 7288TIP3    H143355   4.444   0.993  10.571 -1.4424 -1.0355 -0.2082
 7288TIP3    H243356   4.347   1.098  10.621  2.7101  2.2089  1.6550
 7289TIP3   OH243357   6.151   4.278   2.470 -0.6758 -0.2614 -0.4341
 7289TIP3    H143358   6.201   4.201   2.443 -1.9551 -0.7867 -1.4192
 7289TIP3    H243359   6.208   4.352   2.451  0.4011 -0.9183  0.1137
 7290TIP3   OH243360   0.332   4.061   4.948  0.3424 -0.3112  0.2549
 7290TIP3    H143361   0.243   4.087   4.973 -0.0029 -0.3614 -0.8592
 7290TIP3    H243362   0.354   4.120   4.875  0.9333 -0.7872  0.0436
 7291TIP3   OH243363   2.097   6.467  15.735  0.3836 -0.5634 -0.5904
 7291TIP3    H143364   2.097   6.425  15.649  0.9097 -0.7807 -0.4917
 7291TIP3    H243365   2.159   6.415  15.787  1.3040  0.5299 -0.5537
 7292TIP3   OH243366   4.657   2.912   1.455 -0.0829  0.0971  0.1633
 7292TIP3    H143367   4.593   2.896   1.524 -0.9824 -1.0094 -0.8846
 7292TIP3    H243368   4.672   3.007   1.457 -2.0757  0.4555  0.1788
 7293TIP3   OH243369   0.954   2.171  12.985 -0.9517 -0.1350  0.0044
 7293TIP3    H143370   1.035   2.125  13.005  0.0077  1.6122  0.3232
 7293TIP3    H243371   0.944   2.163  12.890 -0.0880  0.1202 -0.1128
 7294TIP3   OH243372   4.213   0.455   2.141  0.4960 -0.3255 -0.4373
 7294TIP3    H143373   4.266   0.503   2.205  0.9121 -0.5106 -0.6406
 7294TIP3    H243374   4.237   0.363   2.155 -0.0536 -0.4430 -0.2719
 7295TIP3   OH243375   1.459   1.669  12.562  0.0517  0.1433 -0.1617
 7295TIP3    H143376   1.387   1.726  12.588  0.3224  0.0715  0.7692
 7295TIP3    H243377   1.481   1.697  12.473 -0.9632  0.3189 -0.3696
 7296TIP3   OH243378   0.473   1.540   0.257 -0.3470 -0.8662  0.6887
 7296TIP3    H143379   0.444   1.489   0.181 -2.3378  0.5840  0.3896
 7296TIP3    H243380   0.481   1.475   0.327 -0.2727 -1.9541 -0.2864
 7297TIP3   OH243381   5.682   5.591   2.068 -0.5577 -0.5488  0.1965
 7297TIP3    H143382   5.592   5.588   2.102 -0.4147 -1.8988  0.5134
 7297TIP3    H243383   5.678   5.657   1.999 -1.4544  0.4236  1.1246
 7298TIP3   OH243384   5.265   2.437   0.543 -0.4054 -0.4170  0.2487
 7298TIP3    H143385   5.358   2.417   0.546 -0.1542  0.6450  0.1634
 7298TIP3    H243386   5.221   2.353   0.552  0.5624 -0.9137  0.4061
 7299TIP3   OH243387   2.823   3.909  14.169  0.5116 -0.4060 -0.2128
 7299TIP3    H143388   2.831   4.003  14.152 -3.5670 -0.1899 -2.3440
 7299TIP3    H243389   2.836   3.868  14.084 -1.3248 -1.3387 -0.0930
 7300TIP3   OH243390   0.712   1.672   2.309 -0.3029  0.0099 -0.3603
 7300TIP3    H143391   0.645   1.678   2.240  0.4651  1.0380 -1.0363
 7300TIP3    H243392   0.676   1.608   2.371 -1.6893  0.1787 -0.9503
 7301TIP3   OH243393   0.159   1.176   4.837 -0.4045 -0.3800  0.7942
 7301TIP3    H143394   0.146   1.083   4.856 -3.6865 -0.2121 -0.0122
 7301TIP3    H243395   0.235   1.179   4.780  1.0907 -2.2983  2.5333
 7302TIP3   OH243396   6.338   3.981   5.245 -0.0417  0.3947 -0.5996
 7302TIP3    H143397   6.422   4.027   5.241 -0.1156  0.4132 -2.8338
 7302TIP3    H243398   6.278   4.044   5.285  0.5273  1.1336 -0.8856
 7303TIP3   OH243399   0.285   6.259   6.374  0.0241 -0.5050 -0.1242
 7303TIP3    H143400   0.344   6.329   6.348  2.0148 -0.6668  3.3465
 7303TIP3    H243401   0.335   6.179   6.360 -0.9619 -1.0057 -0.9022
 7304TIP3   OH243402   0.374   3.077  14.073  0.0031 -0.0043  0.3279
 7304TIP3    H143403   0.309   3.116  14.131 -2.1970 -1.3832 -1.0257
 7304TIP3    H243404   0.387   2.988  14.107  1.6041  0.4017  0.8579
 7305TIP3   OH243405   2.907   2.745  16.721 -0.2537 -0.0431  0.1678
 7305TIP3    H143406   2.914   2.742  16.816 -1.6782  0.2110  0.3072
 7305TIP3    H243407   2.831   2.689  16.701  0.9572 -1.3755 -0.9560
 7306TIP3   OH243408   1.163   4.798  11.352 -0.2394  0.6492  0.7412
 7306TIP3    H143409   1.210   4.842  11.280 -0.7769 -0.5161 -0.3664
 7306TIP3    H243410   1.232   4.759  11.405  0.1088  0.1066 -0.0978
 7307TIP3   OH243411   6.664   4.128   0.585  0.0638  0.1538 -0.1068
 7307TIP3    H143412   6.579   4.162   0.611 -0.3241  0.6126 -1.8773
 7307TIP3    H243413   6.667   4.138   0.490  2.1810  0.3440 -0.0776
 7308TIP3   OH243414   4.033   2.161   2.225  0.5109  0.4082  0.2379
 7308TIP3    H143415   4.068   2.095   2.285 -0.3870  0.8647  1.3024
 7308TIP3    H243416   3.993   2.227   2.282 -0.4793  0.8067 -0.8665
 7309TIP3   OH243417   0.868   6.238   0.083 -0.5059  0.4041  0.2711
 7309TIP3    H143418   0.926   6.267   0.012  0.0249  0.2022  0.6156
 7309TIP3    H243419   0.926   6.192   0.143 -1.3220 -1.3566 -0.2473
 7310TIP3   OH243420   4.347   3.513  17.227 -0.2185 -0.1036 -0.5982
 7310TIP3    H143421   4.345   3.467  17.311  0.5857 -2.1063 -1.6015
 7310TIP3    H243422   4.410   3.584  17.240  0.5272 -0.8936  0.2711
 7311TIP3   OH243423   0.555   3.214  13.734  0.0133  0.1342 -0.4759
 7311TIP3    H143424   0.494   3.161  13.683 -1.5935  2.3599 -1.0174
 7311TIP3    H243425   0.508   3.296  13.750  2.3441  1.3946  0.3566
 7312TIP3   OH243426   4.021   0.513   1.287 -0.1490 -0.1756  0.0125
 7312TIP3    H143427   4.056   0.601   1.296  1.5383 -0.6753 -1.2072
 7312TIP3    H243428   4.069   0.475   1.213 -1.3268 -1.8769  0.0598
 7313TIP3   OH243429   5.094   5.765   2.844  0.1819  0.1587  0.2039
 7313TIP3    H143430   5.074   5.707   2.917 -0.7505  0.7966  0.4737
 7313TIP3    H243431   5.087   5.853   2.880 -0.7671  0.5019 -0.7626
 7314TIP3   OH243432   4.474   2.013  16.006  0.0828  0.2608  0.1942
 7314TIP3    H143433   4.396   1.984  15.958  1.2228 -0.5876 -1.2036
 7314TIP3    H243434   4.473   1.961  16.086 -1.0301  0.5965  0.4191
 7315TIP3   OH243435   3.854   0.562   2.228 -0.8118 -0.3124 -0.2828
 7315TIP3    H143436   3.852   0.468   2.213 -0.3013  0.1008 -3.5864
 7315TIP3    H243437   3.945   0.582   2.247 -1.2065 -0.6155  2.4089
 7316TIP3   OH243438   1.839   2.251  12.167 -0.3929  0.5672 -0.3766
 7316TIP3    H143439   1.893   2.316  12.123  1.0192 -0.3773 -0.0916
 7316TIP3    H243440   1.900   2.183  12.194 -1.4959  0.1899  1.3273
 7317TIP3   OH243441   1.806   0.754   3.616  0.3436 -0.2254 -0.3538
 7317TIP3    H143442   1.836   0.739   3.526  1.6152 -0.2480  0.0547
 7317TIP3    H243443   1.842   0.840   3.639  2.1841 -1.2867  0.9721
 7318TIP3   OH243444   2.866   2.596  12.080 -0.2649 -0.3811 -0.0334
 7318TIP3    H143445   2.911   2.662  12.132 -2.1977  2.3805 -1.6315
 7318TIP3    H243446   2.909   2.599  11.995 -1.1126 -0.3221 -0.4691
 7319TIP3   OH243447   4.476   3.797  17.281  0.5108  0.7333 -0.2544
 7319TIP3    H143448   4.446   3.854  17.209  0.4514  0.9342 -0.0728
 7319TIP3    H243449   4.555   3.840  17.314 -0.2857  1.4585  0.7743
 7320TIP3   OH243450   2.807   6.117  14.924  0.0756 -0.4374  0.1746
 7320TIP3    H143451   2.847   6.106  14.838  0.0518  0.2077  0.0772
 7320TIP3    H243452   2.729   6.171  14.908  0.5532  0.4355  0.7146
 7321TIP3   OH243453   2.984   1.084   5.662 -0.6122  0.4044 -0.1554
 7321TIP3    H143454   2.980   1.096   5.757  1.8330  0.2796  0.0382
 7321TIP3    H243455   3.012   0.993   5.650 -0.6478  0.4933 -0.9935
 7322TIP3   OH243456   2.738   0.766  16.608 -0.2270 -0.3706 -0.5584
 7322TIP3    H143457   2.828   0.787  16.632 -0.2554  0.2087 -0.9484
 7322TIP3    H243458   2.699   0.850  16.583 -1.4386 -0.2822  1.3970
 7323TIP3   OH243459   6.630   5.263   1.676 -0.2799 -0.4031 -0.0525
 7323TIP3    H143460   6.537   5.281   1.670 -0.1442  1.0429  1.3514
 7323TIP3    H243461   6.672   5.335   1.629  0.1375 -1.2265 -0.9726
 7324TIP3   OH243462   0.459   6.269  12.216 -0.5295 -0.0375  0.1405
 7324TIP3    H143463   0.366   6.250  12.213 -0.3123 -1.0605 -0.5631
 7324TIP3    H243464   0.497   6.219  12.143  0.4106  1.2885 -0.3202
 7325TIP3   OH243465   0.514   5.290  16.977 -0.3416  0.0821  0.1601
 7325TIP3    H143466   0.488   5.310  17.067 -1.8677 -0.8881 -0.0351
 7325TIP3    H243467   0.459   5.346  16.923 -0.8251 -0.7261 -0.2076
 7326TIP3   OH243468   6.425   3.686   6.255 -0.2899  0.2779 -0.0488
 7326TIP3    H143469   6.502   3.628   6.261  0.2272  0.7251 -1.8091
 7326TIP3    H243470   6.391   3.689   6.345  0.4237 -1.7049  0.3556
 7327TIP3   OH243471   5.332   6.341   0.518  0.2815  0.7462 -0.7978
 7327TIP3    H143472   5.285   6.379   0.592  1.5901 -1.1450  1.1566
 7327TIP3    H243473   5.340   6.412   0.455 -0.9238  2.4489  0.8592
 7328TIP3   OH243474   6.812   2.471  13.686  0.7109  0.0895  0.1632
 7328TIP3    H143475   6.789   2.462  13.594 -1.1295  0.6490  0.5231
 7328TIP3    H243476   6.788   2.561  13.708  1.2292  0.0034  1.1642
 7329TIP3   OH243477   2.461   1.817  17.227 -0.4182 -0.0776  0.3545
 7329TIP3    H143478   2.385   1.792  17.279 -0.1986  0.6048  1.0222
 7329TIP3    H243479   2.446   1.777  17.141 -0.5912 -1.5698  1.0476
 7330TIP3   OH243480   5.992   4.481  10.881  0.1413 -0.3047 -0.1906
 7330TIP3    H143481   5.981   4.398  10.834 -2.7712  0.3848 -0.9580
 7330TIP3    H243482   5.945   4.469  10.963 -0.4833  0.5814 -0.3887
 7331TIP3   OH243483   1.745   5.240  16.892  0.0674  0.2098 -0.5143
 7331TIP3    H143484   1.712   5.157  16.856 -0.3788  0.2579 -0.2301
 7331TIP3    H243485   1.785   5.285  16.818  2.2566 -1.1835 -0.2732
 7332TIP3   OH243486   4.665   6.545  10.596 -0.6681 -0.0755  0.3546
 7332TIP3    H143487   4.754   6.564  10.626 -0.1897  1.0206 -1.6254
 7332TIP3    H243488   4.675   6.473  10.534 -1.1851 -0.0594  0.2477
 7333TIP3   OH243489   0.377   0.445   1.025  0.0642 -0.3601  1.0009
 7333TIP3    H143490   0.308   0.508   1.046 -0.6824 -0.3553 -1.1794
 7333TIP3    H243491   0.333   0.379   0.972  1.3611 -1.4089  1.1820
 7334TIP3   OH243492   2.016   1.502   2.886 -0.4998  0.0465 -0.2944
 7334TIP3    H143493   2.017   1.474   2.795 -0.3626  0.0460 -0.2926
 7334TIP3    H243494   1.930   1.476   2.918 -0.0058 -1.3369 -0.0049
 7335TIP3   OH243495   3.469   0.720  11.959  0.0790  0.3425 -0.2883
 7335TIP3    H143496   3.434   0.767  11.883 -0.5994 -0.1311 -0.2781
 7335TIP3    H243497   3.531   0.658  11.922  1.3866  1.5747 -0.2598
 7336TIP3   OH243498   3.966   0.945  12.635  0.2108  0.4345  0.2769
 7336TIP3    H143499   3.987   1.033  12.603 -0.3952  0.0412 -1.3146
 7336TIP3    H243500   3.885   0.957  12.685  0.6848  0.9267  0.9464
 7337TIP3   OH243501   3.583   0.667   0.563  0.0563 -0.1199  0.4966
 7337TIP3    H143502   3.493   0.667   0.597 -0.6543 -0.9435 -1.2620
 7337TIP3    H243503   3.576   0.709   0.477  1.2166 -0.8279  0.0367
 7338TIP3   OH243504   5.348   1.190   1.508  0.0546 -0.8453  0.0094
 7338TIP3    H143505   5.256   1.174   1.530 -0.7156  2.0108 -0.7583
 7338TIP3    H243506   5.365   1.131   1.434 -1.4312 -0.8395 -0.3657
 7339TIP3   OH243507   3.444   2.812  12.551 -0.3936  0.1546 -0.0398
 7339TIP3    H143508   3.512   2.826  12.617  0.2949 -2.8395  0.0229
 7339TIP3    H243509   3.411   2.724  12.570 -4.2291  1.3748 -0.1698
 7340TIP3   OH243510   3.779   5.072   6.274 -0.2103  0.7319 -0.5610
 7340TIP3    H143511   3.834   4.993   6.267  0.2531  1.0785 -0.8667
 7340TIP3    H243512   3.785   5.097   6.366 -1.2116 -0.1894 -0.2168
 7341TIP3   OH243513   0.891   1.212  14.245 -0.3866  0.1401  0.1159
 7341TIP3    H143514   0.934   1.135  14.207 -2.0352 -0.8986  0.2843
 7341TIP3    H243515   0.887   1.193  14.339  2.3833  2.0632  0.7490
 7342TIP3   OH243516   2.515   3.343  12.779  0.1558 -0.5172  0.0763
 7342TIP3    H143517   2.496   3.369  12.689  0.0054 -0.0683  0.2325
 7342TIP3    H243518   2.429   3.343  12.822  0.1307 -1.4224  0.0491
 7343TIP3   OH243519   6.030   1.934   3.399 -0.2837 -0.2293 -0.0951
 7343TIP3    H143520   6.081   1.923   3.480 -0.6784 -0.1272  0.1660
 7343TIP3    H243521   6.091   1.977   3.339 -1.0049  2.8088  1.1934
 7344TIP3   OH243522   4.648   3.903   0.422  0.5508 -0.2646  0.3207
 7344TIP3    H143523   4.583   3.835   0.403  0.7540 -0.0808 -1.2307
 7344TIP3    H243524   4.598   3.985   0.418  0.4815 -0.2522  1.2707
 7345TIP3   OH243525   0.226   1.946  12.846  0.5747 -0.1717  0.7254
 7345TIP3    H143526   0.232   1.965  12.752  1.0283  0.3250  0.8471
 7345TIP3    H243527   0.158   1.880  12.853 -0.7201  1.0502  0.2115
 7346TIP3   OH243528   5.453   6.572  15.633 -0.6209  0.5318  0.0527
 7346TIP3    H143529   5.518   6.541  15.570  3.0810  0.5093  3.4656
 7346TIP3    H243530   5.410   6.493  15.665 -2.4759  0.5395 -2.1647
 7347TIP3   OH243531   0.689   1.216  11.671  0.1869 -0.1710 -0.3674
 7347TIP3    H143532   0.725   1.305  11.667  1.4363 -0.5845  0.9718
 7347TIP3    H243533   0.618   1.217  11.608 -0.7353  2.2012  0.5824
 7348TIP3   OH243534   1.706   0.301   1.893  0.1531  0.1274  0.1472
 7348TIP3    H143535   1.724   0.232   1.957 -1.1453 -0.7809 -0.4245
 7348TIP3    H243536   1.621   0.336   1.920  0.4766  1.0188  0.0111
 7349TIP3   OH243537   1.696   4.977   4.435  0.6338 -0.0865  0.1634
 7349TIP3    H143538   1.655   5.023   4.508 -0.9569  0.0184 -0.7423
 7349TIP3    H243539   1.709   4.888   4.467 -1.2317 -0.3840  0.1908
 7350TIP3   OH243540   0.978   6.078  13.398  0.0722  0.0901 -0.4552
 7350TIP3    H143541   1.059   6.053  13.443 -0.5492 -0.9026  0.1299
 7350TIP3    H243542   0.990   6.170  13.377  0.4057  0.5763  1.7031
 7351TIP3   OH243543   0.459   5.139  13.975 -0.1661 -0.0892 -0.0058
 7351TIP3    H143544   0.423   5.119  13.888  2.3216 -0.1239 -1.1411
 7351TIP3    H243545   0.552   5.114  13.968  0.5290  1.6141  2.0949
 7352TIP3   OH243546   1.323   5.317  14.867 -0.5604  0.3114  0.0267
 7352TIP3    H143547   1.396   5.265  14.903 -1.3057 -0.4971  0.4163
 7352TIP3    H243548   1.361   5.363  14.792 -0.0429 -1.4411 -0.8435
 7353TIP3   OH243549   6.257   3.230  12.129 -1.3017 -0.1532 -0.6242
 7353TIP3    H143550   6.179   3.183  12.161 -0.0294 -1.6804  0.3893
 7353TIP3    H243551   6.237   3.249  12.037 -2.3445 -1.7468 -0.7808
 7354TIP3   OH243552   5.685   4.016  11.294 -0.3765 -0.2831 -0.3752
 7354TIP3    H143553   5.728   3.987  11.374  0.7246  0.1411 -0.7947
 7354TIP3    H243554   5.713   3.952  11.228 -0.7156 -0.2271 -0.5762
 7355TIP3   OH243555   0.218   5.223   3.713 -0.1502 -0.4602  0.5903
 7355TIP3    H143556   0.195   5.206   3.622 -2.3849  0.5177  0.9162
 7355TIP3    H243557   0.314   5.216   3.715  0.0355  0.2003 -1.9809
 7356TIP3   OH243558   1.332   4.758   6.015 -0.0925  0.5206 -0.4889
 7356TIP3    H143559   1.296   4.818   6.080 -1.1184 -1.3763  0.7893
 7356TIP3    H243560   1.418   4.733   6.051 -0.2180  0.2618 -0.3637
 7357TIP3   OH243561   1.438   1.605   2.393  0.1256  0.6167  0.0657
 7357TIP3    H143562   1.524   1.587   2.356  0.2721 -4.4148  2.0768
 7357TIP3    H243563   1.455   1.670   2.461  2.3667 -0.0609  0.2508
 7358TIP3   OH243564   1.945   5.858   3.528  0.0546  0.4082 -0.1451
 7358TIP3    H143565   1.857   5.870   3.564  0.2614 -0.0212  0.5176
 7358TIP3    H243566   1.934   5.791   3.460  0.2304 -1.3806  1.4935
 7359TIP3   OH243567   2.766   2.666   3.184  0.1853  0.7209 -0.2486
 7359TIP3    H143568   2.843   2.680   3.129 -0.0704  1.7616 -0.3595
 7359TIP3    H243569   2.732   2.754   3.201 -0.1513  0.3758  0.9950
 7360TIP3   OH243570   4.305   1.562  16.009  0.0261  0.2158 -0.4177
 7360TIP3    H143571   4.238   1.506  16.047  0.4091  0.5301  0.7796
 7360TIP3    H243572   4.260   1.611  15.941 -0.9871  0.4614  0.4079
 7361TIP3   OH243573   5.942   0.693  16.367  0.2304 -0.0356  0.2618
 7361TIP3    H143574   5.923   0.600  16.381 -1.6564  0.2308 -0.2903
 7361TIP3    H243575   6.014   0.712  16.428  0.5257 -1.7915  0.5258
 7362TIP3   OH243576   3.536   1.684   0.092 -0.4814 -0.3105 -0.1604
 7362TIP3    H143577   3.460   1.653   0.142 -0.5471 -0.1233 -0.1436
 7362TIP3    H243578   3.599   1.612   0.098 -0.1110  0.0817  1.0023
 7363TIP3   OH243579   1.651   6.331  11.915  0.6033  0.6664  0.2138
 7363TIP3    H143580   1.708   6.345  11.991  0.3526 -0.0969  0.5550
 7363TIP3    H243581   1.705   6.284  11.852  0.7003  0.9753  0.0649
 7364TIP3   OH243582   6.405   1.703  12.688 -0.5964 -0.0078 -0.1541
 7364TIP3    H143583   6.378   1.792  12.711  1.4555  1.1744 -1.9604
 7364TIP3    H243584   6.440   1.667  12.769 -0.4189  1.2453  0.3546
 7365TIP3   OH243585   4.752   2.594   3.960  0.1921  0.6872 -0.1231
 7365TIP3    H143586   4.719   2.578   3.872 -0.3868 -0.0353  0.2185
 7365TIP3    H243587   4.677   2.581   4.017  1.0949 -1.3062  0.6955
 7366TIP3   OH243588   3.545   5.035   4.830 -0.8312 -0.0395  0.3392
 7366TIP3    H143589   3.470   5.095   4.832 -1.5501 -0.7421 -1.9158
 7366TIP3    H243590   3.537   4.982   4.909 -2.0796  0.6376  0.6905
 7367TIP3   OH243591   2.869   1.796  11.817  0.1945  0.2393  0.1646
 7367TIP3    H143592   2.844   1.862  11.882  1.4784  0.3054  0.6235
 7367TIP3    H243593   2.786   1.762  11.784 -0.5771 -0.9861  3.0578
 7368TIP3   OH243594   2.287   1.047  11.663 -0.3006  0.2544  0.5215
 7368TIP3    H143595   2.350   1.096  11.716  0.6649  0.7740 -1.0426
 7368TIP3    H243596   2.244   1.114  11.610 -0.4036 -0.3746 -0.1938
 7369TIP3   OH243597   0.340   0.024  15.894 -1.1916 -0.0292 -0.1453
 7369TIP3    H143598   0.307   0.096  15.841  1.9724  0.9499 -0.9977
 7369TIP3    H243599   0.431   0.047  15.912 -0.4133 -3.2365  0.6355
 7370TIP3   OH243600   5.322   3.579  11.557 -0.3875 -0.0673 -0.1089
 7370TIP3    H143601   5.416   3.580  11.574  0.0283 -0.5685 -2.1396
 7370TIP3    H243602   5.284   3.627  11.630  1.1653 -2.1296  2.2563
 7371TIP3   OH243603   3.309   3.865  12.204 -0.3698 -0.3163 -0.1829
 7371TIP3    H143604   3.218   3.849  12.230 -0.9453 -0.1996 -1.9673
 7371TIP3    H243605   3.338   3.782  12.166  0.5949 -0.6270  1.1774
 7372TIP3   OH243606   0.960   0.371   6.107  0.4394 -0.4242  0.6324
 7372TIP3    H143607   1.053   0.363   6.127  0.3029 -0.6512  1.1818
 7372TIP3    H243608   0.917   0.308   6.165 -0.1252  0.1932  0.9014
 7373TIP3   OH243609   6.369   5.870   3.482  0.5416 -0.0864 -0.0496
 7373TIP3    H143610   6.378   5.776   3.493 -0.6746 -0.4767 -2.0415
 7373TIP3    H243611   6.335   5.882   3.394 -0.1486  2.1768  0.4374
 7374TIP3   OH243612   3.052   3.798   0.035  0.4215  0.4940  0.1810
 7374TIP3    H143613   3.126   3.844  -0.004  0.2170  1.5204  0.9389
 7374TIP3    H243614   3.000   3.768  -0.039  2.2454 -1.4328 -0.4182
 7375TIP3   OH243615   1.752   1.069   0.417  0.5835  0.7684  0.3608
 7375TIP3    H143616   1.819   1.018   0.373 -0.5679  0.3433 -0.9811
 7375TIP3    H243617   1.778   1.160   0.403  0.1924  0.6439 -1.3231
 7376TIP3   OH243618   5.904   3.756  15.061 -0.0001  0.1103  0.3258
 7376TIP3    H143619   5.864   3.789  15.141 -0.2265  0.9621 -0.1201
 7376TIP3    H243620   5.977   3.701  15.091 -1.0453 -0.8809  1.1344
 7377TIP3   OH243621   0.449   4.217   2.829 -0.4388  0.1858  0.1554
 7377TIP3    H143622   0.387   4.192   2.761  0.1704 -0.5745 -0.1275
 7377TIP3    H243623   0.406   4.290   2.875 -0.8920  0.6441 -0.9768
 7378TIP3   OH243624   5.147   4.969   4.061  0.2099  0.0321 -0.2508
 7378TIP3    H143625   5.201   4.891   4.079  0.2036 -0.1078 -0.8021
 7378TIP3    H243626   5.164   4.988   3.969 -0.3646  0.2400 -0.3164
 7379TIP3   OH243627   3.218   2.232  15.202  0.4793 -0.4914  0.1332
 7379TIP3    H143628   3.275   2.155  15.204 -0.2336 -1.0224  0.6543
 7379TIP3    H243629   3.179   2.235  15.290 -0.6782 -0.4441 -0.3582
 7380TIP3   OH243630   5.497   3.939   0.287  0.3305 -0.2841  0.0355
 7380TIP3    H143631   5.554   3.908   0.358 -0.0392 -0.0482  0.4364
 7380TIP3    H243632   5.555   3.992   0.232  0.9665 -1.6483 -0.6519
 7381TIP3   OH243633   3.800   0.190   2.515  0.2023  0.0067 -0.6171
 7381TIP3    H143634   3.811   0.254   2.586  1.1286 -1.6507  0.8111
 7381TIP3    H243635   3.883   0.143   2.511 -1.3124 -3.1046  0.4859
 7382TIP3   OH243636   4.327   0.505   1.900  0.3553  0.2812  0.2857
 7382TIP3    H143637   4.384   0.428   1.894  2.0464  1.3559  1.5986
 7382TIP3    H243638   4.261   0.481   1.965 -0.6930 -0.9275 -1.1515
 7383TIP3   OH243639   4.960   3.166  12.013 -0.3046 -0.4559 -0.4194
 7383TIP3    H143640   5.015   3.095  12.047 -0.4144  0.2687  1.4365
 7383TIP3    H243641   4.956   3.229  12.086 -1.3288  0.8014 -1.5177
 7384TIP3   OH243642   1.613   4.056   0.237  0.0199  0.3113  0.1417
 7384TIP3    H143643   1.696   4.087   0.274  0.4029  0.7230 -1.0395
 7384TIP3    H243644   1.547   4.109   0.281  0.5181  1.2804 -0.2466
 7385TIP3   OH243645   2.499   6.095   5.827 -0.2375 -0.0840  0.6502
 7385TIP3    H143646   2.528   6.140   5.906  0.3613  0.3280  0.2033
 7385TIP3    H243647   2.547   6.013   5.827 -2.2465 -1.3684  2.1249
 7386TIP3   OH243648   1.104   4.604   5.683  0.3543  0.6926 -0.0812
 7386TIP3    H143649   1.114   4.540   5.613  0.8683  0.8131 -0.1239
 7386TIP3    H243650   1.022   4.580   5.726  1.5416 -1.3411  1.2587
 7387TIP3   OH243651   0.009   4.564   3.917  0.2290 -0.0039  0.0848
 7387TIP3    H143652  -0.026   4.539   4.003 -1.1340 -1.3123 -0.7991
 7387TIP3    H243653   0.054   4.485   3.887  2.9282  1.2124  0.6019
 7388TIP3   OH243654   2.097   4.607  12.360  0.2322 -0.0874  0.2459
 7388TIP3    H143655   2.152   4.537  12.395  2.1150 -0.2806 -2.6894
 7388TIP3    H243656   2.009   4.571  12.361  0.7631 -1.4427  1.2463
 7389TIP3   OH243657   3.023   3.993   3.185 -0.2549  0.2037 -0.3935
 7389TIP3    H143658   3.027   3.925   3.253 -0.2431 -1.3968 -1.9132
 7389TIP3    H243659   3.057   4.071   3.228  0.1309 -0.8437  1.3279
 7390TIP3   OH243660   0.762   0.568  10.429 -0.2821 -0.0295  0.0742
 7390TIP3    H143661   0.728   0.534  10.512 -0.0558 -1.1505 -0.2806
 7390TIP3    H243662   0.816   0.498  10.393 -0.8898  0.1733 -1.3321
 7391TIP3   OH243663   5.300   4.776   4.378  0.4840 -0.1120  0.1023
 7391TIP3    H143664   5.371   4.837   4.357 -0.3186  0.7576 -0.1700
 7391TIP3    H243665   5.302   4.769   4.473  1.0851 -0.2981  0.0852
 7392TIP3   OH243666   2.114   3.764  12.121 -0.7069 -0.2961  0.1503
 7392TIP3    H143667   2.051   3.724  12.062  0.0486 -1.2625 -0.0112
 7392TIP3    H243668   2.104   3.715  12.203  1.3441 -1.9938 -0.5169
 7393TIP3   OH243669   3.378   2.811   3.320  0.2917  0.0009  0.5325
 7393TIP3    H143670   3.436   2.879   3.285  0.4328  0.6562  1.9627
 7393TIP3    H243671   3.428   2.730   3.313  0.8966  0.3617  0.6154
 7394TIP3   OH243672   5.920   2.303  11.462  0.1029 -0.3900 -0.1108
 7394TIP3    H143673   5.994   2.243  11.463  0.9084  0.5975  1.1217
 7394TIP3    H243674   5.845   2.247  11.438  0.8286 -1.8699  0.9247
 7395TIP3   OH243675   2.121   4.287  12.143  0.2823 -0.1881  0.6545
 7395TIP3    H143676   2.159   4.372  12.119 -0.4316  0.2773  1.1394
 7395TIP3    H243677   2.060   4.266  12.073  0.0311 -0.0217  0.8231
 7396TIP3   OH243678   2.446   1.249   5.066 -0.6337 -0.5303  0.0676
 7396TIP3    H143679   2.388   1.215   4.998  0.2993  0.5705 -1.3168
 7396TIP3    H243680   2.466   1.173   5.121 -4.0858 -0.8031  1.1910
 7397TIP3   OH243681   1.489   6.331  10.381  0.2477  1.1190  0.2851
 7397TIP3    H143682   1.449   6.377  10.455  0.1879  0.9990  0.3268
 7397TIP3    H243683   1.449   6.245  10.381  0.4663  1.0154  0.2936
 7398TIP3   OH243684   2.791   4.343  12.347  0.1761  0.4992 -0.1088
 7398TIP3    H143685   2.792   4.251  12.373 -3.4098  0.5054  0.5401
 7398TIP3    H243686   2.767   4.390  12.427  2.2732  2.1333 -0.3398
 7399TIP3   OH243687   6.126   5.201   5.503 -0.3195  0.3690 -0.3429
 7399TIP3    H143688   6.092   5.141   5.570  0.3171 -0.0237 -0.3664
 7399TIP3    H243689   6.203   5.157   5.467 -0.0251  1.0566 -0.5859
 7400TIP3   OH243690   3.639   5.364   0.215  0.6444  0.1090 -0.4759
 7400TIP3    H143691   3.682   5.399   0.137  0.7062 -1.2588 -1.0847
 7400TIP3    H243692   3.652   5.270   0.209  1.9551  0.0715  2.0018
 7401TIP3   OH243693   2.387   0.483   4.375 -0.0278 -0.1948  0.2983
 7401TIP3    H143694   2.425   0.568   4.351 -1.7544  1.0649  1.7553
 7401TIP3    H243695   2.463   0.427   4.392  1.2112  1.7419  1.5128
 7402TIP3   OH243696   3.618   2.442   0.040  0.3250  0.3772 -0.0667
 7402TIP3    H143697   3.687   2.485  -0.011 -0.6853  0.9465 -0.9847
 7402TIP3    H243698   3.625   2.349   0.016  1.0638  0.3517  0.2114
 7403TIP3   OH243699   3.047   6.069  12.648 -0.1113  0.4419 -0.6632
 7403TIP3    H143700   3.035   6.035  12.737 -3.0766 -0.0276 -1.1642
 7403TIP3    H243701   3.105   6.005  12.607 -1.2076 -1.0822  0.0529
 7404TIP3   OH243702   2.206   6.273   0.601  0.2331 -0.1047 -0.1117
 7404TIP3    H143703   2.284   6.296   0.550  0.1790  0.6185  0.1258
 7404TIP3    H243704   2.230   6.294   0.691 -0.0605 -0.3595  0.0261
 7405TIP3   OH243705   2.300   5.469  17.009  0.1901  0.4677 -0.0316
 7405TIP3    H143706   2.265   5.533  16.947  0.7561 -0.9996 -1.9639
 7405TIP3    H243707   2.350   5.522  17.071  1.7453  1.8948 -2.3129
 7406TIP3   OH243708   1.223   3.330   1.443 -0.2740 -0.2476 -0.7520
 7406TIP3    H143709   1.175   3.349   1.362 -0.3682  2.8772 -0.1111
 7406TIP3    H243710   1.155   3.314   1.508 -0.4233  1.2483 -0.4907
 7407TIP3   OH243711   5.483   3.473  13.924 -0.2873  0.1378  0.2839
 7407TIP3    H143712   5.513   3.443  13.838  0.4159 -0.9004  0.8669
 7407TIP3    H243713   5.395   3.435  13.933 -0.5599  0.6513 -0.1698
 7408TIP3   OH243714   2.071   2.530   1.074 -0.5099 -0.4251  0.2565
 7408TIP3    H143715   1.989   2.486   1.093 -0.7750 -0.3568 -0.6946
 7408TIP3    H243716   2.133   2.460   1.057 -0.0759 -0.5158  2.0383
 7409TIP3   OH243717   2.276   5.263  15.700 -0.2163  0.1947  0.3097
 7409TIP3    H143718   2.285   5.356  15.679 -1.5713  0.3323  0.2699
 7409TIP3    H243719   2.239   5.263  15.789 -2.4408 -0.2301 -0.5469
 7410TIP3   OH243720   1.694   5.809  14.989 -0.1613 -0.1008  0.2903
 7410TIP3    H143721   1.600   5.802  15.005 -0.2763  1.8358  0.7955
 7410TIP3    H243722   1.701   5.843  14.900  0.1550 -1.9137 -0.4094
 7411TIP3   OH243723   5.911   6.768   3.734  0.2175  0.0351  0.5709
 7411TIP3    H143724   5.871   6.853   3.750 -0.4739 -0.1148 -0.3604
 7411TIP3    H243725   5.871   6.710   3.799 -0.6685  0.0129  0.0138
 7412TIP3   OH243726   5.973   3.660  16.211  0.4310  0.4909  0.3937
 7412TIP3    H143727   6.033   3.586  16.216  0.8983  0.8494  0.1429
 7412TIP3    H243728   5.936   3.666  16.299  1.9045  1.1997  0.9995
 7413TIP3   OH243729   5.495   1.589  15.698 -0.4074 -0.2307 -0.2048
 7413TIP3    H143730   5.400   1.600  15.691 -0.9376 -2.4823  1.9428
 7413TIP3    H243731   5.512   1.504  15.656  0.4197 -0.4505  0.5443
 7414TIP3   OH243732   0.090   3.696  14.550  0.1582 -0.0967 -0.3874
 7414TIP3    H143733   0.030   3.749  14.498  0.4193  1.0363  0.4355
 7414TIP3    H243734   0.067   3.606  14.528  0.0697  0.3331 -2.2242
 7415TIP3   OH243735   1.927   6.075   0.897 -0.0012 -0.6359  0.1836
 7415TIP3    H143736   1.838   6.087   0.928 -1.2064 -0.7244 -2.8501
 7415TIP3    H243737   1.956   6.163   0.872 -0.0929 -0.8820 -0.8342
 7416TIP3   OH243738   4.722   2.534   2.719  0.6511  0.1555 -0.3113
 7416TIP3    H143739   4.728   2.440   2.738  3.1079  0.3565  0.1940
 7416TIP3    H243740   4.685   2.538   2.631  0.6446 -1.2911 -0.3992
 7417TIP3   OH243741   1.534   0.947   0.321  0.1071  0.1653  0.0774
 7417TIP3    H143742   1.599   0.896   0.272 -0.4432 -1.5827  1.0991
 7417TIP3    H243743   1.587   1.010   0.370  0.8194  0.4814 -1.0461
 7418TIP3   OH243744   6.576   4.939   1.398 -0.0215  0.5146 -0.4525
 7418TIP3    H143745   6.627   4.859   1.387  0.1927  0.4388  0.9524
 7418TIP3    H243746   6.639   5.010   1.385  0.0416  0.4367 -0.5664
 7419TIP3   OH243747   0.818   1.467   5.758 -0.4892 -0.1057  0.1454
 7419TIP3    H143748   0.806   1.562   5.746  1.2501  0.0109 -1.0712
 7419TIP3    H243749   0.804   1.453   5.851 -1.1924  1.2762  0.2793
 7420TIP3   OH243750   3.420   6.363  15.856 -0.2342 -0.4938  0.1410
 7420TIP3    H143751   3.481   6.306  15.903 -1.1942 -1.6551  0.0241
 7420TIP3    H243752   3.444   6.353  15.763  1.1399  1.1811  0.2595
 7421TIP3   OH243753   3.479   1.110   5.213 -0.4992 -0.0607  0.2095
 7421TIP3    H143754   3.470   1.115   5.118 -0.8191  1.1516  0.2898
 7421TIP3    H243755   3.533   1.032   5.228  1.7619  1.1571 -1.0977
 7422TIP3   OH243756   2.539   6.393  13.677 -0.2368 -0.6291 -0.2444
 7422TIP3    H143757   2.501   6.469  13.721 -1.1734 -0.3295 -1.5165
 7422TIP3    H243758   2.476   6.322  13.692 -1.4793 -0.1010 -2.4623
 7423TIP3   OH243759   4.320   2.819   1.085  0.1272  0.2343 -0.1679
 7423TIP3    H143760   4.378   2.835   1.010  0.3594 -0.0888 -0.0578
 7423TIP3    H243761   4.325   2.900   1.136 -0.1277  0.5038 -0.5624
 7424TIP3   OH243762   2.852   3.214  10.288  0.0310 -0.1476  0.1230
 7424TIP3    H143763   2.889   3.126  10.278  0.6343  0.2005 -0.7645
 7424TIP3    H243764   2.780   3.217  10.225 -0.1849 -0.1089  0.3703
 7425TIP3   OH243765   6.434   0.102   3.308 -0.2664 -0.1123  0.1544
 7425TIP3    H143766   6.509   0.161   3.321 -0.2561 -0.5158  2.3716
 7425TIP3    H243767   6.407   0.078   3.397 -2.2484 -0.9819 -0.6215
 7426TIP3   OH243768   0.799   3.551   3.199  0.1636 -0.2060  0.3740
 7426TIP3    H143769   0.754   3.474   3.165 -0.9099  1.1374 -1.4084
 7426TIP3    H243770   0.729   3.611   3.224  0.9677  0.7350  0.4292
 7427TIP3   OH243771   6.787   0.119  15.623  0.0258 -0.2766  0.0411
 7427TIP3    H143772   6.749   0.206  15.634 -0.8536 -0.7251  0.6983
 7427TIP3    H243773   6.860   0.132  15.562 -0.5252  0.7897 -0.4177
 7428TIP3   OH243774   0.113   2.592  16.930  0.2698 -0.2503  0.6293
 7428TIP3    H143775   0.109   2.515  16.987 -0.3241 -0.1714  0.6957
 7428TIP3    H243776   0.205   2.620  16.934  0.7637 -1.5887 -0.2424
 7429TIP3   OH243777   5.437   0.358   2.610  0.1574  0.2339 -0.1452
 7429TIP3    H143778   5.396   0.387   2.692 -0.9404  0.4723 -0.7687
 7429TIP3    H243779   5.491   0.433   2.583 -0.8339  0.8149 -0.5337
 7430TIP3   OH243780   4.173   1.763   4.197  0.5359 -0.0367  0.3305
 7430TIP3    H143781   4.187   1.678   4.239 -0.5444 -0.6532 -0.5015
 7430TIP3    H243782   4.260   1.788   4.167  0.9261 -0.7004  0.8619
 7431TIP3   OH243783   6.542   0.881   1.928  0.3796 -0.5269 -0.0664
 7431TIP3    H143784   6.633   0.912   1.932 -0.1096  0.8440  3.4154
 7431TIP3    H243785   6.549   0.786   1.933  1.6115 -0.4979 -0.7925
 7432TIP3   OH243786   1.953   0.230  14.933  0.3230  0.6635  0.1116
 7432TIP3    H143787   1.866   0.222  14.895  0.0639  0.2218  0.7722
 7432TIP3    H243788   1.953   0.167  15.005  0.8284  1.3905  0.7654
 7433TIP3   OH243789   6.522   5.768  17.274  0.6540  0.5645  0.1522
 7433TIP3    H143790   6.608   5.726  17.275 -0.8941 -2.9847  0.5212
 7433TIP3    H243791   6.497   5.774  17.366  0.2883  1.1448  0.0212
 7434TIP3   OH243792   3.667   5.778  16.309 -0.1811 -0.0496 -0.5429
 7434TIP3    H143793   3.754   5.808  16.285  0.3762 -1.1606  0.0190
 7434TIP3    H243794   3.673   5.683  16.309 -1.0226 -0.1353  0.8120
 7435TIP3   OH243795   2.686   4.622  16.735  0.0895 -0.2923  0.2998
 7435TIP3    H143796   2.712   4.661  16.652  1.0266 -1.2143  0.1377
 7435TIP3    H243797   2.724   4.679  16.802  1.0867 -0.6794  0.0723
 7436TIP3   OH243798   1.888   2.469  12.018 -0.3810 -0.4145 -0.3961
 7436TIP3    H143799   1.874   2.551  12.064 -3.2275  0.8803 -3.1873
 7436TIP3    H243800   1.981   2.470  11.995 -0.2165  1.7389  0.1815
 7437TIP3   OH243801   3.183   6.332  13.735  0.1140  0.2153  0.3386
 7437TIP3    H143802   3.227   6.414  13.757  0.3019 -0.4305  2.6283
 7437TIP3    H243803   3.254   6.268  13.727 -0.1442 -0.0690  0.2907
 7438TIP3   OH243804   2.677   1.456  11.859 -0.0775 -0.0330 -0.8471
 7438TIP3    H143805   2.677   1.533  11.802  0.0078  0.8417  0.2861
 7438TIP3    H243806   2.770   1.435  11.870 -0.0280  0.5105 -0.1358
 7439TIP3   OH243807   6.025   4.976  11.042 -0.4163  0.0154 -0.0126
 7439TIP3    H143808   6.021   5.048  10.979  0.7142 -0.1077 -0.2531
 7439TIP3    H243809   6.064   5.014  11.120  0.7610 -0.4558 -0.3495
 7440TIP3   OH243810   5.845   1.005  11.640 -0.1850  0.2760  0.4319
 7440TIP3    H143811   5.837   1.012  11.735  1.2260 -1.1090  0.6872
 7440TIP3    H243812   5.775   0.946  11.614  0.8341 -1.2063  0.9400
 7441TIP3   OH243813   2.897   0.896   1.439 -0.0114  0.2788  0.8395
 7441TIP3    H143814   2.952   0.827   1.402 -1.1986  0.4018 -1.3290
 7441TIP3    H243815   2.846   0.852   1.507  1.6961 -0.1428  1.9131
 7442TIP3   OH243816   2.960   0.793   5.456  0.2640 -0.3795 -0.1855
 7442TIP3    H143817   2.938   0.885   5.444 -0.0953 -0.2712  1.1825
 7442TIP3    H243818   3.030   0.793   5.522  1.2172 -1.0118 -1.1614
 7443TIP3   OH243819   3.040   6.744  16.147  0.2598  0.2439 -0.0637
 7443TIP3    H143820   3.065   6.835  16.160 -2.0154  0.7641  1.2079
 7443TIP3    H243821   2.945   6.746  16.139 -0.0931 -2.1939  2.2037
 7444TIP3   OH243822   5.193   0.003  16.025 -0.1845 -0.3957  0.2775
 7444TIP3    H143823   5.128  -0.035  16.084 -0.1770 -0.7774  0.0411
 7444TIP3    H243824   5.275   0.000  16.074  0.1445 -2.1634 -0.3152
 7445TIP3   OH243825   0.447   0.144  13.541  0.1385 -0.2253 -1.3762
 7445TIP3    H143826   0.370   0.150  13.597  0.7479 -2.0524 -0.2452
 7445TIP3    H243827   0.417   0.092  13.466  0.9288 -3.9271  0.6199
 7446TIP3   OH243828   6.022   2.178  13.079 -0.8653 -0.1605  0.6155
 7446TIP3    H143829   6.080   2.125  13.134  0.5110  0.7967  0.1383
 7446TIP3    H243830   5.947   2.121  13.062  1.1563 -2.5280 -1.0781
 7447TIP3   OH243831   0.141   5.174   2.940 -0.1646  0.4240  0.0848
 7447TIP3    H143832   0.123   5.090   2.982 -1.2258  1.1137  1.0532
 7447TIP3    H243833   0.114   5.162   2.849 -1.3700  0.0440  0.4783
 7448TIP3   OH243834   5.867   3.263  14.016 -0.1851 -0.0824 -0.6973
 7448TIP3    H143835   5.861   3.355  13.992 -0.0320  0.0084 -0.3909
 7448TIP3    H243836   5.779   3.240  14.047 -0.4557 -0.2692 -1.5669
 7449TIP3   OH243837   3.171   4.491   3.756 -0.2993  0.2551 -0.1991
 7449TIP3    H143838   3.174   4.474   3.662  0.7525 -0.6852 -0.0201
 7449TIP3    H243839   3.125   4.416   3.792  2.7842 -1.5389  0.4083
 7450TIP3   OH243840   3.590   2.862  11.470  0.1617 -0.5163 -0.2306
 7450TIP3    H143841   3.525   2.873  11.400 -1.1023 -0.0583  0.9567
 7450TIP3    H243842   3.590   2.767  11.487 -1.8020 -0.3453  1.1371
 7451TIP3   OH243843   5.617   2.706   1.163  0.5132 -0.3798  0.1111
 7451TIP3    H143844   5.676   2.721   1.089 -0.4146  0.7981 -0.4334
 7451TIP3    H243845   5.578   2.792   1.180 -2.4086 -1.4270 -0.7627
 7452TIP3   OH243846   0.568   6.735   1.152  0.2479  0.4712  0.0091
 7452TIP3    H143847   0.484   6.706   1.187  0.9915 -0.6684  0.9059
 7452TIP3    H243848   0.576   6.826   1.182  0.5158 -0.2228  2.2282
 7453TIP3   OH243849   5.938   1.493  14.510  0.4495 -0.0311  0.7043
 7453TIP3    H143850   6.015   1.478  14.455  0.9847  1.5048  1.0078
 7453TIP3    H243851   5.872   1.434  14.474  0.4875  1.5048 -2.1871
 7454TIP3   OH243852   6.638   6.244   3.452 -0.5643  0.2826 -0.0399
 7454TIP3    H143853   6.662   6.161   3.493 -0.3161  0.0551 -0.6267
 7454TIP3    H243854   6.583   6.219   3.378 -1.2237  0.6994  0.3017
 7455TIP3   OH243855   0.152   0.754  17.279 -0.5925 -0.1065  0.2255
 7455TIP3    H143856   0.240   0.789  17.295  0.1149 -1.5240 -0.3831
 7455TIP3    H243857   0.157   0.664  17.311 -2.1219  0.0726  1.0454
 7456TIP3   OH243858   3.286   5.774   7.004  0.3285  0.4415 -0.2470
 7456TIP3    H143859   3.301   5.831   7.080  2.1349  1.1569 -1.0847
 7456TIP3    H243860   3.234   5.827   6.944 -0.2234  0.2488  0.0568
 7457TIP3   OH243861   2.095   6.288   3.306  0.5989  0.0732  0.1808
 7457TIP3    H143862   2.148   6.225   3.257  1.5459 -0.3261  1.6549
 7457TIP3    H243863   2.159   6.339   3.355 -0.3324  0.1953  1.2925
 7458TIP3   OH243864   0.796   1.183   5.771  0.3803  0.1111 -0.1669
 7458TIP3    H143865   0.806   1.177   5.866 -3.1644  1.4640  0.4404
 7458TIP3    H243866   0.834   1.269   5.749  1.0476 -0.1289  0.0172
 7459TIP3   OH243867   6.385   3.997  11.734 -0.2626  0.7556  0.5883
 7459TIP3    H143868   6.460   4.047  11.702 -0.0010  0.6535  1.0206
 7459TIP3    H243869   6.392   3.913  11.689  1.8981 -0.5675  3.0909
 7460TIP3   OH243870   4.422   0.181   0.944 -0.5398 -0.6410  0.0670
 7460TIP3    H143871   4.472   0.153   1.021  0.2234 -0.9615 -0.5403
 7460TIP3    H243872   4.434   0.276   0.941  1.2853 -0.8518 -0.9052
 7461TIP3   OH243873   4.942   0.638   4.981 -0.2689  0.4689  0.0916
 7461TIP3    H143874   4.906   0.721   5.010  0.2745  1.0169 -0.7628
 7461TIP3    H243875   4.997   0.609   5.054 -0.5075  0.8292  0.4150
 7462TIP3   OH243876   4.494   6.524  16.713 -0.5123 -0.0298 -0.1963
 7462TIP3    H143877   4.440   6.603  16.718  1.1898  1.1178  0.9985
 7462TIP3    H243878   4.581   6.555  16.691 -0.3606 -1.8928 -2.6580
 7463TIP3   OH243879   6.688   5.250  11.911 -0.1844 -0.5718  0.0605
 7463TIP3    H143880   6.634   5.206  11.977 -0.7598 -0.7933 -0.5535
 7463TIP3    H243881   6.757   5.187  11.891 -0.5127 -0.8610 -0.1846
 7464TIP3   OH243882   0.797   3.679  13.008  0.1523 -0.0396  0.1228
 7464TIP3    H143883   0.781   3.605  12.950  1.0071 -0.9760  1.0358
 7464TIP3    H243884   0.717   3.731  13.005  0.2967  0.1404 -2.1490
 7465TIP3   OH243885   2.369   5.055  12.825 -0.5523 -0.1822 -0.4035
 7465TIP3    H143886   2.409   5.112  12.891  0.4187  0.5155 -1.5467
 7465TIP3    H243887   2.275   5.061  12.841 -0.3686  0.5077  0.4837
 7466TIP3   OH243888   5.968   6.349  16.622 -0.1856  0.6201 -0.0890
 7466TIP3    H143889   5.937   6.392  16.702 -1.8160 -0.5119 -0.0491
 7466TIP3    H243890   6.052   6.310  16.646  0.2072  1.7987  0.5272
 7467TIP3   OH243891   6.033   4.999  11.776 -0.1431 -0.4453 -0.1153
 7467TIP3    H143892   6.008   4.988  11.868 -3.2510  0.4072 -0.7440
 7467TIP3    H243893   6.031   5.093  11.761 -2.7760 -0.6477 -1.6963
 7468TIP3   OH243894   2.661   2.855  12.913 -0.2071  0.5162 -0.2166
 7468TIP3    H143895   2.607   2.893  12.982 -0.2831 -0.1049  0.0794
 7468TIP3    H243896   2.627   2.893  12.832 -1.3817 -0.1793 -0.0777
 7469TIP3   OH243897   2.063   1.570   2.112 -0.2982 -0.0117  0.0659
 7469TIP3    H143898   2.095   1.593   2.024 -1.8396  2.3159  0.0304
 7469TIP3    H243899   1.986   1.624   2.124  0.6203  0.7768  3.4204
 7470TIP3   OH243900   1.112   2.094   1.884  0.4712 -0.6057 -0.2625
 7470TIP3    H143901   1.073   2.135   1.807  1.6146  1.2659  0.0883
 7470TIP3    H243902   1.057   2.017   1.900  0.0352 -0.9126 -2.7536
 7471TIP3   OH243903   0.508   2.904   0.004  0.2432  0.1393  0.0427
 7471TIP3    H143904   0.434   2.846   0.022  0.5022 -0.4544 -0.7254
 7471TIP3    H243905   0.543   2.928   0.090 -0.8790  0.4886  0.4190
 7472TIP3   OH243906   1.316   6.039   2.119 -0.3336 -0.1254  0.2779
 7472TIP3    H143907   1.238   6.094   2.128  0.0573  0.6316 -0.7952
 7472TIP3    H243908   1.327   6.028   2.025  0.9236 -0.1225  0.4054
 7473TIP3   OH243909   3.549   4.658   0.957 -0.2407  0.1189  0.3377
 7473TIP3    H143910   3.572   4.565   0.961  0.8261  0.2502 -1.5840
 7473TIP3    H243911   3.494   4.673   1.034 -1.5473 -2.3902 -0.0357
 7474TIP3   OH243912   0.199   0.649  11.426 -0.9992 -0.0771 -0.3502
 7474TIP3    H143913   0.246   0.606  11.354 -2.2676  0.9859 -1.8850
 7474TIP3    H243914   0.112   0.609  11.425 -0.7239 -0.8025  1.3390
 7475TIP3   OH243915   5.163   1.100   1.047  0.7804  0.0647  0.3891
 7475TIP3    H143916   5.123   1.013   1.039 -0.5062  0.6595  0.0166
 7475TIP3    H243917   5.089   1.159   1.060  1.4921  1.2916 -0.8457
 7476TIP3   OH243918   1.171   5.836  16.684  0.2581  0.2873  0.2599
 7476TIP3    H143919   1.105   5.899  16.714  0.9801  0.8274  0.7515
 7476TIP3    H243920   1.248   5.889  16.663  0.9754 -0.4377  0.9522
 7477TIP3   OH243921   6.717   6.389   6.520 -0.0331  0.4077  0.7369
 7477TIP3    H143922   6.788   6.328   6.542 -0.4735 -0.9646 -1.3159
 7477TIP3    H243923   6.640   6.333   6.511 -0.7220  1.4404 -0.0059
 7478TIP3   OH243924   3.287   4.712  12.589 -0.1190  0.0852 -0.3607
 7478TIP3    H143925   3.200   4.684  12.561  0.2295 -1.8598  0.3597
 7478TIP3    H243926   3.346   4.676  12.523  0.1236  2.0848 -1.2925
 7479TIP3   OH243927   0.020   5.423   1.481 -0.1006  0.0229  0.0578
 7479TIP3    H143928   0.103   5.397   1.520  0.1272 -0.4245 -0.7090
 7479TIP3    H243929  -0.002   5.506   1.523  1.3557  0.7834 -0.6286
 7480TIP3   OH243930   5.000   5.946   5.795 -0.0198  0.3758  0.5571
 7480TIP3    H143931   5.058   6.016   5.764 -1.0726  1.1454  0.2655
 7480TIP3    H243932   5.014   5.874   5.734  1.1934  0.2477  0.9512
 7481TIP3   OH243933   3.275   2.531  16.016  0.7071  0.4645  0.6140
 7481TIP3    H143934   3.185   2.543  16.045  0.8441  0.4369  1.0591
 7481TIP3    H243935   3.324   2.600  16.062  1.2107 -0.6472  1.7923
 7482TIP3   OH243936   0.174   3.931   1.480 -0.5223  0.0039 -0.4904
 7482TIP3    H143937   0.135   3.999   1.425  1.6062  2.0983  0.4359
 7482TIP3    H243938   0.235   3.886   1.422 -0.8787 -0.1756 -0.7324
 7483TIP3   OH243939   1.085   5.080   5.338  0.4507  0.0207  0.0782
 7483TIP3    H143940   1.097   5.077   5.433 -1.7966  0.1983  0.4326
 7483TIP3    H243941   1.038   5.163   5.324 -1.7355 -1.2957 -0.8084
 7484TIP3   OH243942   3.705   3.334  12.369 -0.6142  0.5175 -0.0544
 7484TIP3    H143943   3.739   3.337  12.280 -0.7503  1.4950 -0.0785
 7484TIP3    H243944   3.644   3.408  12.375 -1.8128 -0.4584  0.3647
 7485TIP3   OH243945   2.607   4.357   0.500 -0.1530 -0.6751  0.2485
 7485TIP3    H143946   2.521   4.383   0.467  0.1937 -0.4988 -0.5509
 7485TIP3    H243947   2.592   4.332   0.591 -0.7950  0.6639  0.5190
 7486TIP3   OH243948   6.620   1.115   3.018  0.6053 -0.5614 -0.4271
 7486TIP3    H143949   6.529   1.089   3.011  1.0018 -1.7922 -1.6971
 7486TIP3    H243950   6.635   1.172   2.942  0.7009  0.2789  0.2138
 7487TIP3   OH243951   4.572   1.737   6.587 -0.0619  0.1390  0.7582
 7487TIP3    H143952   4.610   1.656   6.554 -0.2741 -0.2955  1.5514
 7487TIP3    H243953   4.493   1.750   6.535 -1.1902 -1.3195  2.0207
 7488TIP3   OH243954   1.719   1.456  13.081  0.1955 -0.2912 -0.3870
 7488TIP3    H143955   1.727   1.373  13.128 -2.3774 -0.3265  0.1500
 7488TIP3    H243956   1.699   1.520  13.150 -0.5767  0.2299 -1.0725
 7489TIP3   OH243957   4.798   5.009   4.171  0.0059  0.1721  0.2996
 7489TIP3    H143958   4.795   4.923   4.129 -0.3593 -0.1418  0.9563
 7489TIP3    H243959   4.878   5.007   4.224 -0.1230  0.1551  0.4932
 7490TIP3   OH243960   4.627   1.041  15.066 -0.4378  0.2402  0.2134
 7490TIP3    H143961   4.605   0.952  15.041  0.8931  0.5228 -2.2827
 7490TIP3    H243962   4.703   1.033  15.123 -1.4537 -0.2652  1.5426
 7491TIP3   OH243963   3.016   0.425  15.463 -0.1332 -0.0404  0.3797
 7491TIP3    H143964   2.989   0.345  15.509 -2.6757 -1.2890 -2.8534
 7491TIP3    H243965   3.108   0.410  15.440  1.1825  0.5496  4.5113
 7492TIP3   OH243966   4.875   2.822  12.427 -0.0773  0.5553 -0.2458
 7492TIP3    H143967   4.908   2.835  12.516 -3.0350 -1.5884  1.3281
 7492TIP3    H243968   4.862   2.911  12.393 -1.0157  1.4973  2.3434
 7493TIP3   OH243969   3.118   5.279  16.492  0.2816  0.2506  0.8672
 7493TIP3    H143970   3.051   5.279  16.561 -0.4694 -0.6593  0.1709
 7493TIP3    H243971   3.087   5.215  16.429  1.6235  0.1091  0.3157
 7494TIP3   OH243972   0.229   3.230   2.956 -0.2000  0.5507  0.2549
 7494TIP3    H143973   0.184   3.267   3.032  0.1650  0.5274  0.4878
 7494TIP3    H243974   0.175   3.255   2.882  0.1478  1.7662  0.3822
 7495TIP3   OH243975   0.899   3.297  14.582  0.0582 -0.1372 -0.2207
 7495TIP3    H143976   0.939   3.371  14.537 -0.4012  0.5198  0.4275
 7495TIP3    H243977   0.880   3.329  14.670 -0.7757 -0.8032 -0.1409
 7496TIP3   OH243978   0.269   0.465   4.063 -0.6823  0.4638 -0.4788
 7496TIP3    H143979   0.330   0.444   3.992 -1.0899  1.4431 -1.1443
 7496TIP3    H243980   0.196   0.405   4.051 -0.4106  0.1146 -0.4175
 7497TIP3   OH243981   6.170   6.476  16.073 -0.2325  0.6212 -0.5047
 7497TIP3    H143982   6.130   6.562  16.061  2.8049  2.3107  0.4008
 7497TIP3    H243983   6.235   6.469  16.002  1.8365  0.6216  1.2748
 7498TIP3   OH243984   5.905   4.595  15.123  0.0162  0.2790 -0.4518
 7498TIP3    H143985   5.844   4.599  15.196  0.0172 -1.6275 -0.2935
 7498TIP3    H243986   5.987   4.563  15.162  0.0802 -0.5513 -1.2128
 7499TIP3   OH243987   1.480   2.992   2.152 -0.1909  0.0320  0.2774
 7499TIP3    H143988   1.427   2.985   2.232 -0.1449  0.5715  0.3636
 7499TIP3    H243989   1.570   3.000   2.184 -0.1140 -0.3238  0.1505
 7500TIP3   OH243990   2.619   5.834   5.810 -0.6023  0.1222  0.1885
 7500TIP3    H143991   2.688   5.787   5.763 -0.1369  2.0866 -1.2288
 7500TIP3    H243992   2.617   5.794   5.897  2.2327 -0.1078  0.2205
 7501TIP3   OH243993   6.229   2.692  12.389  0.3146  0.1944 -0.1324
 7501TIP3    H143994   6.248   2.773  12.436  1.4852 -0.8811  1.3424
 7501TIP3    H243995   6.245   2.713  12.297  1.4068  1.4156  0.3114
 7502TIP3   OH243996   1.323   4.692   3.183 -0.1817  0.2595  0.0897
 7502TIP3    H143997   1.416   4.680   3.202 -0.3690  1.1682  1.7979
 7502TIP3    H243998   1.297   4.613   3.137  1.6215  0.3572 -1.2230
 7503TIP3   OH243999   0.179   0.456  14.705 -0.3802 -0.3859 -0.7540
 7503TIP3    H144000   0.083   0.454  14.706 -0.3908 -0.5090 -1.5636
 7503TIP3    H244001   0.204   0.368  14.676 -0.0771  0.2381 -2.4965
 7504TIP3   OH244002   1.162   4.210   5.229  0.4507 -0.2176  0.1231
 7504TIP3    H144003   1.258   4.212   5.221  0.6653 -0.8723  1.9823
 7504TIP3    H244004   1.143   4.263   5.306 -0.7393  0.2100 -0.4411
 7505TIP3   OH244005   0.440   4.847  15.535 -0.0428  0.3288  1.0063
 7505TIP3    H144006   0.498   4.771  15.528 -0.3519  0.2825 -2.0713
 7505TIP3    H244007   0.352   4.810  15.536 -0.1862  0.5859 -0.3005
 7506TIP3   OH244008   5.379   4.419   1.753  0.7186  0.2562  0.0026
 7506TIP3    H144009   5.400   4.326   1.763 -1.0380 -0.4195 -1.9576
 7506TIP3    H244010   5.288   4.426   1.783 -0.1813  0.6846 -2.5676
 7507TIP3   OH244011   3.891   1.802   4.941  0.8180 -0.1260 -0.2050
 7507TIP3    H144012   3.822   1.758   4.991  0.9400 -1.1405 -0.9128
 7507TIP3    H244013   3.965   1.807   5.001 -0.1241  1.7943  0.8841
 7508TIP3   OH244014   5.456   2.874   0.730  0.3003  0.2438  1.2451
 7508TIP3    H144015   5.401   2.799   0.707  0.5051  0.6545 -0.8063
 7508TIP3    H244016   5.516   2.882   0.656  1.0155  1.7510  1.9616
 7509TIP3   OH244017   4.858   4.947  15.094  0.4785 -0.2521  0.2811
 7509TIP3    H144018   4.942   4.984  15.067  0.8779 -0.5326  1.1176
 7509TIP3    H244019   4.794   4.985  15.033  1.0468  0.8538  0.3684
 7510TIP3   OH244020   2.551   2.214   2.877  0.2559 -0.1160  0.2252
 7510TIP3    H144021   2.509   2.218   2.791 -1.8543 -1.0953  1.1472
 7510TIP3    H244022   2.644   2.225   2.858 -0.0822 -0.8007 -2.2277
 7511TIP3   OH244023   5.653   5.130   2.258  0.1126  0.1937  0.4954
 7511TIP3    H144024   5.732   5.179   2.282  0.0923 -0.1831  1.3725
 7511TIP3    H244025   5.583   5.195   2.260  0.5430  0.7630 -1.3267
 7512TIP3   OH244026   1.480   5.761  12.745  0.8850 -0.1081  0.3642
 7512TIP3    H144027   1.495   5.762  12.651 -0.0481 -0.4110  0.2024
 7512TIP3    H244028   1.424   5.837  12.761  2.1024  0.7156  0.8795
 7513TIP3   OH244029   3.204   3.157   4.685 -0.1405  0.2506  0.8012
 7513TIP3    H144030   3.281   3.105   4.662 -0.6844 -0.0035 -0.5883
 7513TIP3    H244031   3.130   3.101   4.661 -0.7809  2.1413 -2.2144
 7514TIP3   OH244032   1.684   1.819   1.336 -0.1440  0.6740  0.2907
 7514TIP3    H144033   1.688   1.893   1.275  3.7411  1.3029  1.0552
 7514TIP3    H244034   1.645   1.748   1.286  3.2282  1.0140 -3.1944
 7515TIP3   OH244035   3.935   1.757  15.769  0.7487  0.2172 -0.1524
 7515TIP3    H144036   3.858   1.814  15.768  0.6295  0.0854  0.7712
 7515TIP3    H244037   3.909   1.683  15.824  1.2519 -0.2421 -0.5189
 7516TIP3   OH244038   2.611   2.538  16.948 -0.2456  0.4589 -0.3417
 7516TIP3    H144039   2.682   2.493  16.995 -0.7715  0.6365  0.6451
 7516TIP3    H244040   2.629   2.631  16.961 -1.2577  0.5141  0.8952
 7517TIP3   OH244041   1.455   2.748   0.975 -0.1128  0.0570  0.2695
 7517TIP3    H144042   1.371   2.717   1.009 -0.3852  1.9643  1.4463
 7517TIP3    H244043   1.444   2.748   0.880 -0.2748 -2.8081  0.2045
 7518TIP3   OH244044   6.500   6.172   3.204  0.2897 -0.5959  0.4274
 7518TIP3    H144045   6.545   6.203   3.125  0.6199 -0.2895  0.7297
 7518TIP3    H244046   6.496   6.077   3.194  0.9469 -0.6237  0.3575
 7519TIP3   OH244047   5.888   2.831   2.514 -0.0497  0.1093 -0.3779
 7519TIP3    H144048   5.855   2.749   2.549 -1.6679  1.0749  0.4683
 7519TIP3    H244049   5.979   2.837   2.545 -0.2719 -0.8240  0.4631
 7520TIP3   OH244050   3.410   4.594  10.858  0.6603  0.0433 -0.2162
 7520TIP3    H144051   3.407   4.689  10.851  1.7634  0.0901 -0.3110
 7520TIP3    H244052   3.410   4.562  10.768 -0.4219 -0.0901 -0.1796
 7521TIP3   OH244053   6.373   4.136   3.527  0.0158  0.6996  0.3767
 7521TIP3    H144054   6.398   4.222   3.494 -0.7210  0.4512 -0.9189
 7521TIP3    H244055   6.330   4.093   3.452  4.2792 -2.5567 -0.5812
 7522TIP3   OH244056   2.736   6.579   4.430 -0.1786  0.1765  0.5078
 7522TIP3    H144057   2.649   6.610   4.455 -0.7866  1.0970 -2.3272
 7522TIP3    H244058   2.784   6.659   4.407 -0.4232 -0.5446 -3.0370
 7523TIP3   OH244059   6.379   6.630  11.782 -0.0076  0.3603 -0.2970
 7523TIP3    H144060   6.384   6.581  11.864 -0.1415  1.9296  0.6857
 7523TIP3    H244061   6.352   6.565  11.717 -0.5822 -0.7742  1.0293
 7524TIP3   OH244062   0.151   3.010  16.092  0.0570 -0.1412 -0.2016
 7524TIP3    H144063   0.095   3.017  16.169 -1.5501  0.3088 -1.3707
 7524TIP3    H244064   0.217   3.078  16.103 -0.0733 -0.1735  0.8213
 7525TIP3   OH244065   3.334   4.875   0.709  0.4448 -0.2058  0.1113
 7525TIP3    H144066   3.387   4.903   0.635 -0.2816 -1.8721 -1.1007
 7525TIP3    H244067   3.396   4.827   0.765  0.7340 -0.0403 -0.0674
 7526TIP3   OH244068   6.556   1.210  13.472  0.2157  0.3940  1.1475
 7526TIP3    H144069   6.618   1.246  13.534  0.1156 -0.1136  1.5489
 7526TIP3    H244070   6.473   1.206  13.520  0.4666 -1.4135  1.5037
 7527TIP3   OH244071   6.281   3.989   0.112  0.3544  0.5925 -0.1126
 7527TIP3    H144072   6.347   4.024   0.172 -0.7786 -0.3519  1.7507
 7527TIP3    H244073   6.284   3.894   0.126 -2.2328  0.6031  0.9816
 7528TIP3   OH244074   5.522   3.942   1.615  0.1697 -0.2045  0.2283
 7528TIP3    H144075   5.606   3.899   1.632  0.6560  0.6856  0.1663
 7528TIP3    H244076   5.500   3.915   1.526  0.3629 -0.5020  0.2697
 7529TIP3   OH244077   1.053   4.977  12.353  0.1630 -0.0809 -0.4654
 7529TIP3    H144078   0.968   4.933  12.353 -0.8477  1.7609  0.6403
 7529TIP3    H244079   1.046   5.043  12.284  0.9808 -0.3670 -0.8389
 7530TIP3   OH244080   1.688   4.351  11.895 -0.4638 -0.4584  0.4593
 7530TIP3    H144081   1.765   4.362  11.838  0.1585 -1.1865  1.1357
 7530TIP3    H244082   1.633   4.426  11.875  1.0400  0.8185  0.9214
 7531TIP3   OH244083   5.584   2.481  16.353  0.2268 -0.0879  0.1429
 7531TIP3    H144084   5.499   2.500  16.312  0.3551  0.8495  0.2960
 7531TIP3    H244085   5.606   2.393  16.322 -0.3089  0.0733 -0.7382
 7532TIP3   OH244086   0.534   2.367   6.376 -0.2531  0.0562  0.7697
 7532TIP3    H144087   0.566   2.354   6.466  0.7939 -0.3360  0.3575
 7532TIP3    H244088   0.530   2.279   6.339 -0.4857  0.2380  0.3577
 7533TIP3   OH244089   3.557   6.302  14.944 -0.2546 -0.5210 -0.2728
 7533TIP3    H144090   3.467   6.274  14.928  0.0421 -1.8167  0.1855
 7533TIP3    H244091   3.610   6.225  14.926  0.6589 -0.1211  0.6026
 7534TIP3   OH244092   4.599   1.260  11.138  0.1829  0.0850 -0.2380
 7534TIP3    H144093   4.514   1.300  11.120  0.2793  0.4798  0.1390
 7534TIP3    H244094   4.616   1.203  11.063 -0.7599 -0.5869  0.0350
 7535TIP3   OH244095   4.857   0.166  16.077 -0.1748  0.4937  0.2042
 7535TIP3    H144096   4.785   0.220  16.046 -0.9060 -0.3303  0.4175
 7535TIP3    H244097   4.815   0.086  16.110  0.8499 -0.1024  0.1168
 7536TIP3   OH244098   6.407   6.091   0.573  0.3834  0.1326 -0.1513
 7536TIP3    H144099   6.436   6.099   0.482 -0.5051 -0.1328 -0.4712
 7536TIP3    H244100   6.487   6.071   0.623  0.7880 -0.2948 -0.9534
 7537TIP3   OH244101   3.512   4.306   2.681 -0.3115  0.5408 -0.7197
 7537TIP3    H144102   3.486   4.304   2.773 -2.0466  3.1090 -1.0350
 7537TIP3    H244103   3.600   4.270   2.680 -0.7698 -0.8877  1.7215
 7538TIP3   OH244104   6.400   1.582   2.373 -0.3191  0.6054  0.1371
 7538TIP3    H144105   6.324   1.577   2.315  0.0943  0.3028 -0.3830
 7538TIP3    H244106   6.380   1.520   2.443 -0.6039  0.6133  0.0650
 7539TIP3   OH244107   5.590   4.725   1.062  0.8123 -0.2760  0.2910
 7539TIP3    H144108   5.646   4.803   1.062 -1.7801  1.7120 -0.9762
 7539TIP3    H244109   5.585   4.700   1.154  1.8066  0.9687  0.7183
 7540TIP3   OH244110   6.557   0.275   2.359  0.0165 -0.5181 -0.5579
 7540TIP3    H144111   6.547   0.192   2.313  0.5564 -1.1721  0.4645
 7540TIP3    H244112   6.484   0.277   2.421  0.0208 -0.2311 -0.5576
 7541TIP3   OH244113   0.911   6.469   1.309  0.0367  0.0781 -0.2895
 7541TIP3    H144114   0.827   6.438   1.344 -0.6650  1.3530 -0.7797
 7541TIP3    H244115   0.948   6.393   1.265 -0.4743 -0.7204  0.6219
 7542TIP3   OH244116   3.570   2.631   5.225  0.1303 -0.0205  0.2226
 7542TIP3    H144117   3.630   2.692   5.268 -2.1069  0.9553  2.1786
 7542TIP3    H244118   3.610   2.545   5.238  2.2385  0.7591 -0.6357
 7543TIP3   OH244119   6.050   6.785   5.599 -0.6042 -0.2414 -0.5014
 7543TIP3    H144120   5.965   6.774   5.557 -0.0553 -0.9082 -1.4648
 7543TIP3    H244121   6.098   6.705   5.578  1.4105  1.4007 -2.7175
 7544TIP3   OH244122   0.460   4.353  12.299  0.0585  0.4349  0.0058
 7544TIP3    H144123   0.395   4.353  12.229 -0.0796  2.2776  0.0776
 7544TIP3    H244124   0.537   4.395  12.260  0.1759  0.9518  0.7590
 7545TIP3   OH244125   0.937   1.146   2.528  0.4335  0.7717  0.1302
 7545TIP3    H144126   0.896   1.177   2.447 -0.2416 -1.2340 -0.3457
 7545TIP3    H244127   0.864   1.116   2.582  1.0215  0.3986  0.7368
 7546TIP3   OH244128   4.489   2.187   4.422 -0.0973  0.1020 -0.0592
 7546TIP3    H144129   4.401   2.167   4.454  0.6040  0.5031  2.3596
 7546TIP3    H244130   4.529   2.238   4.493  1.7779  0.7404 -1.4881
 7547TIP3   OH244131   1.947   0.221  12.224  0.6233  0.6528  0.1855
 7547TIP3    H144132   1.910   0.299  12.265  1.0295  0.4866  0.8849
 7547TIP3    H244133   1.883   0.153  12.239  0.8486  0.5519  0.7015
 7548TIP3   OH244134   5.706   0.850   1.652  0.2413 -0.0563 -0.0202
 7548TIP3    H144135   5.657   0.894   1.721 -1.9050 -0.2494 -1.3088
 7548TIP3    H244136   5.693   0.906   1.575  0.6944 -0.9639 -0.7699
 7549TIP3   OH244137   2.206   5.987  10.626  0.4234  0.0043 -0.0622
 7549TIP3    H144138   2.126   6.005  10.576  0.2083  0.9961  0.6078
 7549TIP3    H244139   2.199   6.043  10.703  1.5896 -0.1807  0.1953
 7550TIP3   OH244140   2.627   2.326   1.277  0.5481  0.1699 -0.8746
 7550TIP3    H144141   2.594   2.276   1.202 -1.2644 -0.6576  0.3781
 7550TIP3    H244142   2.558   2.390   1.294  1.5638  1.2504 -0.7184
 7551TIP3   OH244143   6.725   4.063   6.433 -0.0500 -0.1546 -0.5073
 7551TIP3    H144144   6.795   4.004   6.407 -1.0301 -0.5644 -2.3974
 7551TIP3    H244145   6.694   4.101   6.351 -2.1144 -0.0834  0.2574
 7552TIP3   OH244146   1.482   2.848  16.880 -0.3920 -0.2242 -0.3101
 7552TIP3    H144147   1.527   2.788  16.940 -0.9163 -2.0407 -1.6095
 7552TIP3    H244148   1.446   2.790  16.812 -0.4553  1.6578 -1.9607
 7553TIP3   OH244149   4.299   4.367  15.931  1.4568 -0.3811 -0.3087
 7553TIP3    H144150   4.373   4.414  15.892 -0.0963  0.3997 -2.5560
 7553TIP3    H244151   4.241   4.435  15.964  0.0017 -0.7060 -2.0207
 7554TIP3   OH244152   1.707   1.993   1.139 -0.7065  0.2986 -0.0403
 7554TIP3    H144153   1.741   2.000   1.050  2.0202 -1.4479  0.7319
 7554TIP3    H244154   1.676   2.082   1.160 -0.7890  0.9040 -2.4309
 7555TIP3   OH244155   1.143   6.639  14.109 -0.1664 -0.8426  0.3833
 7555TIP3    H144156   1.139   6.544  14.114 -2.3991 -0.7773  1.0960
 7555TIP3    H244157   1.058   6.665  14.074  0.8443  0.8645 -0.9838
 7556TIP3   OH244158   4.001   3.954  15.554 -0.4231 -0.0105 -0.7266
 7556TIP3    H144159   4.014   4.045  15.527  0.8940  0.2059  0.5261
 7556TIP3    H244160   4.001   3.957  15.650  0.2653 -1.3952 -0.6563
 7557TIP3   OH244161   1.148   4.517   4.781  0.4867  0.0506  0.4204
 7557TIP3    H144162   1.211   4.576   4.738  0.8274 -0.3934  0.3007
 7557TIP3    H244163   1.197   4.436   4.796 -0.4442 -0.8119 -0.9432
 7558TIP3   OH244164   4.744   0.041   6.115  0.1185  0.0019  0.0739
 7558TIP3    H144165   4.682  -0.033   6.109  0.8168 -0.6045  0.1666
 7558TIP3    H244166   4.705   0.099   6.180  0.0910 -0.8205  0.8113
 7559TIP3   OH244167   2.716   2.981  16.514 -0.4063  0.1834  0.2261
 7559TIP3    H144168   2.674   2.918  16.455  2.7218 -0.4212 -1.5932
 7559TIP3    H244169   2.721   3.062  16.463  0.9014  0.1185  0.2182
 7560TIP3   OH244170   4.751   5.981  13.666 -0.6739  0.0392  0.7462
 7560TIP3    H144171   4.844   5.967  13.644 -0.1728  1.9689  1.4602
 7560TIP3    H244172   4.749   5.975  13.762 -0.8473  2.1710  0.9093
 7561TIP3   OH244173   3.747   4.142  15.227  0.3249  0.0428 -0.2823
 7561TIP3    H144174   3.830   4.094  15.228 -0.1312 -0.8452  2.3081
 7561TIP3    H244175   3.771   4.233  15.242  0.8892 -0.0662 -0.5113
 7562TIP3   OH244176   0.840   5.351  15.923 -0.7838  0.3406 -0.2880
 7562TIP3    H144177   0.796   5.386  15.846  0.2988  0.0404 -1.0601
 7562TIP3    H244178   0.796   5.394  15.997  0.5107  3.4671 -1.1660
 7563TIP3   OH244179   3.894   3.169   5.347 -0.6129 -0.2160  0.0332
 7563TIP3    H144180   3.861   3.207   5.429  0.7241 -1.2725  1.1177
 7563TIP3    H244181   3.893   3.075   5.362  0.1569 -0.4019 -0.9760
 7564TIP3   OH244182   4.495   0.797   3.279 -0.1719 -0.1153 -0.3074
 7564TIP3    H144183   4.584   0.803   3.315  0.0727  1.4856 -1.1219
 7564TIP3    H244184   4.439   0.790   3.357  0.6565 -1.7611  0.2057
 7565TIP3   OH244185   0.448   6.181  13.598 -0.1185  0.4001  0.2970
 7565TIP3    H144186   0.471   6.274  13.599  1.8877 -0.0373 -0.2823
 7565TIP3    H244187   0.355   6.179  13.620  0.3763  2.3480  3.1692
 7566TIP3   OH244188   5.774   2.417  15.600  0.1070 -0.3105  0.2068
 7566TIP3    H144189   5.776   2.364  15.680 -1.6324  1.6117  1.6555
 7566TIP3    H244190   5.818   2.498  15.625  0.0794  0.0913 -1.0112
 7567TIP3   OH244191   5.886   1.788   2.209 -0.3751 -0.0953  0.4512
 7567TIP3    H144192   5.971   1.803   2.250 -0.8563  0.0766  1.4017
 7567TIP3    H244193   5.872   1.694   2.214 -0.8663  0.0260  1.5822
 7568TIP3   OH244194   6.084   2.968  13.114 -0.2827 -0.5508 -0.1326
 7568TIP3    H144195   6.095   2.937  13.204  1.4414  4.0593  1.6042
 7568TIP3    H244196   5.992   2.992  13.108 -0.8845 -2.7228 -0.4280
 7569TIP3   OH244197   5.508   4.545  10.493 -0.3839 -0.2904  0.2257
 7569TIP3    H144198   5.439   4.541  10.559 -1.3944 -1.4287 -0.8500
 7569TIP3    H244199   5.476   4.491  10.421  0.9633  0.4001 -0.9509
 7570TIP3   OH244200   0.024   1.869  13.109 -0.3600  0.4297 -0.0633
 7570TIP3    H144201  -0.061   1.834  13.133  0.0791 -0.2416  0.5544
 7570TIP3    H244202   0.005   1.932  13.040 -1.5280  1.5374  1.2147
 7571TIP3   OH244203   4.413   5.235   4.223 -0.0112  0.0929 -0.1033
 7571TIP3    H144204   4.436   5.298   4.155 -0.0401 -0.7513 -0.9168
 7571TIP3    H244205   4.392   5.154   4.175 -0.2991 -0.4406  0.8896
 7572TIP3   OH244206   6.083   5.965  17.006 -0.1962  0.1083 -0.2163
 7572TIP3    H144207   6.073   5.989  16.914 -1.4606  1.6725  0.2902
 7572TIP3    H244208   6.018   5.896  17.020 -2.9031  2.5855  0.3747
 7573TIP3   OH244209   1.122   4.599   4.409  0.1919  0.0527 -0.1352
 7573TIP3    H144210   1.067   4.521   4.410  0.0583  0.1515  1.1594
 7573TIP3    H244211   1.190   4.581   4.474 -1.3042  2.0173  2.1532
 7574TIP3   OH244212   6.338   4.030   2.472 -0.2471  0.2537  0.6648
 7574TIP3    H144213   6.388   4.064   2.547  0.1442 -1.3214  1.1650
 7574TIP3    H244214   6.401   3.977   2.424 -1.2574 -1.2540  0.9506
 7575TIP3   OH244215   2.642   3.592   0.848 -0.0712 -0.2216 -0.4365
 7575TIP3    H144216   2.676   3.512   0.808 -1.6493 -0.3816 -1.5581
 7575TIP3    H244217   2.606   3.563   0.932 -0.6656 -0.7105 -0.8501
 7576TIP3   OH244218   1.804   3.887   1.198 -0.0450 -0.7941 -0.2420
 7576TIP3    H144219   1.871   3.846   1.254 -1.1085 -2.0394  0.1757
 7576TIP3    H244220   1.724   3.884   1.251 -0.1314  2.2316 -0.0408
 7577TIP3   OH244221   4.182   2.890   0.048 -0.1380  0.2966  0.0753
 7577TIP3    H144222   4.197   2.823   0.115 -0.6725  0.5351  0.4354
 7577TIP3    H244223   4.153   2.841  -0.029 -1.0169  0.1517  0.4930
 7578TIP3   OH244224   1.046   6.527   1.951 -0.5054 -0.7132  0.0701
 7578TIP3    H144225   0.993   6.456   1.915 -1.6337  1.1986 -2.2615
 7578TIP3    H244226   0.994   6.562   2.023 -0.3925 -1.5716  0.5831
 7579TIP3   OH244227   2.719   3.376   3.632 -0.3810  0.0095 -1.0496
 7579TIP3    H144228   2.652   3.382   3.563  0.7370 -0.5020 -2.2342
 7579TIP3    H244229   2.766   3.295   3.612 -0.9832 -0.9810  1.2427
 7580TIP3   OH244230   6.012   6.023   5.828 -0.1610  0.3133 -0.1549
 7580TIP3    H144231   5.984   6.026   5.919 -0.9719  0.4803 -0.3935
 7580TIP3    H244232   6.024   6.115   5.803 -0.1043  0.2774 -0.2624
 7581TIP3   OH244233   5.050   1.119  13.407  0.3148 -0.3713  0.7852
 7581TIP3    H144234   5.081   1.029  13.411  0.8213 -0.2117  0.5271
 7581TIP3    H244235   4.971   1.120  13.462 -0.2629 -1.1874 -0.0120
 7582TIP3   OH244236   4.757   2.351   3.035 -0.0381 -0.6537  0.2313
 7582TIP3    H144237   4.713   2.322   3.115  0.6175 -0.6639  0.5954
 7582TIP3    H244238   4.707   2.428   3.007 -0.8378 -1.1922  0.1292
 7583TIP3   OH244239   4.728   5.673   3.703 -0.5119 -0.4205 -0.0452
 7583TIP3    H144240   4.750   5.681   3.796  1.0513  0.4928 -0.4628
 7583TIP3    H244241   4.633   5.680   3.701 -0.7655 -2.3525  1.6568
 7584TIP3   OH244242   1.190   2.378  17.086 -0.0115 -0.7405  0.5738
 7584TIP3    H144243   1.138   2.435  17.141 -0.6197 -1.7349  1.0481
 7584TIP3    H244244   1.280   2.391  17.115  0.4226  2.6672 -1.7108
 7585TIP3   OH244245   4.920   3.793  16.463  0.3920  0.4757  0.3687
 7585TIP3    H144246   4.945   3.757  16.377 -1.2808  1.2678 -0.5093
 7585TIP3    H244247   4.844   3.742  16.489  0.4427  0.7353  1.0405
 7586TIP3   OH244248   5.053   0.820   1.108  0.1979  0.1966 -0.4132
 7586TIP3    H144249   5.048   0.861   1.194  1.4841  1.3518 -0.8510
 7586TIP3    H244250   4.993   0.870   1.053 -0.2075 -0.1909 -0.3306
 7587TIP3   OH244251   3.899   3.374   1.375 -0.0367 -0.4874  0.3212
 7587TIP3    H144252   3.834   3.310   1.402  0.4472 -1.0766  0.1075
 7587TIP3    H244253   3.939   3.337   1.297  0.4808 -0.0849  0.3851
 7588TIP3   OH244254   2.527   0.241   4.074  0.4551  0.3063  0.3502
 7588TIP3    H144255   2.478   0.322   4.054 -1.0703 -0.2360  1.6474
 7588TIP3    H244256   2.546   0.248   4.168 -0.9651 -1.4359  0.8199
 7589TIP3   OH244257   2.368   4.718  14.884 -0.1384 -0.5224  0.0723
 7589TIP3    H144258   2.282   4.750  14.911  0.3330 -0.1752  1.2170
 7589TIP3    H244259   2.428   4.751  14.951  0.7744 -1.4536 -0.2648
 7590TIP3   OH244260   4.545   0.040   4.195 -0.5437  0.7396  0.7870
 7590TIP3    H144261   4.627   0.004   4.162 -0.9627  0.1921  0.3336
 7590TIP3    H244262   4.561   0.055   4.288  0.2865  1.2744  0.5734
 7591TIP3   OH244263   0.430   0.288   4.568  0.4966 -0.3173  0.0755
 7591TIP3    H144264   0.375   0.253   4.638 -0.4392  1.9639  0.5830
 7591TIP3    H244265   0.374   0.283   4.490  0.1981  0.4235  0.2383
 7592TIP3   OH244266   6.700   2.345  12.289 -0.2237  0.4920  0.4901
 7592TIP3    H144267   6.705   2.433  12.252 -0.1028  0.5065  0.5400
 7592TIP3    H244268   6.698   2.287  12.213 -0.6309  0.5527  0.4538
 7593TIP3   OH244269   2.581   2.936  16.781 -0.2619  0.2050  0.1068
 7593TIP3    H144270   2.639   2.936  16.705 -0.9190  0.8705 -0.4015
 7593TIP3    H244271   2.500   2.977  16.751 -0.0160  1.8879  1.5378
 7594TIP3   OH244272   4.108   0.559   4.276 -0.5286 -0.6113 -0.0055
 7594TIP3    H144273   4.202   0.569   4.259 -0.2524  1.5955  2.2738
 7594TIP3    H244274   4.090   0.467   4.253  2.4622 -1.5044  0.7091
 7595TIP3   OH244275   3.484   3.671   1.849  0.6096 -0.3869 -0.4585
 7595TIP3    H144276   3.464   3.738   1.914  1.5982 -0.3227 -0.2061
 7595TIP3    H244277   3.481   3.589   1.898 -2.3108 -0.7766 -1.1078
 7596TIP3   OH244278   4.296   0.432   5.760 -0.0190 -0.8287 -0.2428
 7596TIP3    H144279   4.348   0.510   5.778  0.0677 -1.0650  0.6243
 7596TIP3    H244280   4.358   0.360   5.765 -0.0004 -0.9218 -1.5551
 7597TIP3   OH244281   5.656   5.458   0.253  0.3037  0.3027  0.4764
 7597TIP3    H144282   5.671   5.420   0.166  1.7523  0.7717  0.4905
 7597TIP3    H244283   5.662   5.552   0.239  0.5912  0.3771  1.0932
 7598TIP3   OH244284   3.239   6.499   1.465 -0.5499  0.1537  0.0086
 7598TIP3    H144285   3.282   6.481   1.548 -2.3377 -3.1579  0.3902
 7598TIP3    H244286   3.303   6.472   1.399  0.1718  1.0133  0.3401
 7599TIP3   OH244287   3.000   2.207   4.630  0.2003  0.3057  0.1444
 7599TIP3    H144288   3.057   2.133   4.650  1.3629  1.2958  0.6025
 7599TIP3    H244289   3.048   2.259   4.566  0.5677  1.9742  1.6836
 7600TIP3   OH244290   4.033   5.649   6.576 -0.1562  0.4106 -0.0758
 7600TIP3    H144291   3.986   5.576   6.536  0.2231 -0.6918  1.4188
 7600TIP3    H244292   3.971   5.686   6.639 -0.1695  1.0763 -0.4691
 7601TIP3   OH244293   2.065   5.335   5.764  0.3928 -0.4193  0.0292
 7601TIP3    H144294   2.009   5.394   5.714  0.6452  0.1012  0.3497
 7601TIP3    H244295   2.150   5.340   5.720  0.5524 -0.1422  0.3603
 7602TIP3   OH244296   3.823   3.276   4.686 -0.8904 -0.0618  0.1402
 7602TIP3    H144297   3.753   3.224   4.647 -0.0981 -2.1047  1.2549
 7602TIP3    H244298   3.897   3.265   4.626 -0.1536 -1.8927  1.2855
 7603TIP3   OH244299   4.394   3.442  12.296 -0.0542 -0.4218 -0.0428
 7603TIP3    H144300   4.425   3.374  12.355 -0.8561 -0.0153  0.8608
 7603TIP3    H244301   4.443   3.520  12.321  0.1700 -0.4265 -0.4462
 7604TIP3   OH244302   2.349   4.204   6.729  0.0012 -0.6997  0.4020
 7604TIP3    H144303   2.273   4.261   6.714 -0.0476 -0.8299  0.1592
 7604TIP3    H244304   2.424   4.262   6.718  0.0203 -1.0432 -1.5570
 7605TIP3   OH244305   1.812   2.212   2.472  0.0050 -0.0017  0.0128
 7605TIP3    H144306   1.854   2.136   2.513 -3.1804 -0.3672  3.1369
 7605TIP3    H244307   1.734   2.176   2.430 -0.5402  1.3090 -0.1371
 7606TIP3   OH244308   4.541   1.047  10.978  0.1471 -0.5791  0.7274
 7606TIP3    H144309   4.626   1.022  11.015 -0.4869 -1.8066  1.4126
 7606TIP3    H244310   4.478   1.023  11.045 -0.7852 -0.0491  0.0594
 7607TIP3   OH244311   4.664   2.138   2.228  0.7526 -0.0495  0.3553
 7607TIP3    H144312   4.740   2.082   2.246  2.0687  1.7199  0.6233
 7607TIP3    H244313   4.650   2.186   2.310  0.6942  1.1512 -0.3232
 7608TIP3   OH244314   3.163   0.543  13.522  0.6777 -0.1213  0.6646
 7608TIP3    H144315   3.236   0.517  13.577  1.7798  0.9681 -0.2208
 7608TIP3    H244316   3.179   0.636  13.503 -0.6710  0.0150  0.0515
 7609TIP3   OH244317   3.127   5.588   1.010  0.1755  0.0062 -1.1265
 7609TIP3    H144318   3.128   5.532   1.087  2.3262  1.9199  0.3581
 7609TIP3    H244319   3.175   5.538   0.943 -0.3169 -0.9996 -0.7516
 7610TIP3   OH244320   5.729   0.126   2.830  0.4780  0.2723  0.0179
 7610TIP3    H144321   5.680   0.045   2.841  1.4544 -0.4693 -0.8730
 7610TIP3    H244322   5.821   0.098   2.828  0.9078  1.5410  0.9580
 7611TIP3   OH244323   2.805   6.437  16.069 -0.4015 -0.1283 -0.4143
 7611TIP3    H144324   2.887   6.417  16.114 -1.0891 -0.7550  0.6018
 7611TIP3    H244325   2.811   6.530  16.049  1.3880 -0.5589 -2.1249
 7612TIP3   OH244326   1.998   5.984   5.669 -0.1107  0.1385 -0.0282
 7612TIP3    H144327   1.913   5.987   5.624 -0.7635 -1.1267  1.0618
 7612TIP3    H244328   2.008   5.893   5.695  1.1132  0.4822  0.7644
 7613TIP3   OH244329   6.316   0.708  12.302  0.0258  0.1985  0.2108
 7613TIP3    H144330   6.305   0.635  12.240 -0.1572 -0.4974  1.0504
 7613TIP3    H244331   6.337   0.783  12.246  0.3358 -0.5153 -0.6578
 7614TIP3   OH244332   2.402   2.413  11.850  0.1271 -0.4514 -0.1677
 7614TIP3    H144333   2.419   2.320  11.835  0.1701 -0.7412  1.4697
 7614TIP3    H244334   2.461   2.436  11.922 -1.2568  0.3267  0.7726
 7615TIP3   OH244335   3.382   2.705  12.085  0.0320 -0.2501 -0.5466
 7615TIP3    H144336   3.366   2.766  12.157 -1.7916 -1.1626 -0.1113
 7615TIP3    H244337   3.473   2.719  12.060  0.8274 -0.1680  2.1817
 7616TIP3   OH244338   6.765   5.161  16.514  0.2060 -0.3334 -0.4027
 7616TIP3    H144339   6.719   5.200  16.589  0.6315  0.9042 -0.7635
 7616TIP3    H244340   6.853   5.141  16.548  0.1922 -0.3781 -0.3939
 7617TIP3   OH244341   2.462   6.327   4.594  0.0334  0.3054 -0.4517
 7617TIP3    H144342   2.464   6.416   4.630 -0.0871 -0.1148  0.6237
 7617TIP3    H244343   2.371   6.299   4.603  0.1559 -0.0776 -0.4090
 7618TIP3   OH244344   4.105   6.577  11.783 -0.2637  0.1128 -0.3326
 7618TIP3    H144345   4.029   6.631  11.803  0.6873  1.3030  0.1662
 7618TIP3    H244346   4.088   6.544  11.695 -0.8116  1.3280 -0.7035
 7619TIP3   OH244347   4.233   1.515  12.433 -0.4323 -0.1844  0.1653
 7619TIP3    H144348   4.231   1.446  12.367 -2.4810 -0.9930  1.0001
 7619TIP3    H244349   4.199   1.592  12.387 -1.7194 -0.7066  0.2038
 7620TIP3   OH244350   6.190   4.011   1.301  0.0773 -0.1513  0.1591
 7620TIP3    H144351   6.099   4.028   1.327  0.1965 -1.5980  1.7212
 7620TIP3    H244352   6.205   3.919   1.324  2.1395  0.2433  0.6424
 7621TIP3   OH244353   0.073   0.842  16.310 -0.2143 -0.1062 -0.0607
 7621TIP3    H144354   0.068   0.748  16.329 -0.8325  0.0872  0.7951
 7621TIP3    H244355   0.038   0.850  16.221  3.2566 -1.0908 -1.7067
 7622TIP3   OH244356   4.480   4.652  11.109  0.1051  0.3326  0.1204
 7622TIP3    H144357   4.432   4.690  11.183  0.3959  0.7896  0.0819
 7622TIP3    H244358   4.572   4.669  11.130  0.2119  0.0919 -0.1474
 7623TIP3   OH244359   4.370   6.523  13.696  0.3804  0.6536  0.1951
 7623TIP3    H144360   4.451   6.567  13.669 -0.3368  1.4058 -0.7983
 7623TIP3    H244361   4.303   6.560  13.639 -0.6933  0.1415  1.1019
 7624TIP3   OH244362   2.370   6.408   1.972 -0.2784  0.5551 -0.0040
 7624TIP3    H144363   2.332   6.372   1.892 -1.4315  0.1590  0.6920
 7624TIP3    H244364   2.398   6.332   2.022  0.1097  0.7829  0.1322
 7625TIP3   OH244365   6.710   6.374  11.281  0.2397 -0.1098  0.2777
 7625TIP3    H144366   6.653   6.297  11.279 -0.2171  0.2299 -1.6141
 7625TIP3    H244367   6.779   6.354  11.217  1.2538  0.2335  1.2424
 7626TIP3   OH244368   1.884   5.107   0.671 -0.2610 -0.3734 -0.1062
 7626TIP3    H144369   1.857   5.031   0.722 -2.3199  1.0288  1.0196
 7626TIP3    H244370   1.949   5.151   0.726  0.9800 -1.2923 -0.7864
 7627TIP3   OH244371   5.824   5.276  13.877 -0.2023 -0.2319  0.2759
 7627TIP3    H144372   5.785   5.224  13.948 -0.1896  0.3109  0.6886
 7627TIP3    H244373   5.749   5.311  13.830 -0.2139  0.1332  0.5639
 7628TIP3   OH244374   1.762   3.168   3.386 -0.0340 -0.2987  0.9848
 7628TIP3    H144375   1.702   3.119   3.331  0.6007 -1.2043  1.0819
 7628TIP3    H244376   1.724   3.163   3.474 -0.5544  0.3545  0.8090
 7629TIP3   OH244377   5.510   0.415   4.728 -0.2828 -0.1290  0.8915
 7629TIP3    H144378   5.598   0.445   4.748  1.4039 -2.3078 -2.3405
 7629TIP3    H244379   5.503   0.329   4.770  0.1930 -1.0928 -0.9092
 7630TIP3   OH244380   1.919   1.880  14.804  0.2629 -0.7479 -0.3281
 7630TIP3    H144381   1.869   1.927  14.870  1.6680 -0.1772  0.3793
 7630TIP3    H244382   2.010   1.907  14.819  0.9532 -2.6600 -0.7601
 7631TIP3   OH244383   4.799   0.738   1.754 -0.5382 -0.1986  0.3594
 7631TIP3    H144384   4.704   0.740   1.743 -0.6094 -2.8553 -0.0975
 7631TIP3    H244385   4.815   0.666   1.815  1.2019  0.0661  0.2871
 7632TIP3   OH244386   1.689   2.214  16.656 -0.2140  0.7516 -0.2150
 7632TIP3    H144387   1.681   2.265  16.737 -3.7132  0.2119 -0.0728
 7632TIP3    H244388   1.755   2.148  16.675  1.4387  2.6548  0.9967
 7633TIP3   OH244389   3.406   0.003  12.143  0.0937 -0.4512 -0.3393
 7633TIP3    H144390   3.389  -0.040  12.227  0.5866 -0.6014 -0.3106
 7633TIP3    H244391   3.360   0.087  12.149 -0.2886 -0.6733 -0.1170
 7634TIP3   OH244392   4.697   2.524   0.790 -0.2548 -0.2922  0.2576
 7634TIP3    H144393   4.612   2.517   0.832 -0.1344  0.3235  0.6204
 7634TIP3    H244394   4.729   2.611   0.816 -0.7505  0.7047 -2.1263
 7635TIP3   OH244395   1.340   0.551   2.845  0.2124  0.1209  0.1474
 7635TIP3    H144396   1.394   0.628   2.862  0.6110  0.0918 -0.8854
 7635TIP3    H244397   1.387   0.478   2.886  0.8485  0.1334 -0.5371
 7636TIP3   OH244398   4.068   4.083   3.074  0.4416 -0.2756 -0.3148
 7636TIP3    H144399   3.989   4.126   3.106  0.8832 -0.1999  0.6908
 7636TIP3    H244400   4.126   4.079   3.149  1.1850 -0.8439 -0.8996
 7637TIP3   OH244401   5.997   0.169  15.473  0.0141  0.7381 -0.0302
 7637TIP3    H144402   6.010   0.077  15.496  0.7912  1.0760  0.9302
 7637TIP3    H244403   5.906   0.174  15.443  0.2742 -0.5404 -1.1211
 7638TIP3   OH244404   3.662   5.492  16.332 -0.5218  0.4817  0.5028
 7638TIP3    H144405   3.585   5.439  16.355 -0.7413  0.6211  0.0986
 7638TIP3    H244406   3.718   5.431  16.284 -0.4610  0.4286  0.6398
 7639TIP3   OH244407   6.228   1.207   4.214 -0.7718 -0.2103 -0.2008
 7639TIP3    H144408   6.159   1.252   4.264 -1.1562 -0.9901 -0.0188
 7639TIP3    H244409   6.180   1.158   4.148 -0.3193  0.0184 -0.7045
 7640TIP3   OH244410   5.077   1.975  13.513 -0.7495  0.1609  0.1725
 7640TIP3    H144411   5.067   2.008  13.424  1.5068 -1.0433 -0.6054
 7640TIP3    H244412   5.068   2.053  13.568 -0.8518  1.1654 -1.1994
 7641TIP3   OH244413   5.523   2.009  11.883  0.1831 -0.2069 -0.3764
 7641TIP3    H144414   5.489   2.098  11.873  0.2100 -0.3131 -1.5539
 7641TIP3    H244415   5.464   1.968  11.947 -0.5050  0.3298 -0.6516
 7642TIP3   OH244416   4.272   4.916   0.479 -0.1873  0.0501 -0.0750
 7642TIP3    H144417   4.213   4.946   0.548 -0.5134  1.8930 -1.1068
 7642TIP3    H244418   4.360   4.921   0.518 -0.4551 -0.0442  0.5549
 7643TIP3   OH244419   5.014   3.184   5.655 -0.5563 -0.2674 -0.2707
 7643TIP3    H144420   4.981   3.134   5.730 -0.6493 -1.8595 -1.3344
 7643TIP3    H244421   5.052   3.119   5.597 -1.6608  0.7355 -2.2303
 7644TIP3   OH244422   0.528   6.079  15.788  0.3720 -0.5617  0.1050
 7644TIP3    H144423   0.523   6.151  15.725 -0.0390 -1.9302 -1.4889
 7644TIP3    H244424   0.614   6.039  15.773  0.1733 -1.0546  0.2550
 7645TIP3   OH244425   3.353   6.335   2.806  0.0191  0.0426 -0.0280
 7645TIP3    H144426   3.424   6.367   2.750  0.8230 -0.6502  0.5657
 7645TIP3    H244427   3.363   6.240   2.804 -0.5822 -0.0316  0.4748
 7646TIP3   OH244428   5.742   5.687  11.655  0.2149  0.1929  0.4120
 7646TIP3    H144429   5.673   5.704  11.591 -0.4295  1.1841  1.3238
 7646TIP3    H244430   5.820   5.670  11.602 -0.2770  1.0704 -0.6442
 7647TIP3   OH244431   4.128   2.065   3.609 -0.3459  0.0576 -0.1312
 7647TIP3    H144432   4.039   2.031   3.604 -0.0061 -0.7667 -0.9329
 7647TIP3    H244433   4.130   2.117   3.689 -1.5536  0.1198 -0.1263
 7648TIP3   OH244434   3.776   1.476   3.547  0.0773 -0.4581  0.6021
 7648TIP3    H144435   3.693   1.432   3.534 -0.2789 -0.3854  2.3431
 7648TIP3    H244436   3.756   1.548   3.606  1.6561 -1.6175  2.6988
 7649TIP3   OH244437   4.656   6.403   0.615 -0.4170  0.3815  0.1238
 7649TIP3    H144438   4.635   6.463   0.544  0.4307 -0.3300 -0.7623
 7649TIP3    H244439   4.752   6.404   0.621 -0.4880  2.6144  3.2341
 7650TIP3   OH244440   5.847   2.326  15.338  0.0530 -1.0723  0.2769
 7650TIP3    H144441   5.846   2.251  15.398 -0.7069 -0.6920  0.7614
 7650TIP3    H244442   5.848   2.402  15.396  0.0573 -0.7016 -0.2047
 7651TIP3   OH244443   3.333   5.100   2.302  0.2613  0.4941 -0.5531
 7651TIP3    H144444   3.345   5.158   2.227 -3.1248  0.4964 -1.2375
 7651TIP3    H244445   3.250   5.128   2.341 -0.6579 -2.7380  0.1289
 7652TIP3   OH244446   0.508   6.747  11.959 -0.5255  0.7843 -0.2258
 7652TIP3    H144447   0.474   6.682  12.021 -0.8722  1.9876  0.8932
 7652TIP3    H244448   0.522   6.698  11.878  0.8213 -1.0608  1.0350
 7653TIP3   OH244449   3.789   1.288  15.490  0.4254  0.1245 -0.4507
 7653TIP3    H144450   3.778   1.297  15.585 -0.4612 -0.6010 -0.4739
 7653TIP3    H244451   3.883   1.272  15.479  0.4106 -0.6089  0.3725
 7654TIP3   OH244452   0.097   5.359  12.114  0.6355 -0.2304 -0.1158
 7654TIP3    H144453   0.158   5.301  12.067 -0.3020  0.3429 -2.1676
 7654TIP3    H244454   0.054   5.302  12.177  2.1377 -0.9944  0.2776
 7655TIP3   OH244455   1.719   1.909  16.486 -0.7193 -0.5441  0.4163
 7655TIP3    H144456   1.758   1.862  16.413 -0.1106 -0.1772  0.5026
 7655TIP3    H244457   1.793   1.947  16.533 -1.1918  0.3858  0.4296
 7656TIP3   OH244458   0.224   2.134  11.040 -0.3849  0.1116  0.8965
 7656TIP3    H144459   0.128   2.130  11.041 -0.4075 -2.9003 -1.2301
 7656TIP3    H244460   0.252   2.045  11.060  2.0891  1.1282  2.4850
 7657TIP3   OH244461   0.500   2.184  12.392  0.1079  0.1899 -0.1970
 7657TIP3    H144462   0.530   2.259  12.443  0.4291  0.1716 -0.3526
 7657TIP3    H244463   0.580   2.147  12.354  0.0995 -0.9135  0.7916
 7658TIP3   OH244464   4.417   5.543  13.947  0.2061 -0.1873  0.0930
 7658TIP3    H144465   4.328   5.509  13.953 -0.2041  0.8907  0.3130
 7658TIP3    H244466   4.438   5.574  14.035  0.4882  0.3216 -0.1470
 7659TIP3   OH244467   1.168   2.039  13.733  0.0269 -0.2956 -0.1205
 7659TIP3    H144468   1.100   2.104  13.751  0.2036 -0.4169  1.0405
 7659TIP3    H244469   1.145   1.965  13.789  1.7734  0.1186  1.2178
 7660TIP3   OH244470   6.153   5.009   3.008 -0.3524  0.4067  0.1092
 7660TIP3    H144471   6.162   5.031   3.100 -0.8877 -0.6690  0.4359
 7660TIP3    H244472   6.085   4.943   3.005 -0.0010  0.0577 -1.0078
 7661TIP3   OH244473   6.116   6.137  15.521 -0.0986 -0.1553 -0.1253
 7661TIP3    H144474   6.106   6.158  15.614  0.8164  3.8674 -0.7304
 7661TIP3    H244475   6.204   6.099  15.514  0.6458  1.3782  0.4872
 7662TIP3   OH244476   1.382   2.901   3.408  0.6572 -0.0119  0.1479
 7662TIP3    H144477   1.436   2.826   3.435  0.2136 -0.5693 -0.4910
 7662TIP3    H244478   1.300   2.862   3.379  0.1108  0.7935  0.5902
 7663TIP3   OH244479   5.140   0.044   1.569 -0.4347 -0.6875 -0.1741
 7663TIP3    H144480   5.104   0.078   1.487 -1.4198 -1.2883 -0.0099
 7663TIP3    H244481   5.233   0.063   1.564 -0.6243  0.0880 -1.0364
 7664TIP3   OH244482   1.327   5.356  15.718  0.0747  0.1867 -0.0409
 7664TIP3    H144483   1.338   5.305  15.638 -2.5249 -0.8912  0.1930
 7664TIP3    H244484   1.336   5.293  15.789 -0.0500  0.6667  0.4110
 7665TIP3   OH244485   2.382   2.521  14.990  0.4455 -0.4627 -0.4190
 7665TIP3    H144486   2.465   2.482  14.961 -0.0588 -1.4507 -0.5801
 7665TIP3    H244487   2.316   2.478  14.936 -0.2071  0.0465 -0.0315
 7666TIP3   OH244488   4.749   5.767  13.445 -0.5385 -0.2693  0.2653
 7666TIP3    H144489   4.694   5.802  13.375  1.0197  1.8408 -0.0023
 7666TIP3    H244490   4.774   5.844  13.496  2.6512 -1.0021  0.0087
 7667TIP3   OH244491   1.485   2.127  12.646 -0.3358 -0.0823  0.3808
 7667TIP3    H144492   1.569   2.157  12.612 -0.7720 -1.2748 -1.9794
 7667TIP3    H244493   1.502   2.039  12.679 -0.8865 -0.9807 -1.5728
 7668TIP3   OH244494   6.126   3.770  12.522 -0.1906  0.1455  0.8286
 7668TIP3    H144495   6.180   3.691  12.528  2.0643  1.6167  0.8135
 7668TIP3    H244496   6.061   3.759  12.591  0.2700 -1.5706  1.0397
 7669TIP3   OH244497   3.511   5.442   1.733 -0.0394 -0.1319  0.3184
 7669TIP3    H144498   3.493   5.509   1.799 -0.6527  0.6296 -0.5989
 7669TIP3    H244499   3.606   5.431   1.735  0.3565  2.3933 -1.0192
 7670TIP3   OH244500   6.017   3.378   5.390  0.2612 -0.0684  0.3502
 7670TIP3    H144501   5.986   3.428   5.466 -3.0847 -2.4798  0.8025
 7670TIP3    H244502   5.993   3.288   5.410 -0.8976 -0.8311 -3.5655
 7671TIP3   OH244503   5.618   5.676  15.712 -0.0432 -0.9883  0.4848
 7671TIP3    H144504   5.632   5.583  15.729 -0.1263 -0.8397  1.3794
 7671TIP3    H244505   5.540   5.678  15.656 -0.6812 -1.4002  1.3469
 7672TIP3   OH244506   4.866   5.699  16.352  0.1207 -0.2525 -0.5553
 7672TIP3    H144507   4.829   5.712  16.439  0.0341 -1.0953 -0.4543
 7672TIP3    H244508   4.899   5.609  16.353  2.3407  0.4985 -0.5776
 7673TIP3   OH244509   1.601   5.766   5.264  0.2609 -0.6089 -0.3720
 7673TIP3    H144510   1.548   5.804   5.333  1.5807 -0.9468  0.8638
 7673TIP3    H244511   1.562   5.800   5.183 -0.3212  1.0970  0.5668
 7674TIP3   OH244512   5.813   2.405  15.987 -0.6256 -0.6255  0.5033
 7674TIP3    H144513   5.895   2.357  15.998  0.1747  0.8274  1.1717
 7674TIP3    H244514   5.786   2.426  16.076 -1.7610 -1.1261  0.2887
 7675TIP3   OH244515   1.887   0.406  14.246 -0.3511  0.1234 -0.6868
 7675TIP3    H144516   1.817   0.439  14.190 -1.4695 -0.1930  0.4731
 7675TIP3    H244517   1.857   0.320  14.274  0.4340  0.0376 -0.0613
 7676TIP3   OH244518   5.477   6.300   6.012  0.4847  0.4293 -0.2613
 7676TIP3    H144519   5.435   6.370   5.962 -1.3591 -0.0718  0.5110
 7676TIP3    H244520   5.515   6.344   6.088  1.1814  0.8615 -0.8525
 7677TIP3   OH244521   0.000   2.614   5.221 -0.3964  0.0173 -0.9235
 7677TIP3    H144522   0.064   2.543   5.231  0.0527  0.7432  2.1876
 7677TIP3    H244523   0.043   2.690   5.259 -1.4234  1.6890 -2.9387
 7678TIP3   OH244524   3.901   1.553   4.799  1.0475 -0.1410 -0.3535
 7678TIP3    H144525   3.856   1.539   4.882  1.1544 -0.6714 -0.3841
 7678TIP3    H244526   3.837   1.599   4.745  1.0753  0.4644  0.1118
 7679TIP3   OH244527   1.432   4.976  16.505  0.1237  0.0204  0.1849
 7679TIP3    H144528   1.407   4.949  16.416 -1.2000  1.4961  0.0609
 7679TIP3    H244529   1.351   4.972  16.555  0.9705 -1.3565  1.5250
 7680TIP3   OH244530   4.138   1.692   4.824 -0.0250 -0.4904  0.1765
 7680TIP3    H144531   4.211   1.631   4.837  0.2367 -0.4715 -1.0124
 7680TIP3    H244532   4.061   1.636   4.819  0.3321 -0.8742 -1.9100
 7681TIP3   OH244533   5.622   1.568   1.180 -0.0179 -0.3791 -0.4065
 7681TIP3    H144534   5.596   1.658   1.160  0.9799  0.0469  0.1135
 7681TIP3    H244535   5.551   1.534   1.234 -0.0140  0.3994  0.1140
 7682TIP3   OH244536   5.049   6.133   5.479 -0.5146 -0.9458  0.8649
 7682TIP3    H144537   5.132   6.157   5.437 -0.5964 -0.5809  0.9047
 7682TIP3    H244538   5.021   6.213   5.523 -1.9013 -0.4248 -0.8289
 7683TIP3   OH244539   2.317   5.323  15.096 -0.2941 -0.2016 -0.8436
 7683TIP3    H144540   2.336   5.399  15.041  0.7460 -1.3488 -2.1395
 7683TIP3    H244541   2.224   5.305  15.079 -0.0997 -0.2743 -1.9171
 7684TIP3   OH244542   4.141   6.396   0.504 -0.0705  0.0984  0.8490
 7684TIP3    H144543   4.077   6.443   0.451 -0.5787 -0.8530  0.5840
 7684TIP3    H244544   4.099   6.387   0.590 -0.1247 -0.1529  0.7992
 7685TIP3   OH244545   4.553   0.932  11.825  0.2829 -0.1269 -0.2638
 7685TIP3    H144546   4.518   0.917  11.913  1.5467  2.3349  0.7609
 7685TIP3    H244547   4.482   0.908  11.766 -1.1483 -0.3953  1.4947
 7686TIP3   OH244548   6.170   4.657   5.181  0.3898 -0.2095 -0.0998
 7686TIP3    H144549   6.149   4.696   5.096 -1.7646  0.6442  0.7686
 7686TIP3    H244550   6.086   4.649   5.226  1.3335 -1.7416  1.5174
 7687TIP3   OH244551   0.210   3.054  14.455 -0.0989 -0.0104 -0.0165
 7687TIP3    H144552   0.214   3.119  14.526  1.3488 -0.4489  0.3350
 7687TIP3    H244553   0.243   2.973  14.495  3.5869  0.3776 -1.8229
 7688TIP3   OH244554   4.268   4.701  15.163  0.6568 -0.4897  0.1566
 7688TIP3    H144555   4.328   4.648  15.215 -0.4590 -0.5699  1.4172
 7688TIP3    H244556   4.182   4.686  15.202  0.1733  1.5619  0.0093
 7689TIP3   OH244557   6.687   4.614   5.670 -0.1683  0.0124 -0.2457
 7689TIP3    H144558   6.610   4.592   5.617 -0.0284 -2.1690  0.3604
 7689TIP3    H244559   6.717   4.530   5.704  1.9380  0.9332  0.3045
 7690TIP3   OH244560   0.820   1.396   1.337 -0.4608 -0.0903  0.3753
 7690TIP3    H144561   0.904   1.352   1.340  0.8764  2.2835  0.2892
 7690TIP3    H244562   0.764   1.337   1.287  0.9795 -1.9388  0.8292
 7691TIP3   OH244563   1.511   6.783   3.332 -0.1292  0.3885 -0.1311
 7691TIP3    H144564   1.521   6.692   3.361  0.0561  0.5841  0.4288
 7691TIP3    H244565   1.581   6.831   3.378  1.0213  0.4987 -1.8851
 7692TIP3   OH244566   2.469   2.803   4.062 -0.2313 -0.2912  0.3650
 7692TIP3    H144567   2.378   2.815   4.032 -0.7590 -1.5502  1.3451
 7692TIP3    H244568   2.466   2.721   4.112  1.4040 -0.2027  0.6371
 7693TIP3   OH244569   6.560   1.526  14.538  0.9199  0.1213 -0.5661
 7693TIP3    H144570   6.631   1.467  14.566  0.2240 -0.0695  0.8917
 7693TIP3    H244571   6.578   1.608  14.583  0.0058 -0.0576  0.1607
 7694TIP3   OH244572   0.210   4.349  17.029  0.4278 -0.1517 -0.0789
 7694TIP3    H144573   0.223   4.435  16.988 -0.9074 -0.7380 -1.8641
 7694TIP3    H244574   0.274   4.292  16.985  0.0541 -0.4507 -0.2435
 7695TIP3   OH244575   5.653   2.053  17.027 -0.0663  0.7704 -0.1133
 7695TIP3    H144576   5.597   2.083  17.098  0.6700  1.5354  0.1649
 7695TIP3    H244577   5.602   2.071  16.947 -1.7524 -1.9301  0.2378
 7696TIP3   OH244578   6.644   2.932  15.689  0.3368  0.0188  0.1070
 7696TIP3    H144579   6.648   2.848  15.644 -0.1770  0.5996 -1.0601
 7696TIP3    H244580   6.553   2.961  15.680  0.4444  0.5873  0.7102
 7697TIP3   OH244581   0.442   4.047  13.585 -0.4892 -0.0325 -0.1048
 7697TIP3    H144582   0.379   4.112  13.553  0.1950 -0.0981 -1.6972
 7697TIP3    H244583   0.527   4.086  13.568 -0.0202 -1.7014 -2.1117
 7698TIP3   OH244584   2.872   1.945  15.347 -0.3573 -0.7001 -0.1590
 7698TIP3    H144585   2.832   1.890  15.414  1.5645 -1.7769  0.1626
 7698TIP3    H244586   2.938   1.996  15.394 -0.1710 -0.1799 -0.9614
 7699TIP3   OH244587   6.121   2.809   1.843  0.0910 -0.2154  0.0183
 7699TIP3    H144588   6.100   2.836   1.753  2.4363 -0.4440 -0.6459
 7699TIP3    H244589   6.195   2.750   1.834  0.6137  0.0334  2.1542
 7700TIP3   OH244590   1.839   0.299   2.841 -0.2223 -0.4883 -1.2141
 7700TIP3    H144591   1.871   0.362   2.905 -0.0293 -2.0963  0.3328
 7700TIP3    H244592   1.872   0.332   2.757  1.0740  0.6930 -0.2898
 7701TIP3   OH244593   6.392   1.234   4.753 -0.3901 -0.4818 -0.0734
 7701TIP3    H144594   6.426   1.145   4.767  0.3349 -0.2333 -0.2270
 7701TIP3    H244595   6.378   1.269   4.840 -1.1664 -0.9265 -0.0106
 7702TIP3   OH244596   0.171   5.019   5.577 -0.2674  0.6916 -0.1960
 7702TIP3    H144597   0.091   5.017   5.526 -0.9180  0.0645  0.8090
 7702TIP3    H244598   0.147   4.979   5.661  0.9252  1.1005  0.3644
 7703TIP3   OH244599   0.273   5.847   3.077  0.0043  0.3152 -0.7959
 7703TIP3    H144600   0.223   5.788   3.021  1.7441  0.1597 -2.2659
 7703TIP3    H244601   0.231   5.841   3.163 -1.0914 -1.4998 -1.4207
 7704TIP3   OH244602   6.236   2.918  14.106 -0.0898  0.4835 -0.0791
 7704TIP3    H144603   6.151   2.880  14.127 -0.5045  0.1872 -2.0905
 7704TIP3    H244604   6.238   3.002  14.152 -0.5815 -0.4068  1.6501
 7705TIP3   OH244605   4.885   3.855   5.339 -0.6637  0.1606  0.4910
 7705TIP3    H144606   4.802   3.895   5.363 -1.1315 -0.1077 -0.6566
 7705TIP3    H244607   4.947   3.928   5.338 -1.0967  0.5284  0.3394
 7706TIP3   OH244608   2.286   5.593   3.455 -0.1670 -0.0313 -0.1413
 7706TIP3    H144609   2.208   5.635   3.491 -1.0721 -0.2963 -1.6742
 7706TIP3    H244610   2.272   5.500   3.469  0.0220 -0.0612 -0.1428
 7707TIP3   OH244611   5.065   2.387  12.657  0.4532  0.4556  0.1780
 7707TIP3    H144612   4.997   2.364  12.595  0.8879 -1.6573  0.4132
 7707TIP3    H244613   5.018   2.422  12.733 -0.3565 -0.5044  0.1374
 7708TIP3   OH244614   3.753   6.031  13.431 -0.3117  0.1063  0.0289
 7708TIP3    H144615   3.764   5.950  13.383 -2.0019 -0.4258  0.4556
 7708TIP3    H244616   3.748   6.099  13.364 -0.0618 -0.2954 -0.3957
 7709TIP3   OH244617   6.257   4.647   2.033  0.2671 -0.4011  0.1767
 7709TIP3    H144618   6.186   4.687   2.085  0.0636 -0.6408  0.0888
 7709TIP3    H244619   6.336   4.662   2.085  0.8783  3.3921 -1.5167
 7710TIP3   OH244620   1.002   2.638   5.736 -0.4254  0.6421 -0.0740
 7710TIP3    H144621   1.008   2.678   5.823 -0.2055 -0.3750  0.4065
 7710TIP3    H244622   1.025   2.707   5.675  1.3719  0.8770  0.8103
 7711TIP3   OH244623   1.159   1.634   3.455  0.2922 -0.0597 -0.2070
 7711TIP3    H144624   1.149   1.728   3.442 -2.2392 -0.3281 -0.5967
 7711TIP3    H244625   1.189   1.601   3.370 -2.2073  0.0088 -1.1800
 7712TIP3   OH244626   3.470   2.236   3.043  0.0220 -0.6122 -0.1096
 7712TIP3    H144627   3.449   2.166   2.981  0.2887 -1.2935  0.5641
 7712TIP3    H244628   3.431   2.208   3.126  0.9276 -0.4071  0.3927
 7713TIP3   OH244629   4.876   4.800   2.688  0.1009  0.0842 -0.1065
 7713TIP3    H144630   4.954   4.748   2.668 -1.1025 -1.8097 -0.1182
 7713TIP3    H244631   4.905   4.861   2.756  1.4080 -1.1240  0.4757
 7714TIP3   OH244632   1.902   4.817  13.965 -0.1275 -0.1421 -0.0801
 7714TIP3    H144633   1.818   4.841  14.003  0.1358 -0.5172  0.7671
 7714TIP3    H244634   1.883   4.802  13.872 -0.9447  0.0092  0.0556
 7715TIP3   OH244635   3.777   0.692   4.647  0.0195  0.1842 -0.1574
 7715TIP3    H144636   3.871   0.680   4.636  0.2520  2.4994 -1.2916
 7715TIP3    H244637   3.767   0.784   4.672 -1.8922 -0.2780  0.9817
 7716TIP3   OH244638   3.853   5.735   0.307  0.2228 -0.2677 -0.0455
 7716TIP3    H144639   3.833   5.705   0.396 -3.5329 -3.0275 -1.5541
 7716TIP3    H244640   3.768   5.751   0.267  1.7824  1.2215 -3.1112
 7717TIP3   OH244641   0.205   6.445   5.507 -0.1417 -0.5715 -0.0351
 7717TIP3    H144642   0.241   6.380   5.446 -0.2830 -0.6803 -0.0045
 7717TIP3    H244643   0.227   6.410   5.593  1.0881  0.1699 -0.0265
 7718TIP3   OH244644   3.932   6.140  15.295  0.0612 -0.0121 -0.3298
 7718TIP3    H144645   3.957   6.167  15.384  1.6477 -1.2573 -0.3473
 7718TIP3    H244646   3.966   6.209  15.239 -0.7474  0.6665 -0.0092
 7719TIP3   OH244647   0.167   1.761   3.708 -0.0790  0.1797 -0.0711
 7719TIP3    H144648   0.134   1.805   3.630 -0.6993  1.7707  1.0424
 7719TIP3    H244649   0.248   1.719   3.679  0.2464  1.5920 -1.3462
 7720TIP3   OH244650   5.990   2.307   0.425 -0.0810  0.5088 -0.1958
 7720TIP3    H144651   6.052   2.310   0.353 -0.3117 -1.2758 -0.5263
 7720TIP3    H244652   5.916   2.257   0.390 -1.0872  1.3628  0.6479
 7721TIP3   OH244653   2.132   0.763   0.163 -0.1209  0.1622  0.4619
 7721TIP3    H144654   2.219   0.801   0.152  0.6529 -0.9064  2.3525
 7721TIP3    H244655   2.074   0.821   0.114  1.5141  1.4573 -0.0385
 7722TIP3   OH244656   3.969   5.378  16.724  0.1260  0.1819  0.4443
 7722TIP3    H144657   3.949   5.418  16.639 -0.1153  0.3261  0.5684
 7722TIP3    H244658   3.957   5.284  16.710 -2.9725  0.3885  1.1183
 7723TIP3   OH244659   4.207   5.065   2.904 -0.1652 -0.4182  0.1084
 7723TIP3    H144660   4.135   5.099   2.958 -1.0084 -0.9758 -0.6523
 7723TIP3    H244661   4.195   4.970   2.905  0.4552 -0.5041 -0.1928
 7724TIP3   OH244662   1.222   3.881  12.869  0.0977 -0.5958  0.2035
 7724TIP3    H144663   1.293   3.880  12.934 -0.0228  0.2912  0.3663
 7724TIP3    H244664   1.149   3.837  12.913 -0.2431  0.7104  1.0004
 7725TIP3   OH244665   4.431   6.260   5.047 -0.3694  0.0392  0.3048
 7725TIP3    H144666   4.522   6.285   5.034 -0.6029  0.5495 -0.4212
 7725TIP3    H244667   4.420   6.181   4.993 -0.8197  1.0335 -1.1400
 7726TIP3   OH244668   4.518   1.365  11.679  0.1504  0.5963  0.2344
 7726TIP3    H144669   4.432   1.325  11.688 -0.4367  0.8080 -3.1917
 7726TIP3    H244670   4.579   1.299  11.712 -1.2202  0.8609  3.7614
 7727TIP3   OH244671   3.303   1.728  13.082 -0.3843 -0.1765  0.2984
 7727TIP3    H144672   3.296   1.644  13.128  0.3246 -0.1421  0.4808
 7727TIP3    H244673   3.290   1.706  12.990 -0.1912 -0.4861  0.3454
 7728TIP3   OH244674   2.354   0.996   2.095  0.0576  0.4733 -0.5777
 7728TIP3    H144675   2.305   1.029   2.020 -0.2825  0.3018 -0.4338
 7728TIP3    H244676   2.327   0.904   2.102  1.0855  0.1241 -1.0515
 7729TIP3   OH244677   3.260   1.740   0.292 -0.3720  0.0080 -0.3051
 7729TIP3    H144678   3.214   1.756   0.209  0.1240 -0.5915 -0.7054
 7729TIP3    H244679   3.198   1.691   0.345 -0.0672 -1.1550 -0.9947
 7730TIP3   OH244680   5.957   2.206   4.549  0.3982  0.2991  0.0329
 7730TIP3    H144681   5.899   2.279   4.571 -2.0840 -1.4781 -0.2836
 7730TIP3    H244682   6.012   2.240   4.478 -0.9881  1.7356 -0.4177
 7731TIP3   OH244683   4.518   0.470   4.834  0.2290  0.0797 -0.0801
 7731TIP3    H144684   4.536   0.517   4.753  1.0754 -0.7798 -0.4011
 7731TIP3    H244685   4.551   0.382   4.819 -0.8620 -0.4868  0.6989
 7732TIP3   OH244686   6.510   3.153  14.171  0.1196  0.0665  0.1384
 7732TIP3    H144687   6.458   3.130  14.248  0.0015 -0.0892  0.0098
 7732TIP3    H244688   6.565   3.077  14.155  2.1263  1.0630  1.7140
 7733TIP3   OH244689   4.608   1.545  15.976  0.0800  0.0853 -0.2291
 7733TIP3    H144690   4.517   1.540  16.005  0.4335 -1.0824  0.8048
 7733TIP3    H244691   4.656   1.576  16.053  0.4852  1.4014 -0.9813
 7734TIP3   OH244692   4.807   3.354   4.809  0.2200 -0.2006  0.4112
 7734TIP3    H144693   4.811   3.449   4.804  0.1224 -0.2523 -0.8941
 7734TIP3    H244694   4.744   3.328   4.741  2.1195 -1.3238 -1.0201
 7735TIP3   OH244695   4.711   4.116   3.123 -0.4003  0.2089  0.1424
 7735TIP3    H144696   4.715   4.208   3.097  0.9378  0.2749  0.4820
 7735TIP3    H244697   4.738   4.067   3.045  0.0612  0.1839  0.3149
 7736TIP3   OH244698   6.237   2.910   3.206 -0.0881 -0.3001  0.0594
 7736TIP3    H144699   6.286   2.955   3.137  0.5576 -3.1146 -1.4878
 7736TIP3    H244700   6.305   2.874   3.263 -0.4862 -1.0020  0.0941
 7737TIP3   OH244701   4.577   5.898   4.795  0.0267 -0.0167  0.5202
 7737TIP3    H144702   4.672   5.906   4.803  0.3987 -1.7498 -1.2893
 7737TIP3    H244703   4.563   5.805   4.774 -1.9750  0.4597 -0.4539
 7738TIP3   OH244704   0.283   4.829  15.182  0.8696  0.1677 -0.3614
 7738TIP3    H144705   0.346   4.859  15.248  2.2329  1.5072 -2.1492
 7738TIP3    H244706   0.329   4.842  15.098 -1.5209  0.4750 -1.7033
 7739TIP3   OH244707   6.515   4.129  16.311  0.3676 -0.2020 -0.5280
 7739TIP3    H144708   6.606   4.116  16.337  0.1388  0.6214  0.7905
 7739TIP3    H244709   6.467   4.137  16.394 -0.7503  0.4008 -1.2047
 7740TIP3   OH244710   5.323   3.923   5.007  0.1405 -0.2825  0.0042
 7740TIP3    H144711   5.243   3.975   5.001 -1.0274 -2.1516 -1.7547
 7740TIP3    H244712   5.342   3.897   4.917  1.8988 -1.1312  0.5705
 7741TIP3   OH244713   5.775   2.664  11.473 -0.0948  0.3192 -0.2834
 7741TIP3    H144714   5.711   2.626  11.412 -2.3973  2.4195  0.6635
 7741TIP3    H244715   5.732   2.742  11.508  2.4989  1.0962  1.4772
 7742TIP3   OH244716   1.434   1.990   5.487  0.8097  0.0287 -0.0562
 7742TIP3    H144717   1.459   2.065   5.541 -1.3311  0.8074 -0.0538
 7742TIP3    H244718   1.503   1.985   5.421  2.7488 -0.0810  1.8516
 7743TIP3   OH244719   0.499   3.030   2.712 -0.2902 -0.0152 -0.0147
 7743TIP3    H144720   0.559   2.980   2.767 -0.2772  1.8694  1.8036
 7743TIP3    H244721   0.554   3.066   2.643  0.2610 -0.0560  0.4001
 7744TIP3   OH244722   5.238   2.145   1.204  0.7762  0.0863  0.0587
 7744TIP3    H144723   5.327   2.144   1.169  0.5523 -0.0971 -0.5051
 7744TIP3    H244724   5.248   2.114   1.294  1.2852  0.1078  0.0151
 7745TIP3   OH244725   1.263   6.202   3.767 -0.5684  0.3481  0.2805
 7745TIP3    H144726   1.218   6.148   3.832  1.3262 -0.5119  0.9678
 7745TIP3    H244727   1.336   6.240   3.814  0.2290  0.5784 -1.0846
 7746TIP3   OH244728   5.299   1.429  11.029  0.6724 -0.0299 -0.4321
 7746TIP3    H144729   5.274   1.500  10.969 -0.7928  0.4005  0.6399
 7746TIP3    H244730   5.376   1.464  11.075  0.1801  0.7624 -0.1690
 7747TIP3   OH244731   5.360   0.301  11.452 -0.3938 -0.3479 -0.1566
 7747TIP3    H144732   5.322   0.236  11.392  0.3892 -1.3320  0.3846
 7747TIP3    H244733   5.379   0.377  11.396  1.0495 -1.5196 -1.3626
 7748TIP3   OH244734   2.750   1.083  16.612  0.4488 -0.0179 -0.2074
 7748TIP3    H144735   2.814   1.102  16.681 -1.0853 -0.6113  1.4635
 7748TIP3    H244736   2.723   1.169  16.580  0.8399  0.2828  0.2587
 7749TIP3   OH244737   2.958   2.967  11.833  0.2313 -0.4291 -0.3832
 7749TIP3    H144738   2.892   2.915  11.786 -1.8472  2.0588 -0.4526
 7749TIP3    H244739   2.980   3.038  11.774  0.1800  0.8379  1.0547
 7750TIP3   OH244740   3.604   3.327   3.449 -0.1550 -0.6433 -0.2320
 7750TIP3    H144741   3.530   3.386   3.434 -1.1420 -1.9427 -0.5641
 7750TIP3    H244742   3.677   3.368   3.401 -0.5784  0.7491  0.2557
 7751TIP3   OH244743   5.669   1.924   5.615  0.4267 -0.4047 -0.1542
 7751TIP3    H144744   5.684   1.843   5.663 -0.0012  0.6042  1.7715
 7751TIP3    H244745   5.656   1.896   5.524 -0.6774 -2.5598  0.6078
 7752TIP3   OH244746   5.093   0.835   3.410 -0.3673  0.2623 -0.9315
 7752TIP3    H144747   5.057   0.810   3.325  0.6345 -1.4801 -0.8902
 7752TIP3    H244748   5.068   0.927   3.420 -3.4484 -0.3767 -1.5520
 7753TIP3   OH244749   4.044   3.470   0.945  0.8293  0.2319 -0.2248
 7753TIP3    H144750   4.099   3.531   0.896 -0.6537  0.2641 -1.9180
 7753TIP3    H244751   3.958   3.512   0.950  0.4818 -0.5546  0.9162
 7754TIP3   OH244752   4.991   1.067   4.430  0.1902  0.0821 -0.2934
 7754TIP3    H144753   5.038   1.074   4.513 -1.5651  0.9390  0.6704
 7754TIP3    H244754   5.006   1.151   4.386 -0.2056  0.2467 -0.1145
 7755TIP3   OH244755   0.377   5.204   0.113  0.5571  0.0258  0.5219
 7755TIP3    H144756   0.407   5.242   0.030  1.1230 -1.2191  0.1264
 7755TIP3    H244757   0.339   5.278   0.161 -3.0614  0.2336 -2.2385
 7756TIP3   OH244758   4.996   6.401  14.769  0.1029  0.2488 -0.3639
 7756TIP3    H144759   5.029   6.395  14.679 -1.6168  1.4132 -1.1310
 7756TIP3    H244760   4.964   6.313  14.789  0.7879 -0.0983 -0.7607
 7757TIP3   OH244761   6.213   4.562  16.504  0.4531  0.8788  0.0515
 7757TIP3    H144762   6.178   4.533  16.420  2.4549  0.9574 -0.8675
 7757TIP3    H244763   6.148   4.534  16.568 -0.2511 -0.8277 -1.3340
 7758TIP3   OH244764   4.410   0.769   2.996 -0.1074 -0.2523  0.5600
 7758TIP3    H144765   4.444   0.772   3.086 -0.6988 -0.8316  0.8087
 7758TIP3    H244766   4.321   0.804   3.004 -0.0342  0.0374  0.1310
 7759TIP3   OH244767   6.326   0.394  11.181  0.4035  0.2320 -0.0013
 7759TIP3    H144768   6.281   0.340  11.116  2.2933 -0.5012 -0.7899
 7759TIP3    H244769   6.358   0.470  11.132  1.2219  0.0315  0.2002
 7760TIP3   OH244770   6.557   0.241  11.895  0.2315  0.3127  0.2384
 7760TIP3    H144771   6.551   0.148  11.876 -0.0828  0.2582  0.6081
 7760TIP3    H244772   6.605   0.277  11.820  1.3259 -0.3073  0.6243
 7761TIP3   OH244773   6.477   2.696   1.453 -0.1839  0.1593 -0.0025
 7761TIP3    H144774   6.532   2.773   1.468 -1.4104  0.8525  1.1295
 7761TIP3    H244775   6.511   2.630   1.514 -0.2127  0.3705  0.2434
 7762TIP3   OH244776   1.476   4.696  13.552 -0.1260 -0.5631 -0.6458
 7762TIP3    H144777   1.552   4.656  13.593  1.0304  1.1839 -1.0021
 7762TIP3    H244778   1.403   4.676  13.612  1.0634 -0.1886  1.0067
 7763TIP3   OH244779   1.012   5.299   0.319 -0.5234 -0.2013 -0.5833
 7763TIP3    H144780   1.057   5.323   0.238  1.4971  1.0334  0.8010
 7763TIP3    H244781   1.031   5.206   0.330  0.2366 -0.0983 -0.9294
 7764TIP3   OH244782   4.512   0.454   4.269  0.6540  0.2740 -0.0370
 7764TIP3    H144783   4.467   0.445   4.353  1.6740  0.0661  0.4953
 7764TIP3    H244784   4.605   0.457   4.291  1.0128 -0.9628 -1.2364
 7765TIP3   OH244785   1.236   6.490  15.130  0.6656 -0.2246  0.4054
 7765TIP3    H144786   1.266   6.399  15.137  3.0289  0.4477 -0.1675
 7765TIP3    H244787   1.183   6.491  15.050  1.5577 -0.8835 -0.2153
 7766TIP3   OH244788   0.728   2.653  13.504  0.0693 -0.0631  0.2539
 7766TIP3    H144789   0.784   2.604  13.443  0.4453  1.5254 -0.7249
 7766TIP3    H244790   0.756   2.623  13.591  0.9016 -0.9209 -0.2847
 7767TIP3   OH244791   4.401   4.006   5.193 -1.0220 -0.1342  0.2023
 7767TIP3    H144792   4.458   3.985   5.118  0.2809 -1.1824  1.4345
 7767TIP3    H244793   4.330   3.942   5.187 -0.9457 -0.1931 -0.1435
 7768TIP3   OH244794   2.321   2.948   0.913  0.6693  0.4977  0.1909
 7768TIP3    H144795   2.274   2.965   0.995  0.1338  0.8344 -0.1808
 7768TIP3    H244796   2.282   2.867   0.879  1.2104  0.1028  0.4959
 7769TIP3   OH244797   1.334   1.825   1.239  0.0465  0.1775 -0.6491
 7769TIP3    H144798   1.382   1.759   1.289 -0.5505  1.0493  1.1624
 7769TIP3    H244799   1.373   1.822   1.151  0.6357 -1.9254 -0.3681
 7770TIP3   OH244800   4.721   6.133  14.907  0.5068 -0.5915  0.1597
 7770TIP3    H144801   4.705   6.105  14.998 -0.8493  0.4398  0.2636
 7770TIP3    H244802   4.669   6.072  14.854  0.5127 -0.5798  0.1406
 7771TIP3   OH244803   5.268   4.744  11.469  0.0365  0.6039  0.3489
 7771TIP3    H144804   5.282   4.732  11.563  1.5252 -1.9123 -0.1237
 7771TIP3    H244805   5.175   4.724  11.456 -0.0051  0.2264  1.1680
 7772TIP3   OH244806   3.876   3.631  15.568 -0.6593 -0.7338  0.2945
 7772TIP3    H144807   3.891   3.632  15.473 -0.9013 -1.3198  0.2494
 7772TIP3    H244808   3.938   3.566  15.602 -2.1149 -2.1726  0.2661
 7773TIP3   OH244809   2.952   0.100   2.521 -0.6130 -0.1062 -0.7167
 7773TIP3    H144810   2.937   0.192   2.545 -0.8369  0.0505 -1.4271
 7773TIP3    H244811   2.885   0.051   2.568 -1.1125  0.2081 -1.0900
 7774TIP3   OH244812   2.397   4.968   1.233  0.6189  0.5047 -0.1175
 7774TIP3    H144813   2.462   4.956   1.302  0.5108 -0.6534 -0.2117
 7774TIP3    H244814   2.314   4.972   1.280  0.3090 -2.3235 -0.2562
 7775TIP3   OH244815   2.347   3.136  16.655  0.2935 -0.1101  0.3863
 7775TIP3    H144816   2.271   3.080  16.674  0.1857 -0.3411 -0.6765
 7775TIP3    H244817   2.374   3.110  16.567  0.1917  1.5601 -0.1680
 7776TIP3   OH244818   4.386   6.019   1.504  0.5985 -0.4210 -1.0661
 7776TIP3    H144819   4.304   5.974   1.482  1.2008 -1.4543 -1.2562
 7776TIP3    H244820   4.389   6.018   1.599 -0.6763  1.6137 -0.9529
 7777TIP3   OH244821   2.834   1.752  11.282 -0.1548 -0.0125  0.2354
 7777TIP3    H144822   2.768   1.691  11.314  0.3095 -0.1040  1.0631
 7777TIP3    H244823   2.797   1.839  11.299 -0.3674 -0.0628  0.0287
 7778TIP3   OH244824   3.723   2.697   0.554 -0.3247  0.2053 -0.2241
 7778TIP3    H144825   3.695   2.788   0.556 -1.5111 -0.1539  0.4766
 7778TIP3    H244826   3.781   2.691   0.478  0.2705  1.6664  0.0910
 7779TIP3   OH244827   2.991   4.475  15.561 -0.1153 -0.0524  0.0680
 7779TIP3    H144828   2.997   4.464  15.466  0.3683 -1.2747  0.2329
 7779TIP3    H244829   3.081   4.491  15.589  0.0462 -1.7139  0.5524
 7780TIP3   OH244830   1.699   6.759   0.499  0.2466  0.3603 -0.0375
 7780TIP3    H144831   1.767   6.786   0.437 -0.8167  0.0778 -1.4042
 7780TIP3    H244832   1.626   6.818   0.480  0.3831  1.2406  2.0100
 7781TIP3   OH244833   0.479   4.837  14.667  0.6030 -0.2023  0.0171
 7781TIP3    H144834   0.571   4.854  14.685  0.6533 -1.3620  0.9198
 7781TIP3    H244835   0.479   4.760  14.610  0.1685 -0.4875  0.3987
 7782TIP3   OH244836   0.363   1.330  13.677  0.7011  0.0783 -0.4708
 7782TIP3    H144837   0.368   1.308  13.584 -2.1706 -0.5797 -0.5605
 7782TIP3    H244838   0.279   1.296  13.706  0.7714  1.7064  2.0084
 7783TIP3   OH244839   4.855   5.395  12.356 -0.2010  0.1608 -0.1435
 7783TIP3    H144840   4.833   5.473  12.408  3.4227  1.8373 -0.8379
 7783TIP3    H244841   4.856   5.427  12.266  0.3375 -0.9697 -0.5490
 7784TIP3   OH244842   0.542   2.177   2.535 -0.1179 -0.5616 -0.0379
 7784TIP3    H144843   0.489   2.111   2.492  0.3303  0.2581 -2.0003
 7784TIP3    H244844   0.607   2.201   2.469 -0.7277  2.3439  0.2860
 7785TIP3   OH244845   3.702   0.252   0.259  0.4547 -0.3697  0.2203
 7785TIP3    H144846   3.621   0.299   0.276  0.9313  0.1192  1.1980
 7785TIP3    H244847   3.765   0.288   0.321  0.9909 -1.9015  0.6116
 7786TIP3   OH244848   2.903   1.421   2.956 -0.5196 -0.2577 -0.1372
 7786TIP3    H144849   2.928   1.417   3.048  0.1278  1.3880 -0.2034
 7786TIP3    H244850   2.974   1.375   2.910 -0.5462 -0.5697  0.1308
 7787TIP3   OH244851   1.061   6.164   3.409  0.4782 -0.5322  0.2932
 7787TIP3    H144852   1.038   6.214   3.487 -0.2451  1.9209 -1.3628
 7787TIP3    H244853   1.009   6.085   3.415 -0.4869  0.1614  1.7050
 7788TIP3   OH244854   0.731   4.290   4.625 -0.1650 -0.3124  0.3556
 7788TIP3    H144855   0.787   4.219   4.655  0.2246 -0.7626 -1.3534
 7788TIP3    H244856   0.748   4.296   4.531 -2.7593 -0.2810 -0.1874
 7789TIP3   OH244857   4.376   0.038  13.625  0.2522  0.6997 -0.1004
 7789TIP3    H144858   4.458  -0.011  13.612  0.8100  0.8626  2.3721
 7789TIP3    H244859   4.322  -0.020  13.679 -1.0186  0.9097 -1.0897
 7790TIP3   OH244860   2.524   4.997  10.825  0.4407  0.1524 -0.1141
 7790TIP3    H144861   2.619   4.996  10.817  0.4012  1.1024 -0.8752
 7790TIP3    H244862   2.503   4.919  10.877  1.4099 -1.8101 -2.4453
 7791TIP3   OH244863   6.762   4.519   1.918  0.0592  0.0542  0.1321
 7791TIP3    H144864   6.829   4.587   1.907  1.4971 -1.1105  1.2423
 7791TIP3    H244865   6.695   4.541   1.854  0.5698  2.3816  0.3070
 7792TIP3   OH244866   1.776   3.477  12.513 -0.2933  0.0527 -0.3509
 7792TIP3    H144867   1.861   3.435  12.527 -0.7859 -1.3015 -1.1522
 7792TIP3    H244868   1.797   3.567  12.490  0.8711 -0.0082  0.3923
 7793TIP3   OH244869   4.507   4.852   2.937 -0.0994  0.2080 -0.1135
 7793TIP3    H144870   4.451   4.789   2.982 -2.0075  1.4361 -0.6615
 7793TIP3    H244871   4.569   4.798   2.888 -1.1068 -1.2257  0.1185
 7794TIP3   OH244872   5.374   2.487   1.332 -0.6756  0.3148  0.0836
 7794TIP3    H144873   5.386   2.411   1.390  0.4491  0.2701 -0.1816
 7794TIP3    H244874   5.392   2.563   1.388 -0.3424  0.3065 -0.0073
 7795TIP3   OH244875   5.224   4.289  12.496  0.4000  0.1639  0.2608
 7795TIP3    H144876   5.276   4.208  12.497 -2.0238 -1.5191  2.2081
 7795TIP3    H244877   5.159   4.275  12.427  0.2783  0.7031  0.2611
 7796TIP3   OH244878   3.616   5.046   0.563  0.2231 -0.5839  0.1607
 7796TIP3    H144879   3.571   4.962   0.568  0.9167 -1.1286 -1.7563
 7796TIP3    H244880   3.701   5.026   0.523  0.4398  1.0091 -0.2727
 7797TIP3   OH244881   4.404   6.792   5.206  0.1063  0.2263 -0.4464
 7797TIP3    H144882   4.417   6.716   5.149  1.4138  0.9158 -1.0982
 7797TIP3    H244883   4.419   6.868   5.150  0.0006  0.9497  0.4802
 7798TIP3   OH244884   1.533   4.069   2.896  0.5894  0.1220 -0.1373
 7798TIP3    H144885   1.540   4.082   2.801  1.7581  3.2355  0.2552
 7798TIP3    H244886   1.448   4.105   2.919  1.2284  1.4471  0.2287
 7799TIP3   OH244887   1.290   2.146   0.836  0.7044  0.0954  0.6632
 7799TIP3    H144888   1.312   2.080   0.771 -0.2824 -0.6544  1.0633
 7799TIP3    H244889   1.263   2.222   0.785 -0.2281 -0.5434  0.1760
 7800TIP3   OH244890   5.748   6.737  12.482 -0.1058 -0.0584 -0.2026
 7800TIP3    H144891   5.720   6.675  12.550 -0.3521  1.6115  1.2882
 7800TIP3    H244892   5.675   6.797  12.473  1.2428  1.8084  0.6116
 7801TIP3   OH244893   2.617   5.016   5.578  0.3411 -0.1270 -0.4557
 7801TIP3    H144894   2.699   5.045   5.539 -1.1315  1.5443 -2.5412
 7801TIP3    H244895   2.611   4.923   5.558  0.8648  0.1454 -1.9925
 7802TIP3   OH244896   2.291   5.953   2.831 -0.1798  0.3678 -0.0914
 7802TIP3    H144897   2.260   5.922   2.746 -2.1259  2.3994 -0.2345
 7802TIP3    H244898   2.381   5.922   2.837 -0.1868 -0.3600 -2.6233
 7803TIP3   OH244899   2.399   6.431  16.269 -0.1009  0.2158  0.2431
 7803TIP3    H144900   2.359   6.510  16.233 -2.2633 -0.4967  0.9402
 7803TIP3    H244901   2.371   6.430  16.361  2.2553  0.0721  1.0299
 7804TIP3   OH244902   1.209   1.785  15.009  0.2248  0.1548 -0.0989
 7804TIP3    H144903   1.297   1.798  14.973  1.0590 -3.0838  0.4192
 7804TIP3    H244904   1.209   1.834  15.091  2.2459 -1.1432  0.7568
 7805TIP3   OH244905   5.687   2.700   2.648 -0.2494 -0.0453 -0.0899
 7805TIP3    H144906   5.697   2.763   2.720 -1.8292 -0.5218  0.5836
 7805TIP3    H244907   5.656   2.753   2.575  0.5877  0.3146 -0.1915
 7806TIP3   OH244908   4.432   0.877  12.101  0.3143 -0.0069  0.1072
 7806TIP3    H144909   4.428   0.971  12.087 -2.3040 -0.3280 -2.2443
 7806TIP3    H244910   4.365   0.859  12.167 -1.0228 -0.3906 -1.2909
 7807TIP3   OH244911   4.338   5.302   2.858 -0.2071  0.1989 -0.4312
 7807TIP3    H144912   4.298   5.215   2.864  0.9159 -0.4211 -1.5307
 7807TIP3    H244913   4.410   5.299   2.921 -1.6731  1.2495  1.4029
 7808TIP3   OH244914   3.722   1.895  16.372  0.0316  0.3572  0.1905
 7808TIP3    H144915   3.713   1.902  16.467  0.5227 -1.4600  0.4173
 7808TIP3    H244916   3.662   1.961  16.337  1.5971  2.7480  1.7482
 7809TIP3   OH244917   1.478   4.658  11.434 -0.6248  0.5284 -0.3682
 7809TIP3    H144918   1.442   4.609  11.360 -0.6050 -1.9848  1.1483
 7809TIP3    H244919   1.496   4.591  11.500 -2.1863  2.7566  2.5758
 7810TIP3   OH244920   1.359   3.461  17.081 -0.6517 -0.4627  0.1143
 7810TIP3    H144921   1.421   3.513  17.029  0.8042 -0.5673  1.6726
 7810TIP3    H244922   1.273   3.488  17.048  0.1442  1.0016 -0.9069
 7811TIP3   OH244923   3.135   5.958  10.969 -0.3242 -0.0602  0.6807
 7811TIP3    H144924   3.093   5.937  10.885  1.5451 -0.7334 -0.1473
 7811TIP3    H244925   3.143   5.874  11.013  0.3970  0.0079  0.6890
 7812TIP3   OH244926   6.035   2.146   2.643 -0.1000 -0.2040  0.6784
 7812TIP3    H144927   6.122   2.139   2.603  0.0742  2.6430  0.3626
 7812TIP3    H244928   5.976   2.111   2.576  0.6824 -0.9299  0.3463
 7813TIP3   OH244929   3.377   4.872   3.662  0.0369 -0.0553 -0.0617
 7813TIP3    H144930   3.304   4.812   3.643 -0.0895  0.5793 -1.7542
 7813TIP3    H244931   3.358   4.907   3.749 -0.4833 -1.5859  0.4756
 7814TIP3   OH244932   4.024   4.201  15.962  0.2556 -0.5385  0.4131
 7814TIP3    H144933   3.988   4.244  16.040 -0.5355 -0.2446 -0.1016
 7814TIP3    H244934   4.037   4.271  15.899  0.4513 -0.8371  0.1138
 7815TIP3   OH244935   0.781   3.443   0.715 -0.4006  0.1532 -0.3889
 7815TIP3    H144936   0.873   3.418   0.706 -0.4517  0.2434 -1.2339
 7815TIP3    H244937   0.733   3.362   0.701 -0.4497  0.0989  0.0899
 7816TIP3   OH244938   2.038   3.310  11.023  0.3901  0.1229 -0.6037
 7816TIP3    H144939   1.959   3.315  10.969  0.7959 -1.4585 -1.4238
 7816TIP3    H244940   2.081   3.229  10.994  1.9703  0.6075  0.2887
 7817TIP3   OH244941   4.681   0.321  13.674  0.2561  0.1957  0.1202
 7817TIP3    H144942   4.607   0.349  13.619  0.6212  1.2655  0.1578
 7817TIP3    H244943   4.703   0.398  13.726  1.8473  0.1088 -0.3746
 7818TIP3   OH244944   4.455   6.061  12.184 -0.4304  0.2955  0.0887
 7818TIP3    H144945   4.501   5.978  12.172 -1.0129  0.0307 -0.3482
 7818TIP3    H244946   4.410   6.075  12.102 -2.5364 -0.3240  1.0723
 7819TIP3   OH244947   6.171   0.131   5.781  0.4366  0.1711 -0.5112
 7819TIP3    H144948   6.258   0.090   5.785  0.2367 -0.2573 -0.5218
 7819TIP3    H244949   6.123   0.080   5.716  0.6117  1.2581 -1.5474
 7820TIP3   OH244950   3.834   1.081  12.834 -0.1928 -0.6133  0.4257
 7820TIP3    H144951   3.923   1.116  12.841 -0.8839  1.1243  0.8297
 7820TIP3    H244952   3.821   1.034  12.917  0.3317 -0.8625  0.3727
 7821TIP3   OH244953   6.272   3.539  15.409  0.1840 -0.5329 -0.5144
 7821TIP3    H144954   6.259   3.562  15.501 -0.7277 -2.0617 -0.2127
 7821TIP3    H244955   6.367   3.528  15.400  0.5646  2.0687 -0.4385
 7822TIP3   OH244956   2.127   3.391  11.697  0.5856 -0.0583 -0.1076
 7822TIP3    H144957   2.111   3.319  11.758  0.2301  0.5434  0.5120
 7822TIP3    H244958   2.188   3.449  11.743  0.3888  0.3518 -0.3619
 7823TIP3   OH244959   4.277   2.156   3.404 -0.1535 -0.5229 -0.2454
 7823TIP3    H144960   4.332   2.080   3.385 -1.8104 -1.5210 -1.3299
 7823TIP3    H244961   4.230   2.132   3.484  1.3217  0.5537  0.9948
 7824TIP3   OH244962   1.592   5.635  11.835  0.2833  0.1020  0.1172
 7824TIP3    H144963   1.638   5.567  11.884 -1.4883 -0.8520  0.5436
 7824TIP3    H244964   1.527   5.587  11.784  0.3553  1.3236 -1.1785
 7825TIP3   OH244965   0.565   4.371   5.886 -0.5618  0.6969 -0.0524
 7825TIP3    H144966   0.559   4.289   5.935  0.8936  0.3385 -0.4215
 7825TIP3    H244967   0.481   4.380   5.843 -1.2095  0.0858  1.0552
 7826TIP3   OH244968   5.900   0.060   0.103  0.1201  0.0990 -0.3598
 7826TIP3    H144969   5.951  -0.010   0.061 -1.0553 -0.1074 -1.5252
 7826TIP3    H244970   5.963   0.131   0.116  0.7776 -0.2400 -1.5287
 7827TIP3   OH244971   0.243   2.168  14.239  0.4417 -0.4992  0.0961
 7827TIP3    H144972   0.250   2.078  14.208 -1.9059 -1.3445  1.6989
 7827TIP3    H244973   0.280   2.167  14.327  0.4518  0.1114  0.1050
 7828TIP3   OH244974   0.030   1.959  14.995  0.3928  0.0761  0.1177
 7828TIP3    H144975  -0.024   1.958  14.916  1.2394  1.3631 -0.4983
 7828TIP3    H244976   0.073   2.045  14.994  0.4798  0.0964  1.9355
 7829TIP3   OH244977   0.460   2.597  10.608  0.2483  0.3835  0.4595
 7829TIP3    H144978   0.481   2.504  10.620 -0.9172 -0.2540 -1.8418
 7829TIP3    H244979   0.367   2.597  10.584  0.7759  1.8993 -1.8274
 7830TIP3   OH244980   2.857   0.279  13.965 -0.0176 -0.1074  0.2456
 7830TIP3    H144981   2.808   0.359  13.945 -0.1866 -0.2635  0.0269
 7830TIP3    H244982   2.939   0.289  13.917 -0.0088 -0.0322  0.2767
 7831TIP3   OH244983   5.743   3.875   5.899  0.1033  0.1522  0.2360
 7831TIP3    H144984   5.807   3.945   5.896 -0.7334  1.0221  1.7120
 7831TIP3    H244985   5.717   3.869   5.991 -0.7652 -1.2460 -0.0654
 7832TIP3   OH244986   0.475   4.086  12.330 -0.2200  0.1526 -0.3604
 7832TIP3    H144987   0.489   4.041  12.246 -2.6234 -0.0039 -0.7596
 7832TIP3    H244988   0.510   4.174  12.316  0.8302 -0.3344 -0.9650
 7833TIP3   OH244989   0.919   2.991   2.543 -0.4136 -0.3745 -0.1110
 7833TIP3    H144990   0.827   2.973   2.522 -1.2559  1.9612  1.2173
 7833TIP3    H244991   0.921   3.084   2.564  2.4235 -0.2109 -0.7310
 7834TIP3   OH244992   4.992   4.453  14.776 -0.3494 -0.0303  0.1835
 7834TIP3    H144993   4.970   4.449  14.683 -1.6887 -2.1811  0.5318
 7834TIP3    H244994   4.986   4.362  14.806  0.2472  0.5917  2.3456
 7835TIP3   OH244995   4.457   4.135  13.925  0.3475 -0.1643 -0.1820
 7835TIP3    H144996   4.517   4.188  13.977 -0.3022  1.8126 -1.3593
 7835TIP3    H244997   4.391   4.197  13.894 -2.3259 -2.2099  1.0107
 7836TIP3   OH244998   1.806   6.542   4.494  0.0349  0.1645  0.4092
 7836TIP3    H144999   1.861   6.464   4.483  0.3972  0.4225  0.3782
 7836TIP3    H245000   1.868   6.615   4.497 -0.2892  0.4324  0.6513
 7837TIP3   OH245001   4.540   6.004   3.460  0.0415 -0.0263 -0.2724
 7837TIP3    H145002   4.487   6.074   3.499  0.4349 -0.2502  0.6884
 7837TIP3    H245003   4.589   6.048   3.390  0.4626  0.7353  0.4681
 7838TIP3   OH245004   1.029   6.569  17.285 -0.8023  0.2460  0.2055
 7838TIP3    H145005   0.996   6.540  17.370 -1.0716  1.2586  0.4662
 7838TIP3    H245006   1.122   6.546  17.286 -0.7771  0.3429  0.8258
 7839TIP3   OH245007   5.942   3.194  10.977  0.2805  0.8012 -0.4574
 7839TIP3    H145008   5.933   3.284  10.947 -1.3114  0.8633  0.1617
 7839TIP3    H245009   5.912   3.141  10.903  0.6655  0.7818 -0.6052
 7840TIP3   OH245010   1.842   6.131  12.126 -0.3539 -0.1871  0.8329
 7840TIP3    H145011   1.823   6.221  12.153 -0.7589 -0.4763  1.5398
 7840TIP3    H245012   1.934   6.132  12.102 -0.5818  0.6316 -0.0666
 7841TIP3   OH245013   3.694   2.459   2.892 -0.2935  0.0069 -0.1804
 7841TIP3    H145014   3.631   2.467   2.964  0.1222  0.2443  0.1628
 7841TIP3    H245015   3.764   2.405   2.928  0.4343  1.0107 -0.0407
 7842TIP3   OH245016   2.655   0.269  13.142  0.2087 -0.1377 -0.1324
 7842TIP3    H145017   2.730   0.273  13.201  0.7371  2.6322 -0.8425
 7842TIP3    H245018   2.692   0.288  13.056 -0.9589 -1.3749 -0.9345
 7843TIP3   OH245019   3.278   2.757  13.823 -0.3565 -0.2396 -0.0921
 7843TIP3    H145020   3.346   2.823  13.841  0.6482 -1.0475 -0.8203
 7843TIP3    H245021   3.203   2.785  13.876 -0.0581  1.6312 -0.5779
 7844TIP3   OH245022   2.483   5.258   4.715 -0.3799 -0.2898  0.2999
 7844TIP3    H145023   2.471   5.273   4.621  0.4167  0.7341  0.3520
 7844TIP3    H245024   2.396   5.234   4.746 -1.4654  2.6775 -0.1201
 7845TIP3   OH245025   1.433   3.115   0.702  0.4658 -0.6238  0.3937
 7845TIP3    H145026   1.444   3.067   0.784  0.9408 -0.5405  0.3832
 7845TIP3    H245027   1.436   3.048   0.634  1.1388 -0.5913  0.3779
 7846TIP3   OH245028   0.846   2.393   2.110 -0.2468  0.5103  0.5084
 7846TIP3    H145029   0.862   2.351   2.194 -2.9884 -0.5110  0.6167
 7846TIP3    H245030   0.927   2.379   2.061  0.3689 -1.4659  1.9406
 7847TIP3   OH245031   2.402   4.333   6.431  0.2092  0.6127  0.6441
 7847TIP3    H145032   2.436   4.423   6.429  0.0653  0.6646 -0.7508
 7847TIP3    H245033   2.319   4.340   6.478  0.6108  1.0484  1.3117
 7848TIP3   OH245034   2.533   6.270   3.324 -0.4060 -0.3151 -0.1622
 7848TIP3    H145035   2.547   6.237   3.413 -1.1744  1.1079  0.5180
 7848TIP3    H245036   2.609   6.325   3.306  0.6233 -1.9407 -1.1048
 7849TIP3   OH245037   6.540   1.228   2.311  0.6683 -0.4013  0.1117
 7849TIP3    H145038   6.624   1.273   2.301  1.2671 -1.4765  0.1424
 7849TIP3    H245039   6.554   1.167   2.383  0.5361 -2.0536 -1.1916
 7850TIP3   OH245040   2.414   2.826   1.476  0.1553  0.4757 -0.0558
 7850TIP3    H145041   2.435   2.765   1.546 -0.6712  1.0937  0.7496
 7850TIP3    H245042   2.470   2.902   1.493  0.8403  0.1540 -0.7865
 7851TIP3   OH245043   2.421   5.756   0.198  0.6718 -0.1300  0.6036
 7851TIP3    H145044   2.352   5.701   0.162 -0.1072  1.8504 -1.1821
 7851TIP3    H245045   2.402   5.844   0.163  3.3097  0.7556  1.1582
 7852TIP3   OH245046   5.368   2.643  12.866 -0.0491  0.5372 -0.2337
 7852TIP3    H145047   5.408   2.637  12.779  0.6985  0.5188  0.0975
 7852TIP3    H245048   5.370   2.553  12.900  0.7985  0.7282  0.2741
 7853TIP3   OH245049   2.907   4.674  14.566 -0.3150  0.4350  0.0191
 7853TIP3    H145050   2.892   4.693  14.473 -2.4972 -1.2858 -0.0835
 7853TIP3    H245051   3.002   4.668  14.575 -0.0117  1.6384 -1.8755
 7854TIP3   OH245052   6.199   0.568  16.873 -0.0139 -0.8532  0.3035
 7854TIP3    H145053   6.272   0.584  16.933 -1.5229 -1.3063  2.3708
 7854TIP3    H245054   6.143   0.644  16.883 -1.5489 -2.0817  1.4737
 7855TIP3   OH245055   4.554   0.926  10.707  0.4144  0.2407 -0.0393
 7855TIP3    H145056   4.641   0.887  10.718 -0.4123 -2.2225 -1.4076
 7855TIP3    H245057   4.532   0.961  10.793  2.2867 -0.0778  0.6221
 7856TIP3   OH245058   2.588   4.179  14.246 -0.2205 -0.4277  0.0474
 7856TIP3    H145059   2.641   4.258  14.257  0.4178 -0.8459 -0.0007
 7856TIP3    H245060   2.607   4.126  14.324  0.3470 -1.0995 -0.5351
 7857TIP3   OH245061   0.198   1.916  14.793 -0.0524  0.3297 -0.3092
 7857TIP3    H145062   0.159   1.872  14.869  1.8525  2.0636  1.8149
 7857TIP3    H245063   0.292   1.903  14.804  0.2677 -1.1288 -3.5956
 7858TIP3   OH245064   4.385   0.193  12.169 -0.1317  0.0996 -0.2725
 7858TIP3    H145065   4.413   0.266  12.224  1.3086 -1.5509  1.3499
 7858TIP3    H245066   4.307   0.159  12.211 -1.5990  1.4416 -1.7831
 7859TIP3   OH245067   0.092   1.875   0.594  0.0126  0.2101 -0.1800
 7859TIP3    H145068   0.001   1.849   0.609 -0.9669  1.6483 -2.9856
 7859TIP3    H245069   0.118   1.918   0.676 -0.4347 -3.4990  2.1533
 7860TIP3   OH245070   1.686   5.778   2.574 -0.0678  0.4535  0.4626
 7860TIP3    H145071   1.624   5.843   2.540 -0.2132  0.6378  1.0678
 7860TIP3    H245072   1.682   5.788   2.669  0.4374  0.0435  0.5341
 7861TIP3   OH245073   4.977   0.099  14.243  0.4271 -0.0881 -0.2189
 7861TIP3    H145074   5.044   0.096  14.174  0.9931 -1.9744  0.3474
 7861TIP3    H245075   5.012   0.159  14.308  1.4093 -0.7458 -0.1166
 7862TIP3   OH245076   2.595   6.655   1.537  0.6077 -0.7153 -0.2160
 7862TIP3    H145077   2.665   6.701   1.490  0.8149  0.1989  0.9252
 7862TIP3    H245078   2.572   6.582   1.481  1.1902  0.0462 -1.4864
 7863TIP3   OH245079   2.253   0.907   5.118  0.5129 -0.1100 -0.4559
 7863TIP3    H145080   2.222   0.830   5.069 -2.1231  1.4486 -1.4681
 7863TIP3    H245081   2.231   0.887   5.209 -1.5229 -0.0400 -0.8790
 7864TIP3   OH245082   6.815   3.025   0.586  0.0310  0.4750  0.1994
 7864TIP3    H145083   6.848   3.000   0.499 -0.3442  1.0165 -0.1059
 7864TIP3    H245084   6.755   3.098   0.569 -0.5507  0.1654  0.8420
 7865TIP3   OH245085   3.242   1.529  11.345 -0.0792  0.0107  0.0120
 7865TIP3    H145086   3.167   1.491  11.391 -0.8356 -1.8452 -2.5246
 7865TIP3    H245087   3.205   1.601  11.294  0.4905  1.1286  1.1316
 7866TIP3   OH245088   3.154   2.426  15.465  0.0089  0.1654 -0.0405
 7866TIP3    H145089   3.084   2.486  15.439 -0.4305  0.0857  0.9268
 7866TIP3    H245090   3.121   2.384  15.544 -0.4035 -2.5706 -1.5325
 7867TIP3   OH245091   4.146   0.501  14.356 -0.5416 -0.4183  0.7867
 7867TIP3    H145092   4.130   0.413  14.391 -0.8962  0.2759  2.4849
 7867TIP3    H245093   4.241   0.509  14.353 -0.5065 -0.7324  0.9882
 7868TIP3   OH245094   1.284   1.939   1.558 -0.0959 -0.0525 -0.1393
 7868TIP3    H145095   1.379   1.955   1.559 -0.0376 -0.4170  0.6833
 7868TIP3    H245096   1.274   1.853   1.597 -0.5481 -1.4668 -3.0921
 7869TIP3   OH245097   3.086   3.947   0.273  0.8387  0.3111  0.4944
 7869TIP3    H145098   2.998   3.931   0.306  1.1917 -0.9555  0.8744
 7869TIP3    H245099   3.085   3.911   0.184  0.7417  1.0300  0.2021
 7870TIP3   OH245100   2.276   4.496  13.080 -0.0229 -0.1184 -0.3910
 7870TIP3    H145101   2.339   4.562  13.108  0.1143 -0.0552 -0.8454
 7870TIP3    H245102   2.190   4.535  13.100  0.0311  0.5289 -1.3530
 7871TIP3   OH245103   4.320   3.298  11.818  0.3263 -0.7610  0.1738
 7871TIP3    H145104   4.387   3.308  11.886  0.5764 -1.2156 -0.0020
 7871TIP3    H245105   4.237   3.292  11.865  0.2199  1.2722  0.3509
 7872TIP3   OH245106   6.316   5.687  14.473 -0.0204  0.0240  0.0853
 7872TIP3    H145107   6.375   5.749  14.515 -0.5222  0.6337 -0.1040
 7872TIP3    H245108   6.369   5.648  14.402  0.8562 -1.0818  1.2981
 7873TIP3   OH245109   2.975   6.271   1.546 -0.8899  0.3182 -0.2368
 7873TIP3    H145110   2.938   6.212   1.481 -1.2778  1.9977 -1.6344
 7873TIP3    H245111   3.006   6.214   1.616 -1.9176 -1.4537 -1.1562
 7874TIP3   OH245112   3.132   2.493  16.817 -0.1389 -0.3165 -0.1702
 7874TIP3    H145113   3.117   2.505  16.911  0.2647 -0.9702 -0.0148
 7874TIP3    H245114   3.095   2.571  16.776 -0.6988 -0.2257  0.4972
 7875TIP3   OH245115   0.355   1.547  16.303  0.7759  0.2208  0.1634
 7875TIP3    H145116   0.392   1.616  16.358  2.3979 -2.4813  2.8091
 7875TIP3    H245117   0.426   1.525  16.242  0.1435  1.0201 -0.8994
 7876TIP3   OH245118   0.099   6.211   3.398 -0.2745 -0.2153 -0.2933
 7876TIP3    H145119   0.080   6.252   3.482 -0.0482 -1.1971  0.2607
 7876TIP3    H245120   0.064   6.122   3.406  0.1290 -0.4575 -1.0755
 7877TIP3   OH245121   0.356   5.935   3.794 -0.1376 -0.1674  0.0052
 7877TIP3    H145122   0.305   5.919   3.873  1.7334  0.3931  1.3737
 7877TIP3    H245123   0.350   6.030   3.780  0.3720 -0.1251  0.0675
 7878TIP3   OH245124   4.981   3.277  12.930  0.3360 -0.1296 -0.0742
 7878TIP3    H145125   4.968   3.368  12.956 -0.8088 -0.0132 -1.0019
 7878TIP3    H245126   5.017   3.282  12.841 -3.3308 -0.5268 -1.7708
 7879TIP3   OH245127   4.514   6.399   6.163  0.6256 -0.5238 -0.5720
 7879TIP3    H145128   4.525   6.361   6.251 -0.7935  0.3377  0.0070
 7879TIP3    H245129   4.425   6.434   6.163  0.3645 -1.1021 -2.6084
 7880TIP3   OH245130   4.527   4.656   2.018  0.3225 -0.1115  0.2262
 7880TIP3    H145131   4.540   4.571   1.975  2.5125  0.2051  0.1112
 7880TIP3    H245132   4.546   4.638   2.111 -2.4641 -0.3829  0.8253
 7881TIP3   OH245133   5.955   3.934  12.952 -0.2525  0.2570 -0.1833
 7881TIP3    H145134   5.966   3.967  13.040 -2.7050 -0.2028  0.3737
 7881TIP3    H245135   6.034   3.883  12.935  0.4467  0.7068  1.5609
 7882TIP3   OH245136   1.594   3.492   3.139 -0.3207 -0.2950 -0.0257
 7882TIP3    H145137   1.616   3.580   3.107  2.3747 -0.2729  1.5605
 7882TIP3    H245138   1.529   3.507   3.207  0.6346  0.6054  0.7301
 7883TIP3   OH245139   3.493   2.701   2.792 -0.3712  0.5638 -0.0800
 7883TIP3    H145140   3.545   2.737   2.864 -0.5901  1.6238 -0.4273
 7883TIP3    H245141   3.558   2.664   2.732 -0.0731  1.0249 -0.0485
 7884TIP3   OH245142   2.253   5.742  17.275  0.4313  0.1389 -0.3845
 7884TIP3    H145143   2.281   5.832  17.292  0.8340 -0.4031  2.3448
 7884TIP3    H245144   2.215   5.745  17.187  1.2826  2.7422 -0.7678
 7885TIP3   OH245145   0.205   3.554  14.277  0.4051  0.1170  0.4892
 7885TIP3    H145146   0.122   3.508  14.271  0.7041 -0.7904  2.5492
 7885TIP3    H245147   0.247   3.538  14.192  0.0338 -2.5522  0.7168
 7886TIP3   OH245148   6.621   6.686   0.858  0.1326 -0.3454 -0.0782
 7886TIP3    H145149   6.671   6.622   0.909  0.6342  2.0856  2.7034
 7886TIP3    H245150   6.686   6.730   0.804  0.2137 -0.3416  0.0236
 7887TIP3   OH245151   2.693   6.005  15.725  0.0962 -0.0598 -0.0453
 7887TIP3    H145152   2.727   6.021  15.813 -0.1427 -0.1290  0.0617
 7887TIP3    H245153   2.768   6.016  15.667  0.3282 -0.3354  0.1996
 7888TIP3   OH245154   3.545   1.347  11.151 -0.0729 -0.2611  0.5710
 7888TIP3    H145155   3.523   1.300  11.071  4.0667 -1.1756 -0.2741
 7888TIP3    H245156   3.515   1.436  11.135  0.4076 -0.4751 -1.9340
 7889TIP3   OH245157   5.136   3.080   4.876  0.3071  0.4501 -0.0749
 7889TIP3    H145158   5.219   3.088   4.829  0.0960  0.2978 -0.4783
 7889TIP3    H245159   5.070   3.076   4.807  0.1558 -2.1331  0.1042
 7890TIP3   OH245160   2.851   0.342  13.320  0.0446 -0.0181 -0.1805
 7890TIP3    H145161   2.815   0.385  13.398 -2.4349  0.0102 -1.2387
 7890TIP3    H245162   2.907   0.408  13.279  0.3853  0.3859  0.9027
 7891TIP3   OH245163   0.850   5.170  14.171 -0.2825  0.4699 -0.1749
 7891TIP3    H145164   0.814   5.224  14.100 -1.9157 -0.9595 -0.4889
 7891TIP3    H245165   0.793   5.093  14.175  0.2682  0.0897  2.1409
 7892TIP3   OH245166   3.427   2.237  13.931  0.2219  0.1567 -0.0263
 7892TIP3    H145167   3.400   2.231  14.022  1.3937  0.1694  0.3482
 7892TIP3    H245168   3.461   2.326  13.922 -0.0466  0.2141 -0.5253
 7893TIP3   OH245169   0.636   5.545  14.316  0.0079  0.1931  0.0021
 7893TIP3    H145170   0.589   5.477  14.267 -1.4417  0.4200  1.0041
 7893TIP3    H245171   0.607   5.627  14.276 -0.1873  0.3223  0.4105
 7894TIP3   OH245172   1.807   0.613  13.841  0.1649 -0.2491  0.0318
 7894TIP3    H145173   1.860   0.676  13.793  0.2196 -0.8105 -0.6547
 7894TIP3    H245174   1.743   0.666  13.889 -0.1451  0.2951 -0.9728
 7895TIP3   OH245175   4.718   4.570   4.765  0.1363  0.6719  0.4609
 7895TIP3    H145176   4.637   4.563   4.815  0.3356 -1.2119  0.5714
 7895TIP3    H245177   4.698   4.532   4.680  0.7512  0.7232  0.2866
 7896TIP3   OH245178   4.688   5.632  11.976  0.2613 -0.1570  0.0361
 7896TIP3    H145179   4.597   5.603  11.978 -0.1785  0.8345 -2.2271
 7896TIP3    H245180   4.738   5.552  11.994 -1.0148 -1.1718 -0.7115
 7897TIP3   OH245181   0.653   2.065  13.789 -0.0084 -0.2847 -0.5160
 7897TIP3    H145182   0.686   2.025  13.870 -0.4668  0.2851 -0.0412
 7897TIP3    H245183   0.707   2.027  13.720  2.0913  1.0609  0.2836
 7898TIP3   OH245184   1.295   5.952   0.516  0.2690 -0.1775  0.1071
 7898TIP3    H145185   1.281   5.985   0.427 -0.2284  0.6497  0.4788
 7898TIP3    H245186   1.220   5.985   0.566  1.0221  0.1754  1.0375
 7899TIP3   OH245187   1.460   0.021  12.117  0.4594  0.8080  0.1881
 7899TIP3    H145188   1.526   0.018  12.047  2.5945  0.0718  2.0978
 7899TIP3    H245189   1.483   0.099  12.167 -0.4524  0.8109  0.6109
 7900TIP3   OH245190   6.636   0.237   4.857  0.3644 -0.6764 -0.5178
 7900TIP3    H145191   6.647   0.269   4.768 -0.1935  0.8786 -0.0609
 7900TIP3    H245192   6.671   0.307   4.913  0.9971 -1.7494  0.4919
 7901TIP3   OH245193   0.714   3.112   0.911  0.4140  0.6201  0.3301
 7901TIP3    H145194   0.703   3.017   0.913 -0.9102  0.7147 -0.7659
 7901TIP3    H245195   0.787   3.130   0.970 -0.3077 -0.9245  1.7438
 7902TIP3   OH245196   0.064   2.222   4.244  0.4366 -0.0201  0.2223
 7902TIP3    H145197   0.132   2.266   4.296 -0.2878  0.3252  0.9046
 7902TIP3    H245198   0.066   2.267   4.159  0.7685  0.2663  0.3798
 7903TIP3   OH245199   5.099   2.910  14.464  0.1447 -0.1141 -0.4500
 7903TIP3    H145200   5.048   2.843  14.419  0.9419 -2.0852  1.4007
 7903TIP3    H245201   5.070   2.904  14.556 -0.6169  2.9508 -0.3710
 7904TIP3   OH245202   0.179   1.570   3.389 -0.5011 -0.4114  0.0637
 7904TIP3    H145203   0.221   1.601   3.469 -0.3617  1.8316 -0.8116
 7904TIP3    H245204   0.251   1.544   3.332 -0.5891 -1.7090  0.5032
 7905TIP3   OH245205   6.602   5.306   0.873 -0.4124 -0.9371 -0.1230
 7905TIP3    H145206   6.571   5.228   0.921 -2.1516 -0.0652  0.2483
 7905TIP3    H245207   6.562   5.298   0.787  0.3866 -1.0371 -0.4956
 7906TIP3   OH245208   2.561   0.592  16.541 -0.0506  0.2473 -0.3064
 7906TIP3    H145209   2.566   0.561  16.450 -1.0468  0.6562 -0.5154
 7906TIP3    H245210   2.647   0.629  16.558  0.3974 -0.5106 -0.8275
 7907TIP3   OH245211   6.158   1.587   2.230 -0.0344 -0.2955  0.4552
 7907TIP3    H145212   6.079   1.534   2.221  0.5317 -1.1720  0.4856
 7907TIP3    H245213   6.169   1.629   2.145 -0.7865  0.2063  0.5994
 7908TIP3   OH245214   5.584   0.041   5.562  0.0750  0.7724  0.5471
 7908TIP3    H145215   5.569   0.097   5.485  0.9748  0.8427  0.4150
 7908TIP3    H245216   5.515  -0.025   5.557 -0.0378  0.9343 -0.1737
 7909TIP3   OH245217   0.575   5.584   0.873 -0.0445  0.2733  0.2991
 7909TIP3    H145218   0.491   5.565   0.830 -0.2377 -0.0437  0.8065
 7909TIP3    H245219   0.552   5.638   0.949  0.0503 -0.8908  1.1857
 7910TIP3   OH245220   6.749   3.102   5.851  0.2411  0.3979  0.4481
 7910TIP3    H145221   6.774   3.189   5.883  1.2987  0.3223 -0.1168
 7910TIP3    H245222   6.779   3.100   5.760 -1.1260 -0.0306 -0.0212
 7911TIP3   OH245223   2.556   1.182   0.335 -0.1631  0.4405 -0.4936
 7911TIP3    H145224   2.525   1.263   0.295  1.6742  1.8419  0.7683
 7911TIP3    H245225   2.488   1.159   0.399  0.8336  2.9534  1.6104
 7912TIP3   OH245226   1.124   3.955   1.203  0.1230 -0.2256 -0.0916
 7912TIP3    H145227   1.157   3.891   1.140  1.3181 -1.6152  1.8445
 7912TIP3    H245228   1.089   3.903   1.275  0.3230  1.2631  1.1526
 7913TIP3   OH245229   4.322   2.673   2.315 -0.5479 -0.0885 -0.2574
 7913TIP3    H145230   4.394   2.696   2.257  1.0851 -0.3289  1.5920
 7913TIP3    H245231   4.255   2.739   2.297  1.3474  2.0605  0.1372
 7914TIP3   OH245232   1.697   3.342  16.338  0.0620  0.1267  0.0388
 7914TIP3    H145233   1.781   3.299  16.348 -0.0595 -0.4133 -1.0353
 7914TIP3    H245234   1.683   3.389  16.420  0.8193 -0.7978  0.7111
 7915TIP3   OH245235   1.163   1.122   2.366  0.6172  0.3446 -0.1163
 7915TIP3    H145236   1.185   1.032   2.345  3.2328  0.5882  1.1107
 7915TIP3    H245237   1.087   1.116   2.424 -1.2996 -0.7909 -2.5988
 7916TIP3   OH245238   6.377   1.767   0.643 -0.4495  0.2466 -0.5526
 7916TIP3    H145239   6.346   1.841   0.695  0.9937  0.8900 -0.5473
 7916TIP3    H245240   6.320   1.695   0.667  0.1522  0.5120  1.9647
 7917TIP3   OH245241   0.831   5.606  13.919 -0.2153 -0.1913  0.0603
 7917TIP3    H145242   0.768   5.661  13.967  0.7295  1.5299 -0.5886
 7917TIP3    H245243   0.877   5.667  13.862 -1.9283 -2.2273 -3.8750
 7918TIP3   OH245244   1.940   0.664   4.966 -0.3543  0.3153  0.7579
 7918TIP3    H145245   1.871   0.693   5.026 -1.4617  0.3322 -0.4947
 7918TIP3    H245246   1.959   0.741   4.912 -0.1373 -0.0176  0.3586
 7919TIP3   OH245247   1.430   6.122   3.241 -0.4183  0.4065 -0.1430
 7919TIP3    H145248   1.348   6.111   3.192  0.7283 -2.7982 -1.6208
 7919TIP3    H245249   1.403   6.153   3.327 -3.2166 -0.7175 -0.5198
 7920TIP3   OH245250   6.659   3.516   5.835  0.2480 -0.2173 -0.6291
 7920TIP3    H145251   6.595   3.587   5.829  2.0673  1.4261 -1.9576
 7920TIP3    H245252   6.620   3.445   5.784 -2.1107 -0.7016  1.6323
 7921TIP3   OH245253   4.632   5.209   1.893 -0.1535 -0.2803 -0.0934
 7921TIP3    H145254   4.642   5.180   1.983  0.5741 -1.9550 -0.6647
 7921TIP3    H245255   4.715   5.254   1.873  0.0860 -0.7568 -0.1992
 7922TIP3   OH245256   0.885   3.202  11.255  0.3579 -0.2073  0.6813
 7922TIP3    H145257   0.813   3.180  11.195 -0.0507  1.1394  0.6495
 7922TIP3    H245258   0.920   3.117  11.282  1.0920 -0.9037 -2.0960
 7923TIP3   OH245259   5.824   4.388   6.129  0.3704  0.0688  0.0229
 7923TIP3    H145260   5.890   4.415   6.193 -1.4995 -0.6510  2.4292
 7923TIP3    H245261   5.867   4.398   6.044  2.8670  1.4892  1.3308
 7924TIP3   OH245262   0.999   1.421  15.702 -0.0314 -0.5024 -0.5445
 7924TIP3    H145263   1.066   1.364  15.740 -0.1795 -0.8067 -0.7353
 7924TIP3    H245264   0.917   1.374  15.715 -0.2855  0.1325  0.2009
 7925TIP3   OH245265   3.021   5.802  14.600 -0.0181 -0.8021  0.0251
 7925TIP3    H145266   2.987   5.721  14.638  0.5003 -1.5184 -0.9948
 7925TIP3    H245267   3.115   5.799  14.616  0.3753 -1.5809 -2.0228
 7926TIP3   OH245268   1.904   6.685   3.083  0.4143  0.1378 -0.4365
 7926TIP3    H145269   1.816   6.697   3.119  1.1633  0.6059  1.3550
 7926TIP3    H245270   1.889   6.648   2.996 -1.5459  0.2250 -0.1923
 7927TIP3   OH245271   4.992   0.285   5.357 -0.6840  0.2112  0.2570
 7927TIP3    H145272   4.902   0.312   5.346 -0.6103  0.4043  0.1360
 7927TIP3    H245273   5.002   0.269   5.451 -0.3201  2.0271  0.5555
 7928TIP3   OH245274   3.962   6.522   1.456  0.6318  0.3590 -0.3092
 7928TIP3    H145275   4.056   6.528   1.473  0.8788 -1.6653 -0.7852
 7928TIP3    H245276   3.921   6.569   1.530  1.8845 -2.3957  2.3694
 7929TIP3   OH245277   5.586   1.121  16.579 -0.8432  0.2265 -0.2525
 7929TIP3    H145278   5.668   1.166  16.561 -0.1998 -1.0651 -0.6759
 7929TIP3    H245279   5.572   1.065  16.502 -1.0507 -1.0906  0.7038
 7930TIP3   OH245280   0.489   5.047   1.729 -0.1582  0.0925  0.2883
 7930TIP3    H145281   0.443   4.973   1.690 -1.4513  0.6739  0.6626
 7930TIP3    H245282   0.540   5.008   1.801 -0.7775 -0.4448  0.4450
 7931TIP3   OH245283   1.362   4.893   2.694 -0.0451 -0.3306 -0.2415
 7931TIP3    H145284   1.394   4.978   2.663 -1.9318  1.4117  2.1972
 7931TIP3    H245285   1.393   4.888   2.785 -2.1471 -0.9855  0.4863
 7932TIP3   OH245286   5.379   0.020  11.156  0.4633 -0.1744 -0.2972
 7932TIP3    H145287   5.390   0.043  11.064  2.2015  0.6417  0.0600
 7932TIP3    H245288   5.307  -0.043  11.157 -0.5025  0.8190 -2.0356
 7933TIP3   OH245289   3.903   2.236  15.328 -0.5245 -0.0523  0.4315
 7933TIP3    H145290   3.931   2.328  15.333  2.0012 -0.7021 -0.4290
 7933TIP3    H245291   3.844   2.234  15.252 -0.8831  0.8950  0.6654
 7934TIP3   OH245292   2.690   0.452  16.832  1.3348  0.0484 -0.1952
 7934TIP3    H145293   2.727   0.477  16.748  0.8154  0.4221 -0.3141
 7934TIP3    H245294   2.673   0.536  16.876 -0.8505 -0.0380 -0.7801
 7935TIP3   OH245295   5.792   3.908  14.609  0.2232  0.1481  0.2773
 7935TIP3    H145296   5.719   3.885  14.551  1.8981  0.4524 -2.0777
 7935TIP3    H245297   5.768   3.994  14.644 -1.2181 -0.4259  0.7683
 7936TIP3   OH245298   2.404   2.350  13.230 -0.4381 -0.0105  0.3824
 7936TIP3    H145299   2.407   2.297  13.150 -1.9748  0.9798 -0.3758
 7936TIP3    H245300   2.454   2.299  13.294  0.7590 -0.8715 -1.1644
 7937TIP3   OH245301   2.566   5.048  16.151 -0.4807  0.2286 -0.5937
 7937TIP3    H145302   2.641   5.029  16.207 -0.3398 -0.5055 -1.0168
 7937TIP3    H245303   2.546   5.140  16.168 -1.3039 -0.3192  1.6830
 7938TIP3   OH245304   4.194   3.572   3.862  0.4351  0.0692 -0.0324
 7938TIP3    H145305   4.130   3.528   3.807  0.1592  1.2182 -0.6604
 7938TIP3    H245306   4.183   3.532   3.949 -1.0436  0.1595 -0.1573
 7939TIP3   OH245307   3.113   0.131   2.123 -0.1136 -0.6673  0.2047
 7939TIP3    H145308   3.133   0.087   2.206  0.5746 -0.6426  0.0609
 7939TIP3    H245309   3.086   0.060   2.064  0.4181 -0.8357  0.1502
 7940TIP3   OH245310   3.957   0.924  10.489 -0.2820  0.3407  0.3243
 7940TIP3    H145311   3.987   0.984  10.421 -0.5989 -0.2274 -0.3303
 7940TIP3    H245312   3.932   0.980  10.562 -0.6196  0.9978 -0.2940
 7941TIP3   OH245313   3.359   5.452   1.003  0.0875  0.2238 -0.4664
 7941TIP3    H145314   3.449   5.449   0.972  0.5767 -1.1734  0.9153
 7941TIP3    H245315   3.367   5.461   1.098 -1.1137 -2.1107 -0.0443
 7942TIP3   OH245316   6.293   2.261   3.171 -0.0112 -0.2447  0.1213
 7942TIP3    H145317   6.207   2.304   3.170  1.0194  2.0324  1.4105
 7942TIP3    H245318   6.330   2.285   3.256  2.0486 -0.8543 -0.5584
 7943TIP3   OH245319   3.707   3.331  16.250  0.2356  0.2305  0.6259
 7943TIP3    H145320   3.617   3.305  16.269 -0.1547  1.3852  0.4559
 7943TIP3    H245321   3.752   3.322  16.334 -0.2293  0.3767  0.8978
 7944TIP3   OH245322   5.621   1.348  13.826 -0.8632 -0.0270  0.0208
 7944TIP3    H145323   5.609   1.397  13.745 -0.5811  1.6645  0.9631
 7944TIP3    H245324   5.683   1.400  13.877 -0.5072 -1.4079  1.0509
 7945TIP3   OH245325   2.333   4.643   0.570  0.1594  0.2857  0.0194
 7945TIP3    H145326   2.341   4.559   0.616  1.0466 -0.6983 -1.8332
 7945TIP3    H245327   2.420   4.682   0.577  0.5250 -0.2110 -1.3620
 7946TIP3   OH245328   1.796   3.791  15.192  0.2182  0.5928  0.2633
 7946TIP3    H145329   1.740   3.812  15.266 -0.3164  0.1246 -0.0062
 7946TIP3    H245330   1.757   3.839  15.118 -0.2547 -0.3037 -0.0795
 7947TIP3   OH245331   1.521   3.294  11.997 -0.5197 -0.8628  0.2764
 7947TIP3    H145332   1.519   3.383  11.963  1.1608 -1.2034 -0.8938
 7947TIP3    H245333   1.435   3.280  12.037 -1.4765  0.6360 -1.1703
 7948TIP3   OH245334   5.276   2.785  10.708 -0.0765  0.0004  0.1048
 7948TIP3    H145335   5.229   2.756  10.786 -1.1464  0.5344 -0.3276
 7948TIP3    H245336   5.299   2.704  10.662 -1.3722 -0.2488 -0.1330
 7949TIP3   OH245337   5.066   5.347  14.514  0.3550 -0.0279 -0.1215
 7949TIP3    H145338   5.080   5.303  14.430  2.1331 -0.6445  0.4494
 7949TIP3    H245339   5.034   5.434  14.490 -0.8239 -0.7579 -1.3597
 7950TIP3   OH245340   6.777   4.350  17.164  0.4233  0.4402  0.0923
 7950TIP3    H145341   6.857   4.386  17.128  1.9519 -1.0051  1.8310
 7950TIP3    H245342   6.731   4.425  17.201  1.1882  1.2366 -0.5341
 7951TIP3   OH245343   1.392   6.650   1.620 -0.3799  0.2113 -0.2209
 7951TIP3    H145344   1.427   6.595   1.691 -0.0234 -0.1090 -0.6369
 7951TIP3    H245345   1.465   6.705   1.594 -0.7487  0.9284  0.2211
 7952TIP3   OH245346   6.234   0.869   2.082 -0.3109 -0.1436  0.3269
 7952TIP3    H145347   6.279   0.953   2.094 -0.8165  0.2605 -0.5115
 7952TIP3    H245348   6.220   0.837   2.171 -0.5454  0.8988  0.6826
 7953TIP3   OH245349   6.232   4.554   3.224  0.9065  0.2735 -0.5122
 7953TIP3    H145350   6.258   4.636   3.182  0.0559  0.6463 -0.3309
 7953TIP3    H245351   6.163   4.520   3.167 -0.7361  1.1136  0.8858
 7954TIP3   OH245352   2.317   6.103   3.217  0.0704 -0.0657 -0.7206
 7954TIP3    H145353   2.386   6.160   3.249 -0.0842  0.6411 -1.6248
 7954TIP3    H245354   2.361   6.021   3.193  0.8735  0.8921 -2.7335
 7955TIP3   OH245355   0.426   6.800  13.942 -0.6014  0.7252 -0.3564
 7955TIP3    H145356   0.344   6.839  13.971 -0.1310  0.7506  1.0123
 7955TIP3    H245357   0.466   6.866  13.886  0.6170  2.7011  2.6363
 7956TIP3   OH245358   4.606   2.109   5.246  0.0109  0.1186 -0.5424
 7956TIP3    H145359   4.550   2.045   5.200 -2.6347  1.5838  0.4092
 7956TIP3    H245360   4.627   2.174   5.180  0.8814 -0.5887 -0.9802
 7957TIP3   OH245361   2.926   1.882   3.910 -0.1050  0.2580  0.1555
 7957TIP3    H145362   3.019   1.868   3.923 -0.1880 -1.8249 -1.1319
 7957TIP3    H245363   2.886   1.862   3.995  0.3993 -1.5389  0.0091
 7958TIP3   OH245364   6.007   3.312  13.517  0.2132  0.0743 -0.2835
 7958TIP3    H145365   5.977   3.374  13.450 -0.8581 -0.9407 -0.7655
 7958TIP3    H245366   5.989   3.356  13.600 -1.2206  0.1208 -0.6067
 7959TIP3   OH245367   6.703   4.893  16.463 -0.1851  0.1043 -0.2405
 7959TIP3    H145368   6.660   4.879  16.547  0.2770 -0.1001 -0.0333
 7959TIP3    H245369   6.730   4.985  16.464  0.6288 -0.1322  0.2202
 7960TIP3   OH245370   6.665   0.036  16.990 -0.1341  0.6405 -0.2594
 7960TIP3    H145371   6.588   0.005  16.942  0.4102 -2.0165  0.4552
 7960TIP3    H245372   6.737   0.027  16.929  0.1498 -0.2457  0.1998
 7961TIP3   OH245373   3.961   4.379   5.016  0.4194 -0.3975 -0.6040
 7961TIP3    H145374   4.049   4.417   5.027 -0.3494  1.5196 -0.6279
 7961TIP3    H245375   3.923   4.380   5.104 -0.4074  1.0490 -0.9409
 7962TIP3   OH245376   3.860   1.066  11.808  0.1474  0.6196 -0.0804
 7962TIP3    H145377   3.907   1.030  11.733  0.2502  0.7925 -0.0982
 7962TIP3    H245378   3.911   1.037  11.884 -0.1113  0.2051 -0.0584
 7963TIP3   OH245379   6.322   6.112   3.600  0.2361  0.1879 -0.2380
 7963TIP3    H145380   6.230   6.095   3.585  0.2828 -0.6679  0.3684
 7963TIP3    H245381   6.365   6.028   3.586  0.6911  0.1564  1.1817
 7964TIP3   OH245382   2.327   4.340   2.723 -0.3561  0.5687  0.3345
 7964TIP3    H145383   2.293   4.375   2.806 -0.7413 -1.1764  0.9626
 7964TIP3    H245384   2.363   4.416   2.678 -0.8994  1.7068  1.7314
 7965TIP3   OH245385   6.737   2.319  14.749  0.8200  0.5757 -0.7497
 7965TIP3    H145386   6.824   2.353  14.770  0.4681  1.1418 -0.1498
 7965TIP3    H245387   6.720   2.252  14.815  0.9184  0.2609 -1.0435
 7966TIP3   OH245388   3.460   0.136  16.959  0.0190  0.0003 -0.0217
 7966TIP3    H145389   3.538   0.144  16.905 -0.0997 -1.1534 -0.3844
 7966TIP3    H245390   3.449   0.042  16.974 -1.8591  0.0347 -0.8417
 7967TIP3   OH245391   3.994   5.250   2.047 -0.5755 -0.2539  0.6706
 7967TIP3    H145392   3.942   5.172   2.065  1.2344 -1.5298  0.7068
 7967TIP3    H245393   4.025   5.238   1.957 -0.8545  0.7961  0.4188
 7968TIP3   OH245394   5.984   5.517   4.854  0.8897 -0.1803 -0.1691
 7968TIP3    H145395   5.982   5.454   4.927 -0.6045 -1.3352 -1.1442
 7968TIP3    H245396   5.932   5.591   4.885  1.3446 -0.0929  0.4066
 7969TIP3   OH245397   3.467   3.440   3.902  0.2271  0.5458 -0.4435
 7969TIP3    H145398   3.403   3.407   3.840 -1.1514  1.6604  0.3281
 7969TIP3    H245399   3.442   3.531   3.917  2.5203  1.2951 -0.7636
 7970TIP3   OH245400   2.956   6.444   4.363 -0.2487 -0.1708  0.2852
 7970TIP3    H145401   3.013   6.487   4.426 -0.2892  0.4943 -0.1247
 7970TIP3    H245402   2.872   6.489   4.371 -0.4865 -0.6071  0.3097
 7971TIP3   OH245403   1.815   2.320  14.103 -0.4992 -0.4250  0.3934
 7971TIP3    H145404   1.720   2.314  14.115 -0.5442  0.2093  0.3870
 7971TIP3    H245405   1.827   2.323  14.008 -0.7000  2.5212  0.3911
 7972TIP3   OH245406   2.278   5.454  16.630  0.0005  0.2868 -0.1725
 7972TIP3    H145407   2.306   5.372  16.673 -0.1132  1.2506  1.8573
 7972TIP3    H245408   2.186   5.440  16.609  0.3782 -0.6707 -1.3494
 7973TIP3   OH245409   4.078   1.940   1.837 -0.6595 -0.0638 -0.2063
 7973TIP3    H145410   4.077   1.976   1.748 -1.6672  0.5558  0.0382
 7973TIP3    H245411   4.068   1.846   1.824 -1.4618  0.0809 -0.7378
 7974TIP3   OH245412   0.755   2.854   4.204  0.9151 -0.0769 -0.0097
 7974TIP3    H145413   0.810   2.921   4.244  0.2826  0.0802  0.6219
 7974TIP3    H245414   0.680   2.846   4.263 -0.2155  0.3978 -1.3243
 7975TIP3   OH245415   3.573   4.886  10.896  0.5539 -0.1893  0.1192
 7975TIP3    H145416   3.585   4.837  10.815 -0.2220 -1.1521  0.5737
 7975TIP3    H245417   3.527   4.966  10.869 -1.2560 -1.2891 -0.1796
 7976TIP3   OH245418   5.610   2.064   5.965  0.3672  0.5006 -0.1960
 7976TIP3    H145419   5.705   2.076   5.963  0.8668  0.3838  5.7857
 7976TIP3    H245420   5.599   1.969   5.967  0.5518  0.4597  2.1232
 7977TIP3   OH245421   0.240   6.348   1.751 -0.5065 -0.0700  0.1253
 7977TIP3    H145422   0.191   6.268   1.769 -0.3232 -0.2697 -0.2380
 7977TIP3    H245423   0.254   6.346   1.656 -1.6686  1.0646 -0.1007
 7978TIP3   OH245424   0.846   4.222   3.205  0.0839 -0.0173  0.0463
 7978TIP3    H145425   0.775   4.175   3.250 -0.1468 -0.0266 -0.3192
 7978TIP3    H245426   0.825   4.315   3.218 -1.0371  0.0090 -1.6179
 7979TIP3   OH245427   1.615   4.076  11.507  0.1265  0.4821  0.4020
 7979TIP3    H145428   1.608   3.985  11.534  1.6100  0.2213 -0.0255
 7979TIP3    H245429   1.581   4.078  11.417  0.6163  0.2370  0.2089
 7980TIP3   OH245430   0.277   2.405  11.135 -0.3086 -0.0912  0.2548
 7980TIP3    H145431   0.291   2.320  11.176 -2.2619 -0.5171  0.0980
 7980TIP3    H245432   0.300   2.391  11.043 -1.6455 -0.7550  0.0095
 7981TIP3   OH245433   0.793   5.340  11.382 -0.2940  0.4011  0.3248
 7981TIP3    H145434   0.722   5.356  11.320 -0.3422 -1.0820 -0.0487
 7981TIP3    H245435   0.766   5.260  11.428 -0.7665  1.9620  3.0211
 7982TIP3   OH245436   3.960   6.136  15.560  0.3625 -0.0372  0.0192
 7982TIP3    H145437   3.904   6.059  15.571 -0.1508  0.3820  0.4254
 7982TIP3    H245438   4.002   6.148  15.645 -0.5334  0.8637  0.3565
 7983TIP3   OH245439   4.168   4.515  12.107 -0.1463 -0.0879  0.2785
 7983TIP3    H145440   4.258   4.521  12.073 -1.4562 -0.5670 -3.8009
 7983TIP3    H245441   4.119   4.580  12.057 -2.3198 -0.6436  1.5717
 7984TIP3   OH245442   3.720   1.926  15.719  0.2230 -0.2155 -0.5658
 7984TIP3    H145443   3.630   1.893  15.720 -0.0125  0.1763  3.3695
 7984TIP3    H245444   3.712   2.014  15.680 -1.1244 -0.1177 -0.1184
 7985TIP3   OH245445   2.755   0.497  12.451 -0.7272  0.0742 -0.3938
 7985TIP3    H145446   2.761   0.411  12.493  0.6344 -0.4905 -1.7020
 7985TIP3    H245447   2.844   0.517  12.423 -1.1013  1.7358 -0.5144
 7986TIP3   OH245448   5.969   1.783   3.823 -0.0108 -0.3466 -0.2410
 7986TIP3    H145449   5.958   1.840   3.899 -0.0514 -0.9977  0.2571
 7986TIP3    H245450   5.884   1.788   3.778  0.1297  0.3117 -0.4410
 7987TIP3   OH245451   3.292   1.623  13.563  0.8650 -0.0111 -0.3805
 7987TIP3    H145452   3.300   1.530  13.582  0.1770  0.0510  0.2748
 7987TIP3    H245453   3.242   1.658  13.637  2.9237  1.2734  0.5134
 7988TIP3   OH245454   4.651   4.940  12.842 -0.4887 -0.1080  0.0711
 7988TIP3    H145455   4.670   4.850  12.814  0.8452  0.4798 -0.9832
 7988TIP3    H245456   4.556   4.941  12.852 -0.3937 -2.2252  2.2335
 7989TIP3   OH245457   6.746   4.665  16.332 -0.2842  0.6998 -0.2793
 7989TIP3    H145458   6.729   4.754  16.364  0.1562  0.9734 -0.7952
 7989TIP3    H245459   6.736   4.672  16.237  2.6933  0.9069 -0.6663
 7990TIP3   OH245460   4.823   5.469   2.474 -0.3761  0.7432  0.5540
 7990TIP3    H145461   4.853   5.508   2.393  2.0693  1.5654  1.7484
 7990TIP3    H245462   4.753   5.526   2.504  0.2400  1.7443  0.1333
 7991TIP3   OH245463   1.943   2.341   0.159 -0.1674  0.4182 -0.0491
 7991TIP3    H145464   1.932   2.399   0.083 -1.4222  1.2350  0.7123
 7991TIP3    H245465   2.023   2.372   0.201  0.7672 -0.3121 -1.2530
 7992TIP3   OH245466   1.642   1.495   6.097  0.4501  0.2508  0.5781
 7992TIP3    H145467   1.567   1.452   6.139 -0.1742  0.8835  0.1338
 7992TIP3    H245468   1.609   1.521   6.011  1.5954 -0.6820 -0.1699
 7993TIP3   OH245469   5.212   3.811   1.429 -0.0597 -0.7401 -0.2684
 7993TIP3    H145470   5.241   3.768   1.509 -0.6662 -2.5178 -0.9575
 7993TIP3    H245471   5.291   3.823   1.377  0.1203 -1.0403 -0.0627
 7994TIP3   OH245472   3.191   2.115   5.059  0.2073  0.0533 -0.4317
 7994TIP3    H145473   3.243   2.041   5.025 -0.5686 -0.3270 -0.8226
 7994TIP3    H245474   3.214   2.119   5.152 -0.2335 -1.1186 -0.2505
 7995TIP3   OH245475   1.692   5.836   0.851 -0.5924  0.1559 -0.3595
 7995TIP3    H145476   1.624   5.885   0.805 -1.3794  1.7409  2.2856
 7995TIP3    H245477   1.646   5.789   0.920  0.9039  0.8750  1.1996
 7996TIP3   OH245478   3.432   2.512  17.070 -0.3462 -0.1550  0.5731
 7996TIP3    H145479   3.410   2.586  17.014 -1.3022 -0.8123  0.0426
 7996TIP3    H245480   3.378   2.525  17.149  0.5630  0.4642  1.0993
 7997TIP3   OH245481   0.856   2.557   4.310 -0.2463 -0.4833  0.1744
 7997TIP3    H145482   0.886   2.647   4.298 -0.9740 -0.1899  0.4881
 7997TIP3    H245483   0.876   2.537   4.401 -0.5987 -0.4325  0.2662
 7998TIP3   OH245484   3.588   1.686   5.860  0.1935  0.0944  0.1564
 7998TIP3    H145485   3.668   1.643   5.888 -0.4506 -1.7377 -0.7070
 7998TIP3    H245486   3.525   1.615   5.848 -0.4155  1.0354 -3.0677
 7999TIP3   OH245487   2.821   6.320   5.194  0.1519 -0.2588 -0.8797
 7999TIP3    H145488   2.752   6.386   5.186  2.6711  2.5306 -1.4082
 7999TIP3    H245489   2.878   6.335   5.119  2.1246 -1.4513  0.2766
 8000TIP3   OH245490   0.257   6.743  14.573 -0.0229 -0.0519 -0.0278
 8000TIP3    H145491   0.217   6.662  14.605  2.1953 -0.8980  0.8205
 8000TIP3    H245492   0.257   6.734  14.478 -0.4473 -0.7310  0.0307
 8001TIP3   OH245493   5.692   4.771  12.401 -0.2572  0.3441 -0.4334
 8001TIP3    H145494   5.710   4.680  12.421  1.4525  0.4260 -1.4288
 8001TIP3    H245495   5.618   4.794  12.458  0.1736 -1.2436  0.8402
 8002TIP3   OH245496   1.911   3.974  12.733  0.3095  0.1877 -0.2455
 8002TIP3    H145497   1.853   4.001  12.662  0.2595 -0.0304 -0.2860
 8002TIP3    H245498   1.931   3.883  12.715  2.4600  0.8317 -1.4880
 8003TIP3   OH245499   0.140   2.571  13.988  0.6623  0.1787 -0.1417
 8003TIP3    H145500   0.157   2.477  13.975 -0.0204  0.1173 -0.6561
 8003TIP3    H245501   0.048   2.575  14.012  1.0940  0.5874  1.6069
 8004TIP3   OH245502   2.579   2.800   1.234  0.5487  0.2544  0.2014
 8004TIP3    H145503   2.644   2.800   1.304 -0.4012  1.5389  1.1463
 8004TIP3    H245504   2.496   2.821   1.278 -0.2956 -0.1455 -1.1296
 8005TIP3   OH245505   5.440   1.377   2.369 -0.1290 -0.1865  0.7038
 8005TIP3    H145506   5.368   1.347   2.425 -1.4171 -2.3313 -1.8695
 8005TIP3    H245507   5.397   1.429   2.301  1.1851  0.9763  0.7051
 8006TIP3   OH245508   6.814   3.358  11.627 -0.3253  0.1195 -0.1996
 8006TIP3    H145509   6.900   3.388  11.598 -1.5704  2.1497 -2.0726
 8006TIP3    H245510   6.817   3.364  11.722  1.3572  0.7834 -0.2555
 8007TIP3   OH245511   2.191   1.160  14.956 -0.3282 -0.7937 -0.3710
 8007TIP3    H145512   2.126   1.198  14.896  1.2617 -0.3972 -1.9438
 8007TIP3    H245513   2.197   1.223  15.027 -0.4090  0.0502 -1.0918
 8008TIP3   OH245514   4.142   2.178   1.990  0.1657  0.6975  0.1450
 8008TIP3    H145515   4.107   2.184   2.078  2.2017 -0.8367  1.1378
 8008TIP3    H245516   4.103   2.098   1.954 -0.3558  1.1066 -0.2051
 8009TIP3   OH245517   1.927   5.557  11.290 -0.3176  0.5602  0.1133
 8009TIP3    H145518   1.960   5.509  11.366 -0.0591  0.6346  0.0510
 8009TIP3    H245519   1.876   5.629  11.327 -0.7121  0.2386  0.2071
 8010TIP3   OH245520   5.087   0.496   5.555  0.0074  0.0262 -0.1583
 8010TIP3    H145521   5.150   0.518   5.624  0.9273 -2.1909 -0.1891
 8010TIP3    H245522   5.050   0.412   5.583 -3.2684  1.3670  0.0202
 8011TIP3   OH245523   6.359   5.354  16.904  0.4375  0.2986 -0.4756
 8011TIP3    H145524   6.410   5.434  16.889  1.7892 -0.4373  0.0337
 8011TIP3    H245525   6.423   5.283  16.898 -0.8740 -0.8312 -1.6711
 8012TIP3   OH245526   4.730   2.872  11.675 -0.4096 -0.0872  0.3788
 8012TIP3    H145527   4.721   2.929  11.599  0.1713  3.0368  2.4689
 8012TIP3    H245528   4.824   2.852  11.680 -0.6813 -1.9142 -0.6920
 8013TIP3   OH245529   0.610   4.730  13.541  0.3065 -0.3463  0.0295
 8013TIP3    H145530   0.698   4.764  13.558 -0.3710  0.4186  2.2795
 8013TIP3    H245531   0.607   4.646  13.585 -0.0350 -0.4529 -0.1894
 8014TIP3   OH245532   3.531   6.289  17.241 -0.1139 -0.5532  0.0733
 8014TIP3    H145533   3.528   6.379  17.274 -1.0729 -0.8514  0.8540
 8014TIP3    H245534   3.609   6.286  17.185  0.5343  0.4676  0.8946
 8015TIP3   OH245535   4.458   2.462   6.136 -0.9756  0.3770 -0.0158
 8015TIP3    H145536   4.493   2.420   6.215  0.9366  0.8273 -0.5758
 8015TIP3    H245537   4.476   2.400   6.066  0.5900  1.4623 -0.6235
 8016TIP3   OH245538   3.261   1.498   5.810 -0.0665 -0.5896  0.0166
 8016TIP3    H145539   3.224   1.410   5.799  0.4228 -0.6647 -1.1953
 8016TIP3    H245540   3.232   1.546   5.733 -0.0054  0.1974  0.4823
 8017TIP3   OH245541   6.632   1.812  12.360  0.1458 -0.2390 -0.0597
 8017TIP3    H145542   6.624   1.881  12.426  0.6827 -0.2188 -0.0146
 8017TIP3    H245543   6.634   1.730  12.411 -0.6827 -0.3089 -0.1227
 8018TIP3   OH245544   2.147   6.757   2.992  0.1193 -0.0468 -0.1421
 8018TIP3    H145545   2.208   6.685   3.009 -1.0744 -1.2149 -0.5855
 8018TIP3    H245546   2.066   6.730   3.035 -0.0501  1.5903  0.6647
 8019TIP3   OH245547   0.589   6.000  16.942 -0.4378 -0.4158  0.1401
 8019TIP3    H145548   0.608   5.937  16.873 -0.0199  0.2908 -0.4028
 8019TIP3    H245549   0.515   5.962  16.990  0.7419 -2.0204  0.7538
 8020TIP3   OH245550   5.854   3.229  14.889  0.0595 -0.1018 -0.9375
 8020TIP3    H145551   5.938   3.187  14.905 -0.6904 -0.9128  1.1045
 8020TIP3    H245552   5.873   3.323  14.891  0.4805 -0.1350  2.8444
 8021TIP3   OH245553   1.143   4.357  12.964  0.3573 -0.3107 -0.8923
 8021TIP3    H145554   1.229   4.343  13.004 -0.0583 -0.7543 -0.1456
 8021TIP3    H245555   1.155   4.434  12.908  1.2264 -0.3457 -0.7687
 8022TIP3   OH245556   4.990   3.564   3.294  0.2558 -0.5407 -0.5413
 8022TIP3    H145557   4.914   3.581   3.239  0.2390  0.2136 -0.2986
 8022TIP3    H245558   4.956   3.570   3.384  1.1384  3.0322 -0.2781
 8023TIP3   OH245559   1.976   0.089   1.906 -0.1017  0.2032  0.3389
 8023TIP3    H145560   1.932   0.028   1.966  2.5409 -1.0850  1.1301
 8023TIP3    H245561   2.015   0.155   1.964  1.7912 -0.5937  0.0429
 8024TIP3   OH245562   3.221   0.578   5.753 -0.2182 -0.1478  0.5981
 8024TIP3    H145563   3.257   0.632   5.823  1.2317  0.0061 -0.2445
 8024TIP3    H245564   3.263   0.493   5.764  1.2538  0.3092 -0.9778
 8025TIP3   OH245565   1.501   2.621   3.203 -0.1911 -0.1361  0.2309
 8025TIP3    H145566   1.546   2.688   3.152  0.8189 -0.9755 -0.0105
 8025TIP3    H245567   1.538   2.627   3.291 -2.1857  1.5510  1.0495
 8026TIP3   OH245568   2.919   5.013   4.194 -0.2287  0.8239  0.3902
 8026TIP3    H145569   2.994   5.063   4.161 -0.1955  1.1363  0.9381
 8026TIP3    H245570   2.845   5.073   4.187 -0.3805  0.6128  0.1237
 8027TIP3   OH245571   3.824   2.803   4.694 -1.1755  0.2576  0.2511
 8027TIP3    H145572   3.859   2.817   4.607  0.6385 -1.0092  0.7246
 8027TIP3    H245573   3.843   2.884   4.742 -0.5695  0.2841 -0.0323
 8028TIP3   OH245574   0.968   6.551   0.259 -0.4896  0.0930  0.1912
 8028TIP3    H145575   1.059   6.577   0.267  0.0274 -1.0835 -1.3514
 8028TIP3    H245576   0.921   6.606   0.322  1.2831  0.6306  1.0984
 8029TIP3   OH245577   2.259   5.454   1.017 -0.0335  0.0345  0.0042
 8029TIP3    H145578   2.224   5.404   1.091 -1.6987 -1.4971 -1.7133
 8029TIP3    H245579   2.348   5.422   1.007 -0.5520 -1.4737 -0.0494
 8030TIP3   OH245580   6.177   1.553   3.544  0.0230 -0.0703  0.0875
 8030TIP3    H145581   6.178   1.532   3.638  1.2240 -1.5822 -0.2185
 8030TIP3    H245582   6.225   1.636   3.538 -0.4264  0.2544  0.8478
 8031TIP3   OH245583   3.509   3.169  12.925 -0.4567 -0.1881 -0.2363
 8031TIP3    H145584   3.571   3.162  12.997 -1.1593  1.6431  0.6139
 8031TIP3    H245585   3.563   3.182  12.847  0.2694 -1.0144  0.1106
 8032TIP3   OH245586   2.971   5.141   5.199  0.0662 -0.1701  0.5915
 8032TIP3    H145587   2.938   5.230   5.187 -1.5000 -0.4253  2.4297
 8032TIP3    H245588   3.063   5.152   5.219  0.1975  0.9197 -0.5032
 8033TIP3   OH245589   2.009   3.153  15.933 -0.5279 -0.3978 -0.3796
 8033TIP3    H145590   2.084   3.161  15.992 -0.2772 -0.9001 -0.6260
 8033TIP3    H245591   1.933   3.149  15.991 -0.3772  0.2169 -0.1319
 8034TIP3   OH245592   1.882   3.547   3.085  0.2996 -0.0391  0.1819
 8034TIP3    H145593   1.790   3.547   3.059  0.3777 -1.1422 -0.1527
 8034TIP3    H245594   1.912   3.636   3.069 -0.5939  0.2128 -0.1249
 8035TIP3   OH245595   5.895   6.648   2.524  0.3307 -0.1721  0.4548
 8035TIP3    H145596   5.969   6.687   2.570  0.8365 -0.5696 -0.0083
 8035TIP3    H245597   5.934   6.603   2.450 -0.4452  0.2710 -0.2472
 8036TIP3   OH245598   4.251   1.109  15.319 -0.3590  0.5577 -0.1369
 8036TIP3    H145599   4.214   1.053  15.251 -0.1705  0.4235 -0.1259
 8036TIP3    H245600   4.188   1.182  15.325  0.0627  1.0292 -1.0771
 8037TIP3   OH245601   3.406   1.053   1.087  0.2040  0.4354  0.0437
 8037TIP3    H145602   3.486   1.105   1.083  1.0702 -0.9064 -1.2690
 8037TIP3    H245603   3.366   1.062   1.000 -0.2629 -0.1190  0.1903
 8038TIP3   OH245604   2.531   4.956   4.004  0.2890  0.1382  0.3934
 8038TIP3    H145605   2.579   5.033   3.975  0.4610  0.5166  1.6390
 8038TIP3    H245606   2.511   4.909   3.923 -1.9189  2.6720 -0.7275
 8039TIP3   OH245607   1.041   3.994  12.060  0.1114 -0.4862  0.0569
 8039TIP3    H145608   1.024   4.060  11.993  1.5799 -0.1802 -0.0598
 8039TIP3    H245609   1.064   3.915  12.010  1.3630 -0.2130  0.1750
 8040TIP3   OH245610   3.821   4.226  11.946  0.0419 -0.0062  0.2930
 8040TIP3    H145611   3.857   4.236  11.858  0.7582  1.4990  0.7182
 8040TIP3    H245612   3.896   4.199  12.000 -0.4886 -1.3680  0.3862
 8041TIP3   OH245613   0.749   0.925   4.791  0.3034  0.2981  0.4539
 8041TIP3    H145614   0.799   0.989   4.740  0.5572  0.9779  1.5229
 8041TIP3    H245615   0.799   0.914   4.872  0.7701 -1.9917 -0.0673
 8042TIP3   OH245616   5.145   0.246  16.699  0.4769 -0.5740  0.2017
 8042TIP3    H145617   5.060   0.206  16.719 -0.8207  1.9505  0.1242
 8042TIP3    H245618   5.187   0.258  16.784  0.8740 -1.9450  0.2310
 8043TIP3   OH245619   0.919   4.913   0.846  0.1479  0.0496  0.5786
 8043TIP3    H145620   0.913   4.989   0.904  0.3361 -1.0549  2.0817
 8043TIP3    H245621   0.860   4.848   0.884 -0.6703 -0.2895 -1.1673
 8044TIP3   OH245622   4.851   6.627   4.819  0.0588  0.0354 -0.2383
 8044TIP3    H145623   4.817   6.590   4.900  0.6375  1.4504  0.6803
 8044TIP3    H245624   4.884   6.551   4.770 -1.9277 -1.0582  0.0035
 8045TIP3   OH245625   0.972   1.547   2.172 -0.0513 -0.0883  0.3320
 8045TIP3    H145626   1.058   1.525   2.209  0.4162  0.4090 -0.4184
 8045TIP3    H245627   0.921   1.579   2.246  1.1643  1.7655  0.4339
 8046TIP3   OH245628   4.798   3.612  13.497 -0.1848 -0.1544 -0.1076
 8046TIP3    H145629   4.747   3.537  13.527 -2.6351  2.0205  1.5906
 8046TIP3    H245630   4.859   3.630  13.569 -0.0516 -0.1062 -0.2301
 8047TIP3   OH245631   6.627   4.330   3.896  0.5858  0.3203  0.0203
 8047TIP3    H145632   6.558   4.269   3.872  2.5020 -2.7452  1.6229
 8047TIP3    H245633   6.682   4.337   3.817  0.2638  0.0754 -0.2280
 8048TIP3   OH245634   1.626   2.721   1.920  0.0119 -0.0435  0.3229
 8048TIP3    H145635   1.689   2.763   1.862 -0.2490 -0.8214 -0.5609
 8048TIP3    H245636   1.588   2.650   1.867 -0.9713 -0.1396  1.1117
 8049TIP3   OH245637   5.329   1.991  14.514  0.0626  0.4800  0.5958
 8049TIP3    H145638   5.422   1.967  14.508 -0.1198  0.0111 -0.6761
 8049TIP3    H245639   5.294   1.935  14.583  0.3935 -0.4698  0.0132
 8050TIP3   OH245640   3.250   6.025   2.808  0.0907 -0.6626 -0.1181
 8050TIP3    H145641   3.203   6.032   2.725  0.9882  1.2156 -0.5210
 8050TIP3    H245642   3.322   5.964   2.791  0.1448 -0.4473 -0.6674
 8051TIP3   OH245643   1.153   3.072  15.627  0.2230 -0.4773 -0.1358
 8051TIP3    H145644   1.097   3.017  15.573 -0.8919 -0.5633  1.0481
 8051TIP3    H245645   1.242   3.048  15.602 -0.2448 -1.8665 -0.5735
 8052TIP3   OH245646   3.179   2.967  12.356 -0.2476 -0.1135 -0.1600
 8052TIP3    H145647   3.259   3.013  12.331  1.0052  0.1542  3.7465
 8052TIP3    H245648   3.148   3.014  12.433 -2.3837 -2.1896  0.3332
 8053TIP3   OH245649   4.710   3.390   2.277 -0.2181 -0.0445 -0.5773
 8053TIP3    H145650   4.644   3.338   2.231 -0.5590 -0.5681  0.4804
 8053TIP3    H245651   4.714   3.472   2.229  0.5363 -1.1299 -2.4722
 8054TIP3   OH245652   3.439   3.611  16.084 -0.1342  0.0579  0.2134
 8054TIP3    H145653   3.435   3.705  16.070 -0.2283 -0.1933 -1.7136
 8054TIP3    H245654   3.390   3.573  16.011  1.9985 -1.5487 -0.4964
 8055TIP3   OH245655   0.727   3.589  17.187 -0.0984  0.3275  0.3143
 8055TIP3    H145656   0.757   3.677  17.208 -0.9212  0.8417 -0.5678
 8055TIP3    H245657   0.785   3.559  17.117 -0.7653  0.7941 -0.4587
 8056TIP3   OH245658   4.549   5.183   5.814  0.3935 -0.0488 -0.4383
 8056TIP3    H145659   4.499   5.103   5.830 -0.6228  0.4142 -1.1962
 8056TIP3    H245660   4.627   5.153   5.766  0.7453 -0.7429  0.5244
 8057TIP3   OH245661   5.142   0.557  12.012  0.2047 -0.4517 -0.0429
 8057TIP3    H145662   5.139   0.653  12.009  0.3467 -0.4557 -0.3825
 8057TIP3    H245663   5.231   0.535  11.982  0.3851 -0.6642  0.6356
 8058TIP3   OH245664   0.450   4.085  11.079 -0.1819 -0.7530 -0.5636
 8058TIP3    H145665   0.526   4.049  11.036  0.6987  0.6964 -0.3066
 8058TIP3    H245666   0.393   4.113  11.008 -0.2673 -1.4026 -0.7565
 8059TIP3   OH245667   6.549   3.583  15.331 -0.1237 -1.0941 -0.3582
 8059TIP3    H145668   6.559   3.510  15.270  2.9670 -1.2697  0.1692
 8059TIP3    H245669   6.572   3.660  15.280 -0.7104 -0.8308 -0.2266
 8060TIP3   OH245670   5.114   5.348   2.353 -0.0780 -0.0942 -0.5281
 8060TIP3    H145671   5.143   5.285   2.286  2.5016  0.6654 -0.2275
 8060TIP3    H245672   5.096   5.428   2.304 -1.5418 -0.4720 -0.6709
 8061TIP3   OH245673   1.924   0.583   3.838  0.0071  0.9263 -0.4655
 8061TIP3    H145674   1.871   0.632   3.775  0.9965 -0.5976 -2.6337
 8061TIP3    H245675   1.866   0.512   3.868  0.3672  0.0136 -1.8519
 8062TIP3   OH245676   0.717   1.266  13.111 -0.2656 -0.0045 -0.0311
 8062TIP3    H145677   0.684   1.177  13.116  0.2584 -0.2312 -0.4175
 8062TIP3    H245678   0.650   1.320  13.153 -1.3976 -0.3708 -1.2774
 8063TIP3   OH245679   1.447   0.492   1.539 -0.4253 -0.2097 -0.3778
 8063TIP3    H145680   1.411   0.490   1.627 -0.6655  1.1885 -0.4269
 8063TIP3    H245681   1.376   0.523   1.484  0.1925  0.4632 -0.8174
 8064TIP3   OH245682   5.295   2.276  13.585  0.5105 -0.1468  0.1722
 8064TIP3    H145683   5.380   2.259  13.626  0.6508 -3.4470 -1.1621
 8064TIP3    H245684   5.317   2.325  13.506  1.0849 -0.1537  0.3205
 8065TIP3   OH245685   4.914   6.348   0.667 -0.2861 -0.2658 -0.2432
 8065TIP3    H145686   4.903   6.397   0.748 -0.3953  1.7721 -1.4201
 8065TIP3    H245687   4.913   6.256   0.694  1.3134  0.3511  2.2439
 8066TIP3   OH245688   0.823   2.941  16.026  0.1748 -0.1515  0.3317
 8066TIP3    H145689   0.837   3.029  16.062 -2.1354  0.0294  0.9658
 8066TIP3    H245690   0.733   2.920  16.050  0.8364 -2.9420  0.6473
 8067TIP3   OH245691   1.088   5.667   2.021  0.2957 -0.6278 -0.2872
 8067TIP3    H145692   1.029   5.591   2.019  1.5510 -1.6228 -0.7969
 8067TIP3    H245693   1.079   5.706   1.935 -2.7273  1.7650  0.9443
 8068TIP3   OH245694   4.627   6.766  14.269 -0.6788 -0.0242 -0.5108
 8068TIP3    H145695   4.610   6.735  14.180  0.5800  0.2134 -0.8479
 8068TIP3    H245696   4.619   6.861  14.263  0.5069  0.0740 -0.6255
 8069TIP3   OH245697   0.334   2.469  12.696  0.3065  0.0006  0.2537
 8069TIP3    H145698   0.423   2.453  12.664  0.6053  1.6082  0.1871
 8069TIP3    H245699   0.314   2.559  12.668 -2.3013 -1.0906 -1.9476
 8070TIP3   OH245700   4.460   2.254  11.968  0.1225  0.0058  0.8324
 8070TIP3    H145701   4.449   2.328  11.908  0.8207 -1.1558 -0.8116
 8070TIP3    H245702   4.512   2.288  12.040 -1.5370  1.6904  1.3155
 8071TIP3   OH245703   5.630   3.574  14.651 -0.0029  0.0323  0.2278
 8071TIP3    H145704   5.631   3.625  14.732 -0.1641  1.1172 -0.4260
 8071TIP3    H245705   5.541   3.584  14.617  0.0386 -0.4831 -0.0465
 8072TIP3   OH245706   3.014   4.613  14.182 -0.5743  0.0027  0.0255
 8072TIP3    H145707   2.926   4.602  14.147 -0.7013  3.0297 -0.8508
 8072TIP3    H245708   3.043   4.698  14.149  2.7170 -0.8788  0.2587
 8073TIP3   OH245709   2.204   1.041   5.760 -0.5597 -0.1199 -0.2515
 8073TIP3    H145710   2.173   1.074   5.676 -0.7026 -1.1466 -0.6282
 8073TIP3    H245711   2.294   1.013   5.744 -0.8796 -1.1727 -0.3332
 8074TIP3   OH245712   1.324   1.540   2.868  0.1753 -0.0048  0.4516
 8074TIP3    H145713   1.229   1.534   2.876  0.0860  1.9127  1.3044
 8074TIP3    H245714   1.355   1.565   2.955  1.5068 -0.8995  0.2693
 8075TIP3   OH245715   2.534   6.131   5.010 -0.3365 -0.0932  0.4561
 8075TIP3    H145716   2.622   6.097   5.025 -0.3797 -1.0891 -1.3398
 8075TIP3    H245717   2.531   6.148   4.916 -2.4040 -1.0686  0.3125
 8076TIP3   OH245718   3.222   3.569   4.996 -0.3956 -0.3065 -0.3968
 8076TIP3    H145719   3.253   3.557   5.086  2.3496 -0.4864 -1.2660
 8076TIP3    H245720   3.300   3.596   4.948 -2.0781  1.1528 -2.4984
 8077TIP3   OH245721   3.396   1.491   0.584 -0.2945 -0.4323  0.4316
 8077TIP3    H145722   3.324   1.545   0.615 -0.3020  0.1916 -0.6147
 8077TIP3    H245723   3.393   1.498   0.488  1.0653 -0.4944  0.3506
 8078TIP3   OH245724   4.349   0.265   5.485  0.3350 -0.2282  0.3154
 8078TIP3    H145725   4.371   0.256   5.577  0.0646 -1.5748  0.2683
 8078TIP3    H245726   4.396   0.344   5.456 -1.4239  1.6235  2.1416
 8079TIP3   OH245727   2.548   5.042   0.469 -0.2634  0.7490  0.7356
 8079TIP3    H145728   2.629   5.091   0.471  0.7754 -0.8363 -0.1380
 8079TIP3    H245729   2.484   5.102   0.430  1.3641  0.8745 -1.9185
 8080TIP3   OH245730   5.293   4.467  11.298  0.1867 -0.2082  0.4905
 8080TIP3    H145731   5.280   4.434  11.209 -1.2536  2.3060 -0.3404
 8080TIP3    H245732   5.376   4.513  11.294 -0.5110  1.0753 -0.0155
 8081TIP3   OH245733   4.702   0.627  12.229  0.4263  0.1874  0.3067
 8081TIP3    H145734   4.685   0.721  12.224  1.3640  0.2935 -1.9045
 8081TIP3    H245735   4.797   0.620  12.237  0.5464 -0.5601 -1.3668
 8082TIP3   OH245736   6.677   3.399   1.964  0.0483  0.1315  0.1690
 8082TIP3    H145737   6.740   3.329   1.978 -0.1881 -0.2018 -0.3992
 8082TIP3    H245738   6.597   3.354   1.936  0.2956  0.6994 -1.5637
 8083TIP3   OH245739   2.042   0.940   5.955  0.1437 -0.0623  0.0878
 8083TIP3    H145740   2.085   0.975   5.877  0.3534 -1.2093 -0.3185
 8083TIP3    H245741   2.075   0.851   5.964 -0.7502 -0.3420  0.8286
 8084TIP3   OH245742   3.858   4.927   3.283 -0.1981 -0.0255 -0.1343
 8084TIP3    H145743   3.819   4.944   3.197 -0.2020  1.3899  0.1159
 8084TIP3    H245744   3.794   4.872   3.328  0.3126 -1.7336 -1.4104
 8085TIP3   OH245745   0.812   5.122   5.637 -1.2558  0.1010 -0.1792
 8085TIP3    H145746   0.776   5.124   5.548 -0.1052  1.4079 -0.6591
 8085TIP3    H245747   0.807   5.031   5.663 -0.5507 -0.5337 -2.0569
 8086TIP3   OH245748   3.931   4.236  12.363  0.0015 -0.0432  0.4059
 8086TIP3    H145749   3.953   4.145  12.342  1.3836  0.7248 -1.7344
 8086TIP3    H245750   3.846   4.250  12.324 -0.7731 -0.7032  1.7640
 8087TIP3   OH245751   5.591   3.015  16.642 -0.1101 -0.4859  0.4966
 8087TIP3    H145752   5.534   2.970  16.579  0.3774 -0.4618  0.0307
 8087TIP3    H245753   5.652   2.948  16.671  1.4148  0.0979 -1.1271
 8088TIP3   OH245754   1.845   2.840   5.663  0.0005 -0.5744 -0.8202
 8088TIP3    H145755   1.919   2.897   5.644 -0.0528  0.0465  0.7329
 8088TIP3    H245756   1.867   2.757   5.620  0.4465  0.3366 -2.4333
 8089TIP3   OH245757   2.705   4.163  11.434  0.3718 -0.2031 -0.0677
 8089TIP3    H145758   2.749   4.228  11.378 -0.3658  0.9269  0.6232
 8089TIP3    H245759   2.697   4.085  11.379  0.2179  0.6765 -1.3309
 8090TIP3   OH245760   4.771   1.826  14.339  0.2552  0.4876  0.1029
 8090TIP3    H145761   4.794   1.778  14.260  1.8228  0.2408  0.6903
 8090TIP3    H245762   4.848   1.819  14.395 -0.5289  1.3453  1.3269
 8091TIP3   OH245763   3.949   2.242   0.185 -0.0355 -0.0574 -0.5078
 8091TIP3    H145764   4.041   2.217   0.194 -0.2773 -0.9124 -0.3167
 8091TIP3    H245765   3.920   2.198   0.106 -0.5540 -0.6606  0.0071
 8092TIP3   OH245766   1.855   2.755  13.876 -0.3793 -0.5272  0.3599
 8092TIP3    H145767   1.882   2.846  13.873 -0.4045 -0.4916  0.9991
 8092TIP3    H245768   1.881   2.725  13.964  0.6843 -1.4643 -0.2407
 8093TIP3   OH245769   5.134   0.162   1.279  0.5392  0.1944 -0.4233
 8093TIP3    H145770   5.073   0.154   1.206  0.0732 -1.0936  0.0711
 8093TIP3    H245771   5.085   0.207   1.347  0.0837 -0.8813 -0.0092
 8094TIP3   OH245772   6.495   0.460  13.491  0.1634  0.0143  0.2869
 8094TIP3    H145773   6.447   0.401  13.549 -1.3359 -0.7759 -1.6616
 8094TIP3    H245774   6.466   0.548  13.517 -1.5778 -0.4000 -0.1816
 8095TIP3   OH245775   2.020   2.814  14.408  0.6818 -0.3611  0.1201
 8095TIP3    H145776   2.102   2.811  14.359  0.2406  0.4026 -0.6951
 8095TIP3    H245777   1.952   2.812  14.341 -0.0397 -2.3948  0.8195
 8096TIP3   OH245778   4.686   0.017  13.627 -0.0488 -0.2909  0.0510
 8096TIP3    H145779   4.677   0.070  13.548 -1.3456  1.0963  1.0797
 8096TIP3    H245780   4.731   0.073  13.689 -0.1851 -0.9020  0.7171
 8097TIP3   OH245781   2.549   4.318   1.870  0.5130  0.5031  0.2081
 8097TIP3    H145782   2.576   4.325   1.778  0.0635  1.4779  0.1453
 8097TIP3    H245783   2.468   4.267   1.867  0.6965  0.2128  0.1042
 8098TIP3   OH245784   3.144   6.480   2.702  0.0900 -0.1364  0.3408
 8098TIP3    H145785   3.230   6.444   2.723  0.0877  0.0512  0.6819
 8098TIP3    H245786   3.107   6.418   2.639  0.7142  0.1074 -0.2756
 8099TIP3   OH245787   1.385   3.230   3.053  0.3016  0.2076  0.2319
 8099TIP3    H145788   1.433   3.305   3.018 -0.2054  0.7791  0.7604
 8099TIP3    H245789   1.383   3.167   2.980  1.1097  0.5178 -0.0691
 8100TIP3   OH245790   6.510   2.243   5.344 -0.0785 -0.4371 -0.6313
 8100TIP3    H145791   6.492   2.229   5.251  0.7776 -0.0167 -0.8706
 8100TIP3    H245792   6.434   2.292   5.375  0.4889  1.1037 -1.5631
 8101TIP3   OH245793   5.993   0.862   3.606 -0.5342  0.0551 -0.3187
 8101TIP3    H145794   6.073   0.815   3.627 -0.0016  1.8630  2.0329
 8101TIP3    H245795   5.995   0.872   3.511  0.9304 -1.7785 -0.5239
 8102TIP3   OH245796   2.640   2.134  17.145 -0.1674 -0.1089 -0.0379
 8102TIP3    H145797   2.557   2.089  17.160  1.3343 -2.4417  2.2175
 8102TIP3    H245798   2.705   2.063  17.144  2.0978  1.8216  1.1165
 8103TIP3   OH245799   5.867   5.181  16.004  0.5073  0.0390 -0.7041
 8103TIP3    H145800   5.854   5.251  15.940  0.1223  0.8593  0.2482
 8103TIP3    H245801   5.907   5.224  16.079 -0.5648 -0.5586  0.2568
 8104TIP3   OH245802   3.362   0.094  11.390  0.0559  0.4254 -0.6514
 8104TIP3    H145803   3.367   0.006  11.352  0.6957 -0.3121  1.0432
 8104TIP3    H245804   3.269   0.111  11.401 -0.1201  0.4506 -2.0218
 8105TIP3   OH245805   6.373   2.970  13.120 -0.0322  0.1808 -0.4086
 8105TIP3    H145806   6.363   3.042  13.183 -0.8152  0.4271 -0.8075
 8105TIP3    H245807   6.288   2.926  13.121  0.0554 -0.0081 -1.0607
 8106TIP3   OH245808   5.981   3.729   4.529 -0.0403 -0.1139 -0.4849
 8106TIP3    H145809   5.995   3.691   4.616  0.8190 -0.2432 -0.6709
 8106TIP3    H245810   6.054   3.790   4.518  0.9294 -1.4508 -1.8606
 8107TIP3   OH245811   4.702   6.258   5.095  0.6877  0.7490 -0.6251
 8107TIP3    H145812   4.762   6.218   5.032  1.3152  1.5182 -0.5316
 8107TIP3    H245813   4.757   6.316   5.147  0.1775  0.1730  0.6134
 8108TIP3   OH245814   1.661   3.728   5.272  0.0221 -0.4078 -0.0549
 8108TIP3    H145815   1.611   3.791   5.323  2.3410  0.9151  0.7132
 8108TIP3    H245816   1.639   3.747   5.181 -0.5145  0.4355  0.2435
 8109TIP3   OH245817   4.076   0.070  13.316 -0.0486  0.0492 -0.1688
 8109TIP3    H145818   4.017   0.036  13.384  0.0949  1.6871  0.8227
 8109TIP3    H245819   4.124   0.141  13.359  0.9641  0.2996 -1.6394
 8110TIP3   OH245820   6.560   6.440   2.218  0.2290 -0.4956  0.1371
 8110TIP3    H145821   6.648   6.438   2.255 -0.2786  0.6750  1.5586
 8110TIP3    H245822   6.503   6.420   2.292 -0.6645 -3.4199 -1.2047
 8111TIP3   OH245823   5.131   4.140  11.245  0.2337  0.0164  0.4564
 8111TIP3    H145824   5.192   4.114  11.314  0.2460 -0.8483  0.1249
 8111TIP3    H245825   5.166   4.100  11.166  0.1424  0.8877 -0.0352
 8112TIP3   OH245826   2.408   1.640  15.593 -0.0554 -0.1476  0.5608
 8112TIP3    H145827   2.449   1.556  15.611 -0.9994 -0.9573 -0.9061
 8112TIP3    H245828   2.407   1.685  15.678 -0.2371 -1.9206  1.5343
 8113TIP3   OH245829   1.687   1.946  12.666  0.3488 -0.0582  0.0011
 8113TIP3    H145830   1.691   1.866  12.613 -3.1561 -1.2160  1.1656
 8113TIP3    H245831   1.726   1.921  12.750  0.7409 -0.0192 -0.1685
 8114TIP3   OH245832   2.198   3.172   1.461  0.0025 -0.2870  0.8675
 8114TIP3    H145833   2.258   3.220   1.518 -1.1444 -0.9799  2.7790
 8114TIP3    H245834   2.191   3.226   1.382  1.7544  0.6589  1.3087
 8115TIP3   OH245835   4.680   2.388   5.705 -0.2843  0.0935 -0.4241
 8115TIP3    H145836   4.617   2.374   5.776 -0.6008  0.3465 -0.6484
 8115TIP3    H245837   4.755   2.334   5.729 -0.1797  0.5719  0.3603
 8116TIP3   OH245838   1.307   0.382  17.210  0.2443 -0.3323  0.4948
 8116TIP3    H145839   1.270   0.401  17.297 -2.7711 -2.1770 -0.2239
 8116TIP3    H245840   1.305   0.287  17.204  2.5743 -0.3574 -0.8118
 8117TIP3   OH245841   1.128   0.629   3.654  0.2424  0.0184 -0.5435
 8117TIP3    H145842   1.137   0.575   3.733 -1.4768  0.0454 -0.2965
 8117TIP3    H245843   1.208   0.682   3.652  0.6593 -0.5213  0.7697
 8118TIP3   OH245844   4.270   3.805   1.146 -0.0114 -0.5351  0.2893
 8118TIP3    H145845   4.283   3.863   1.071  2.8280  0.4758  1.4160
 8118TIP3    H245846   4.186   3.831   1.182  1.2953  3.4119  1.0108
 8119TIP3   OH245847   1.227   1.983   3.153 -0.7756 -0.0828 -0.3382
 8119TIP3    H145848   1.178   2.028   3.086 -0.0721 -2.9857 -3.0548
 8119TIP3    H245849   1.319   1.999   3.132 -0.4973  0.6779  1.2671
 8120TIP3   OH245850   0.768   3.088  15.498  0.1520  0.8326 -0.8660
 8120TIP3    H145851   0.741   3.101  15.407 -1.3193 -0.2770 -0.6344
 8120TIP3    H245852   0.716   3.013  15.527  3.3494 -1.2879 -0.2336
 8121TIP3   OH245853   2.184   6.102  13.879 -0.0910  0.4945 -0.0036
 8121TIP3    H145854   2.172   6.151  13.961 -1.1151  1.8734 -0.9324
 8121TIP3    H245855   2.272   6.126  13.850  0.1326  0.2977  0.4986
 8122TIP3   OH245856   5.896   0.849  15.984 -0.3099  0.3490 -1.0149
 8122TIP3    H145857   5.899   0.913  15.913  1.6200 -1.2023 -2.4294
 8122TIP3    H245858   5.839   0.780  15.951 -0.2215  0.0834 -0.6088
 8123TIP3   OH245859   2.149   2.246   5.893  0.3794  0.8355 -0.3746
 8123TIP3    H145860   2.236   2.228   5.857 -0.1570  0.2175 -1.4354
 8123TIP3    H245861   2.115   2.316   5.837 -0.4090 -0.0304 -1.0222
 8124TIP3   OH245862   4.796   6.622  15.642 -0.1525 -0.2948  0.0017
 8124TIP3    H145863   4.839   6.640  15.558 -0.7462  1.2211 -0.0052
 8124TIP3    H245864   4.706   6.652  15.630  0.0892  1.2277  1.5825
 8125TIP3   OH245865   0.711   6.329   1.450 -0.2265 -0.4682  0.0647
 8125TIP3    H145866   0.655   6.254   1.432  1.0423 -1.7363  1.1204
 8125TIP3    H245867   0.765   6.301   1.524 -1.1768  2.2740  1.9389
 8126TIP3   OH245868   1.407   3.388  15.028 -0.0002  0.0570  0.3196
 8126TIP3    H145869   1.474   3.339  14.981 -1.9290 -1.9332 -0.5579
 8126TIP3    H245870   1.449   3.416  15.109  0.9761 -4.1956  1.5322
 8127TIP3   OH245871   6.247   3.459   4.269 -0.2473 -0.1051 -0.0352
 8127TIP3    H145872   6.294   3.377   4.287 -0.9724 -0.3139  0.9985
 8127TIP3    H245873   6.310   3.513   4.223  0.9550 -0.4467  1.1495
 8128TIP3   OH245874   0.632   4.749   0.198  0.3406 -0.0244  0.2826
 8128TIP3    H145875   0.571   4.817   0.225 -0.3673 -0.6381  0.2708
 8128TIP3    H245876   0.620   4.742   0.103 -0.0338 -0.5743  0.3649
 8129TIP3   OH245877   4.118   6.724   2.245 -0.1360 -0.0533  0.0942
 8129TIP3    H145878   4.185   6.698   2.182 -1.1498 -0.2111 -0.9398
 8129TIP3    H245879   4.116   6.653   2.309  0.2122 -0.3570 -0.2315
 8130TIP3   OH245880   4.518   4.812   6.149  0.8790 -0.0405  0.1709
 8130TIP3    H145881   4.595   4.869   6.144  1.6233 -0.8043  2.0504
 8130TIP3    H245882   4.531   4.760   6.229 -1.9609  0.3530  1.0135
 8131TIP3   OH245883   5.490   2.925   4.621  0.0455  0.4406  0.1842
 8131TIP3    H145884   5.476   2.993   4.688  1.5496 -0.3542  1.3670
 8131TIP3    H245885   5.404   2.883   4.612 -0.4002  1.1388  0.9647
 8132TIP3   OH245886   3.134   4.839  14.867  0.4857 -0.0625  0.3868
 8132TIP3    H145887   3.139   4.790  14.785  0.1294  0.1930  0.2099
 8132TIP3    H245888   3.194   4.912  14.854  1.0333 -0.4500  0.6589
 8133TIP3   OH245889   0.544   1.749   0.679  0.9811 -0.2351  0.8197
 8133TIP3    H145890   0.559   1.803   0.602 -0.6846  0.1166  0.7123
 8133TIP3    H245891   0.558   1.659   0.648 -0.8302 -0.1946 -0.2400
 8134TIP3   OH245892   6.115   3.123   6.377 -0.1303  0.3980 -0.5212
 8134TIP3    H145893   6.122   3.202   6.431 -0.2310 -0.1389  0.2881
 8134TIP3    H245894   6.025   3.093   6.389 -0.9500  1.5934 -2.9090
 8135TIP3   OH245895   3.998   3.943   1.328  0.4803  0.4196 -0.7554
 8135TIP3    H145896   4.031   3.881   1.394 -0.7373  1.2570  0.7159
 8135TIP3    H245897   4.033   4.028   1.354 -0.9017  0.9441 -0.4904
 8136TIP3   OH245898   5.584   4.358   3.578  0.0824 -0.3486  0.3884
 8136TIP3    H145899   5.608   4.271   3.612  0.6395 -1.4410 -2.5220
 8136TIP3    H245900   5.667   4.407   3.577  0.1470 -0.4618  0.1929
 8137TIP3   OH245901   0.211   3.153  13.586  0.0352 -0.0051  0.3268
 8137TIP3    H145902   0.235   3.239  13.553  2.2166 -1.1326 -1.2683
 8137TIP3    H245903   0.237   3.154  13.678 -2.6049  1.9146  1.1467
 8138TIP3   OH245904   3.636   4.789  16.476 -0.2139  0.6230  0.2521
 8138TIP3    H145905   3.665   4.749  16.558 -0.0643 -1.3887 -0.7189
 8138TIP3    H245906   3.557   4.837  16.500 -0.8759 -0.9268  1.3941
 8139TIP3   OH245907   4.619   0.015   5.866  0.4769 -0.2486  0.4695
 8139TIP3    H145908   4.665   0.079   5.920  0.9485  0.3722 -0.6287
 8139TIP3    H245909   4.598  -0.057   5.926 -0.7505  1.2470  1.9147
 8140TIP3   OH245910   6.305   1.786  13.055 -0.0761 -0.1942 -0.2718
 8140TIP3    H145911   6.385   1.831  13.030 -0.6540  0.1988 -1.4685
 8140TIP3    H245912   6.272   1.748  12.974 -0.9054 -0.6785  0.2744
 8141TIP3   OH245913   5.894   6.147  11.468 -0.2123  0.3568 -0.6871
 8141TIP3    H145914   5.800   6.142  11.482 -0.5628  0.6451 -2.6843
 8141TIP3    H245915   5.931   6.085  11.531 -1.8472 -0.8798 -0.8856
 8142TIP3   OH245916   5.948   3.760  14.298  0.6186  0.0350  0.1706
 8142TIP3    H145917   5.882   3.753  14.229 -0.0189 -0.1399  0.7882
 8142TIP3    H245918   5.921   3.697  14.364  1.9293 -0.7273  0.0197
 8143TIP3   OH245919   2.868   6.099  11.789  0.1205  0.0191 -0.1979
 8143TIP3    H145920   2.956   6.129  11.815 -0.8076  2.1771  0.7155
 8143TIP3    H245921   2.880   6.067  11.699  1.6682  1.2589 -0.4848
 8144TIP3   OH245922   0.823   1.964  13.633 -0.1494 -0.8654  0.2421
 8144TIP3    H145923   0.906   2.012  13.627 -0.2661 -0.8334 -1.4110
 8144TIP3    H245924   0.848   1.872  13.622 -0.1517 -1.0269  1.4751
 8145TIP3   OH245925   4.829   5.405  12.000 -0.2269  0.1719 -0.4739
 8145TIP3    H145926   4.845   5.316  11.971 -0.1907  0.2663 -0.7507
 8145TIP3    H245927   4.905   5.427  12.055 -0.8437 -0.4046  0.6500
 8146TIP3   OH245928   5.740   0.803  16.596 -0.4973 -0.0183 -0.2451
 8146TIP3    H145929   5.693   0.852  16.528  1.7242  0.9079 -1.2000
 8146TIP3    H245930   5.812   0.761  16.550  0.6128 -0.0302  1.4145
 8147TIP3   OH245931   4.867   1.429  13.483  0.5930 -0.6151  0.4954
 8147TIP3    H145932   4.880   1.522  13.462  1.3914 -1.2571 -2.2800
 8147TIP3    H245933   4.788   1.427  13.536 -0.1112  1.5645 -0.3692
 8148TIP3   OH245934   3.582   3.377   5.463 -0.4958 -0.4592 -0.4229
 8148TIP3    H145935   3.587   3.346   5.373  2.2352 -0.7558 -0.2482
 8148TIP3    H245936   3.579   3.297   5.516  1.2739 -0.4087 -0.1775
 8149TIP3   OH245937   6.045   5.575   0.738 -0.2649 -0.0834 -0.8246
 8149TIP3    H145938   6.110   5.646   0.738  0.5802 -0.8414 -0.6621
 8149TIP3    H245939   6.034   5.554   0.645  0.4500 -0.5973 -0.7990
 8150TIP3   OH245940   2.432   2.455   2.302  0.5448 -0.6383 -0.0885
 8150TIP3    H145941   2.465   2.399   2.232  1.8163 -2.7887  2.0463
 8150TIP3    H245942   2.418   2.540   2.261  2.6261 -1.3781 -2.5957
 8151TIP3   OH245943   6.565   0.491   5.508 -0.4045 -0.0549 -0.2391
 8151TIP3    H145944   6.510   0.563   5.539 -0.0376  0.3831 -0.5871
 8151TIP3    H245945   6.523   0.412   5.542  0.1491  0.4114  1.6338
 8152TIP3   OH245946   0.415   5.272   5.287  0.2297  0.2026  0.0748
 8152TIP3    H145947   0.364   5.351   5.268  0.7854  0.9879  1.6415
 8152TIP3    H245948   0.463   5.255   5.206  0.5947  1.8649 -0.0911
 8153TIP3   OH245949   1.431   1.078   6.175  0.2982  0.5155 -0.1202
 8153TIP3    H145950   1.396   0.992   6.153 -1.2741  0.9091  0.6641
 8153TIP3    H245951   1.470   1.110   6.094  0.6001 -0.7748 -0.5103
 8154TIP3   OH245952   0.410   1.331  16.883  0.0575  0.5071 -0.4642
 8154TIP3    H145953   0.370   1.403  16.930  0.1807  0.7588 -0.7400
 8154TIP3    H245954   0.390   1.348  16.791  1.6923  1.2395 -0.7277
 8155TIP3   OH245955   3.289   0.339   6.122 -0.3068 -0.4077 -0.5164
 8155TIP3    H145956   3.275   0.355   6.215 -0.6229  1.4431 -0.8367
 8155TIP3    H245957   3.376   0.300   6.117  0.0777  0.2681  0.5064
 8156TIP3   OH245958   6.250   0.523  12.130 -0.2952 -0.4967 -0.0793
 8156TIP3    H145959   6.284   0.494  12.045 -0.0825 -1.0327  0.1840
 8156TIP3    H245960   6.165   0.561  12.109 -0.6737 -1.4899 -0.4217
 8157TIP3   OH245961   6.212   4.600   5.965 -0.0579 -0.0370 -0.0422
 8157TIP3    H145962   6.212   4.538   5.893  0.5050 -0.9723  0.7405
 8157TIP3    H245963   6.218   4.546   6.044  0.8553  1.0190  0.6417
 8158TIP3   OH245964   6.820   4.861   2.129 -0.0016 -0.2414 -0.1014
 8158TIP3    H145965   6.799   4.931   2.190  0.0853 -1.3694  1.2628
 8158TIP3    H245966   6.743   4.804   2.129 -0.1093 -0.1352 -1.2561
 8159TIP3   OH245967   5.287   5.431   3.351 -0.5512 -0.6120 -0.1664
 8159TIP3    H145968   5.278   5.351   3.403  0.2820 -0.7442 -0.2059
 8159TIP3    H245969   5.381   5.436   3.331 -0.7944 -0.3728 -1.3521
 8160TIP3   OH245970   6.655   5.052  13.484 -0.5877  0.3107 -0.0714
 8160TIP3    H145971   6.561   5.069  13.488 -0.5672  0.1597  1.7665
 8160TIP3    H245972   6.667   4.972  13.536  0.4023 -0.4879 -1.4465
 8161TIP3   OH245973   4.004   4.608   0.675  0.4465 -0.4142  0.3373
 8161TIP3    H145974   3.941   4.636   0.609  0.1462 -2.4232 -0.2935
 8161TIP3    H245975   3.961   4.628   0.759  0.5371  1.5092 -0.0277
 8162TIP3   OH245976   5.119   0.586   0.372 -0.2751  0.2368  0.0073
 8162TIP3    H145977   5.193   0.638   0.404 -0.2250 -0.0404  0.3467
 8162TIP3    H245978   5.042   0.630   0.408 -0.1958 -0.3934  1.0008
 8163TIP3   OH245979   5.728   6.483  12.632 -0.7290 -0.0502 -0.7710
 8163TIP3    H145980   5.695   6.466  12.544  0.8671  0.8740 -1.5940
 8163TIP3    H245981   5.819   6.455  12.629 -0.6656 -0.0402  0.6061
 8164TIP3   OH245982   4.883   4.127  13.343 -0.6602 -0.7570 -0.9419
 8164TIP3    H145983   4.956   4.114  13.282  0.7993  0.8619  0.3588
 8164TIP3    H245984   4.822   4.183  13.295  0.8726  1.2195 -0.7014
 8165TIP3   OH245985   1.692   5.399  11.992  0.0559  0.6166 -0.3357
 8165TIP3    H145986   1.737   5.340  12.053 -0.5143 -0.5401 -0.9999
 8165TIP3    H245987   1.762   5.433  11.936  0.2645 -0.3556 -0.6920
 8166TIP3   OH245988   4.970   4.625   4.485 -0.0408  0.7179  0.1184
 8166TIP3    H145989   4.962   4.566   4.560  1.0577 -1.1679 -1.1676
 8166TIP3    H245990   4.881   4.659   4.472 -1.1195 -1.8747  0.0014
 8167TIP3   OH245991   0.891   3.197  15.168 -0.3811 -0.5160 -0.0654
 8167TIP3    H145992   0.872   3.265  15.104  0.4851  1.7918  1.9712
 8167TIP3    H245993   0.979   3.167  15.145  0.4484  1.1910  0.6534
 8168TIP3   OH245994   1.498   0.224   2.087 -0.2646 -0.1291 -0.0527
 8168TIP3    H145995   1.427   0.178   2.041 -0.1661 -1.1872  0.7978
 8168TIP3    H245996   1.571   0.163   2.085  0.5233  0.8244 -0.6255
 8169TIP3   OH245997   2.201   4.877  14.540  0.2951  0.2186 -0.2737
 8169TIP3    H145998   2.266   4.910  14.601 -0.1106  2.8216 -1.1081
 8169TIP3    H245999   2.146   4.818  14.592  1.1730  0.7679  1.3307
 8170TIP3   OH246000   2.010   3.278   4.408  0.2157 -0.4907  0.0871
 8170TIP3    H146001   1.968   3.245   4.488  0.4017 -1.0424 -0.0377
 8170TIP3    H246002   1.950   3.344   4.375 -0.7055 -1.4641 -0.2384
 8171TIP3   OH246003   2.046   5.492  14.790 -0.3906 -0.2604  0.2343
 8171TIP3    H146004   2.123   5.473  14.736 -0.8317 -0.5559 -0.3024
 8171TIP3    H246005   1.984   5.533  14.730 -0.2597  0.9635  0.9008
 8172TIP3   OH246006   2.300   3.907  11.610 -0.1793  0.0848  0.3484
 8172TIP3    H146007   2.220   3.874  11.568  0.6822 -1.0824 -0.4242
 8172TIP3    H246008   2.356   3.935  11.537  0.5229 -0.0489  0.8327
 8173TIP3   OH246009   2.721   3.233   1.218  0.5185  0.0640  0.6762
 8173TIP3    H146010   2.774   3.286   1.276  0.6588  0.2828  0.3512
 8173TIP3    H246011   2.747   3.260   1.130  0.2731 -0.2257  0.5114
 8174TIP3   OH246012   2.881   1.124   2.295 -0.1844  0.2094  0.1740
 8174TIP3    H146013   2.794   1.127   2.256  0.2264  0.5423 -0.7738
 8174TIP3    H246014   2.923   1.206   2.266  1.5347 -1.3437 -2.1142
 8175TIP3   OH246015   6.709   2.107   4.524 -0.2116 -0.2282  0.3776
 8175TIP3    H146016   6.673   2.110   4.436 -2.2049  0.4688  1.1655
 8175TIP3    H246017   6.782   2.169   4.523  0.3819 -0.9085 -0.9953
 8176TIP3   OH246018   0.039   1.849   4.435 -0.3983  0.3193 -0.0146
 8176TIP3    H146019   0.100   1.894   4.377 -0.6438 -0.7772 -1.1599
 8176TIP3    H246020   0.066   1.757   4.434 -2.1146 -0.2133 -0.6546
 8177TIP3   OH246021   3.494   3.769  14.264  0.3577  0.3691  0.2384
 8177TIP3    H146022   3.520   3.855  14.231  1.8556 -0.2550 -0.3271
 8177TIP3    H246023   3.485   3.780  14.358  0.8801  1.0698  0.2078
 8178TIP3   OH246024   4.578   1.550   3.566  0.1017 -1.0195  0.1647
 8178TIP3    H146025   4.606   1.459   3.572 -1.9272 -1.7559 -0.7545
 8178TIP3    H246026   4.640   1.590   3.505  1.0748 -1.7227  0.6563
 8179TIP3   OH246027   6.803   5.304  15.828  0.2671  0.1051 -0.2502
 8179TIP3    H146028   6.743   5.373  15.856  0.5003  0.9597 -1.7467
 8179TIP3    H246029   6.747   5.240  15.785  0.0814 -0.5253  0.9171
 8180TIP3   OH246030   0.384   1.048   0.187 -0.3646 -0.1089  0.3140
 8180TIP3    H146031   0.364   0.999   0.107 -0.4269  2.5133 -1.3742
 8180TIP3    H246032   0.304   1.096   0.207 -0.3512 -0.7085  2.0308
 8181TIP3   OH246033   0.331   3.705  11.527 -0.5230  0.3828  0.4474
 8181TIP3    H146034   0.423   3.728  11.521 -0.4813  0.0319 -0.4940
 8181TIP3    H246035   0.285   3.788  11.523 -0.3309  0.4466 -1.7588
 8182TIP3   OH246036   6.020   6.506  15.623 -0.1712  0.1022  0.2036
 8182TIP3    H146037   5.958   6.451  15.670 -1.8827  2.3653  0.7533
 8182TIP3    H246038   6.033   6.462  15.539  0.4688 -2.3550  1.4920
 8183TIP3   OH246039   0.834   2.919   3.946 -0.3727  0.4512 -0.5214
 8183TIP3    H146040   0.818   2.922   4.041  0.5840  0.5891 -0.3622
 8183TIP3    H246041   0.757   2.962   3.908  0.0109  1.8850  0.2741
 8184TIP3   OH246042   2.857   1.259  15.763  0.3901  0.1411 -0.1426
 8184TIP3    H146043   2.897   1.184  15.719  0.2776 -0.1500  0.2402
 8184TIP3    H246044   2.782   1.222  15.809 -0.4720  0.7171 -1.0390
 8185TIP3   OH246045   5.949   5.273  12.608  0.2014 -0.1498 -0.3075
 8185TIP3    H146046   5.989   5.195  12.647 -0.2133  0.3537  1.1920
 8185TIP3    H246047   6.017   5.310  12.552  0.6694 -1.1452 -0.4175
 8186TIP3   OH246048   1.685   2.112   2.113  0.5357 -0.0207  0.6818
 8186TIP3    H146049   1.761   2.171   2.110 -0.6619  1.5987  0.8522
 8186TIP3    H246050   1.683   2.079   2.203  2.2016 -1.7342  0.1478
 8187TIP3   OH246051   3.141   1.094  11.435 -0.1871  0.4758 -0.8030
 8187TIP3    H146052   3.170   1.006  11.458 -1.2070  0.0613 -1.0667
 8187TIP3    H246053   3.123   1.136  11.519 -1.3212 -0.1370 -0.7287
 8188TIP3   OH246054   4.132   4.239   5.291 -0.4078 -0.1763 -0.2349
 8188TIP3    H146055   4.106   4.331   5.291  1.3521  0.3883 -2.0767
 8188TIP3    H246056   4.185   4.229   5.370  0.3423  0.7063 -0.6102
 8189TIP3   OH246057   5.862   4.295  12.211 -0.1894  0.2793  0.3508
 8189TIP3    H146058   5.948   4.334  12.200  0.3866 -0.8018  0.8513
 8189TIP3    H246059   5.872   4.205  12.179 -1.0561  0.0701  0.6287
 8190TIP3   OH246060   2.398   3.684   4.162  0.3946 -0.1557 -0.4445
 8190TIP3    H146061   2.323   3.643   4.205  0.0905  0.3316 -0.5148
 8190TIP3    H246062   2.403   3.641   4.076  0.2640 -0.2622 -0.3985
 8191TIP3   OH246063   3.911   2.548  14.377 -0.3964 -0.3952  0.0286
 8191TIP3    H146064   3.872   2.570  14.293 -2.5707  1.2113  1.3581
 8191TIP3    H246065   3.852   2.586  14.442  2.1538  0.0191  2.2793
 8192TIP3   OH246066   3.419   1.079  12.386  0.2607  0.1463 -0.2107
 8192TIP3    H146067   3.433   0.992  12.348 -0.2454 -0.5569  1.1561
 8192TIP3    H246068   3.419   1.138  12.310 -0.3737 -1.1538 -1.2690
 8193TIP3   OH246069   1.883   0.927   5.163 -0.3374 -0.5660 -0.0946
 8193TIP3    H146070   1.943   0.927   5.237 -1.1265 -1.1583  0.5536
 8193TIP3    H246071   1.825   0.853   5.178 -0.5410 -0.6774 -1.2847
 8194TIP3   OH246072   2.391   1.738  12.135  0.5342  0.3590  0.0931
 8194TIP3    H146073   2.341   1.700  12.064  1.5270 -1.4393  0.2821
 8194TIP3    H246074   2.378   1.678  12.208  3.1285 -0.3656  0.0615
 8195TIP3   OH246075   6.819   2.443  14.488  0.3223  0.0582 -0.0376
 8195TIP3    H146076   6.805   2.491  14.569 -0.4215 -1.2280  0.6322
 8195TIP3    H246077   6.750   2.474  14.429 -0.2318 -0.2810  0.4303
 8196TIP3   OH246078   3.524   0.302  12.480 -0.0591 -0.2099  0.2158
 8196TIP3    H146079   3.570   0.270  12.402  1.4169  0.9191  0.5856
 8196TIP3    H246080   3.435   0.268  12.470  0.1561 -0.3191 -1.8202
 8197TIP3   OH246081   3.083   6.383  17.019 -0.3080 -0.1314  0.8195
 8197TIP3    H146082   3.170   6.421  17.031 -0.8667  1.1064  1.2007
 8197TIP3    H246083   3.039   6.443  16.958 -0.7609 -0.9769  0.2940
 8198TIP3   OH246084   5.822   1.348   4.109  0.5190 -0.2571 -0.1147
 8198TIP3    H146085   5.855   1.305   4.188 -0.1704 -0.2638  0.1713
 8198TIP3    H246086   5.900   1.360   4.054  0.8293 -1.2665  0.0850
 8199TIP3   OH246087   2.154   5.257   4.484  0.1222  0.0828 -0.6335
 8199TIP3    H146088   2.124   5.189   4.544  1.5304  0.7305  0.8545
 8199TIP3    H246089   2.243   5.230   4.460  0.3192  0.8815 -0.8219
 8200TIP3   OH246090   1.836   0.424  14.658 -0.2815 -0.0676  0.2598
 8200TIP3    H146091   1.861   0.332  14.656 -0.3452 -0.0804 -0.0383
 8200TIP3    H246092   1.747   0.426  14.624 -0.5076  0.0363  0.8489
 8201TIP3   OH246093   5.412   5.295   2.257 -0.1282  0.0330  0.5467
 8201TIP3    H146094   5.379   5.347   2.330 -2.3392 -2.0695  1.1617
 8201TIP3    H246095   5.344   5.298   2.191  0.0279 -1.3879  0.2771
 8202TIP3   OH246096   0.888   3.016  17.220 -0.0006 -0.0646 -0.6355
 8202TIP3    H146097   0.843   2.934  17.196  0.6687 -0.7155  0.2632
 8202TIP3    H246098   0.847   3.042  17.303  1.8644 -1.2055  0.7339
 8203TIP3   OH246099   0.425   4.614  14.508  0.0737  0.8134 -0.2134
 8203TIP3    H146100   0.330   4.611  14.507  0.0847 -0.3530  0.1613
 8203TIP3    H246101   0.451   4.525  14.533  1.2767  0.8170 -1.3358
 8204TIP3   OH246102   5.458   1.651   3.505 -0.0833 -0.5222 -0.6274
 8204TIP3    H146103   5.445   1.669   3.598  1.9112 -2.1805  0.0657
 8204TIP3    H246104   5.433   1.731   3.461  1.5755  1.3435  1.5822
 8205TIP3   OH246105   6.136   0.907   6.101  0.7652 -0.0300 -0.0705
 8205TIP3    H146106   6.141   1.001   6.085 -0.3246 -0.0762 -0.7737
 8205TIP3    H246107   6.150   0.898   6.195 -0.8668  1.0208  0.3243
 8206TIP3   OH246108   1.146   0.172   0.647  0.5474  0.4109  0.2393
 8206TIP3    H146109   1.193   0.102   0.602  0.6079 -0.3117  1.4064
 8206TIP3    H246110   1.094   0.128   0.714  0.5895  1.4703  0.9967
 8207TIP3   OH246111   1.344   3.327   4.945 -0.4289  0.1385 -0.5061
 8207TIP3    H146112   1.385   3.293   4.865  0.7459 -1.3395  0.6658
 8207TIP3    H246113   1.345   3.254   5.006 -0.6512  1.4113  1.1029
 8208TIP3   OH246114   1.977   4.971  11.705  0.1786 -0.3711  0.1299
 8208TIP3    H146115   2.059   4.984  11.753  0.7717  2.1443 -1.3947
 8208TIP3    H246116   1.928   5.052  11.717  0.1201  0.1751 -2.9184
 8209TIP3   OH246117   3.673   4.687  17.082  0.7864 -0.0166  0.3380
 8209TIP3    H146118   3.630   4.745  17.019 -0.6042  0.2772  1.5007
 8209TIP3    H246119   3.660   4.599  17.046 -0.4227  0.1046  0.4120
 8210TIP3   OH246120   6.379   4.843   5.031 -0.4905 -1.4627 -0.1404
 8210TIP3    H146121   6.298   4.800   5.060 -0.1490 -0.9665  1.7098
 8210TIP3    H246122   6.348   4.921   4.984 -1.1796 -0.4806  1.7863
 8211TIP3   OH246123   3.494   3.529   2.313  0.3712 -0.1390  0.0653
 8211TIP3    H146124   3.514   3.530   2.220  1.1527  1.1839  0.2233
 8211TIP3    H246125   3.520   3.441   2.342  0.7078 -0.3486 -0.8431
 8212TIP3   OH246126   1.615   5.560  13.324  0.3871  0.2373  0.2198
 8212TIP3    H146127   1.527   5.596  13.314  0.4718  0.3159 -0.3032
 8212TIP3    H246128   1.602   5.469  13.349  0.1182 -0.3285 -1.8351
 8213TIP3   OH246129   5.528   2.917   4.004 -0.6536  0.2520 -0.6334
 8213TIP3    H146130   5.510   2.944   3.914 -1.3148  2.8680  0.1917
 8213TIP3    H246131   5.450   2.943   4.053  0.6506  1.1406  1.0767
 8214TIP3   OH246132   0.416   1.652  13.300  0.4682  0.8657  0.0544
 8214TIP3    H146133   0.495   1.649  13.354 -0.7535  1.0261  1.9657
 8214TIP3    H246134   0.425   1.733  13.249  1.4959  0.9058  0.2801
 8215TIP3   OH246135   0.911   4.556  12.357 -0.0103 -0.2353 -0.1231
 8215TIP3    H146136   0.938   4.579  12.268  0.7693 -1.5428 -0.2451
 8215TIP3    H246137   0.918   4.638  12.405 -0.1108  0.4207 -1.1787
 8216TIP3   OH246138   5.519   0.145  13.639 -0.5447  0.6409  0.1543
 8216TIP3    H146139   5.576   0.222  13.649  0.3925  0.1504 -1.1628
 8216TIP3    H246140   5.566   0.075  13.683 -0.5647  0.4399 -0.1418
 8217TIP3   OH246141   4.608   0.361  14.401 -0.2958  0.3722  0.2967
 8217TIP3    H146142   4.655   0.440  14.426 -1.6322  2.2447 -2.5597
 8217TIP3    H246143   4.667   0.315  14.342 -0.4858  0.5742 -0.0514
 8218TIP3   OH246144   5.482   5.352  11.679  0.4887  0.0079 -0.1103
 8218TIP3    H146145   5.494   5.414  11.607 -1.8028  0.4486 -0.2006
 8218TIP3    H246146   5.569   5.345  11.719  1.7368  0.0804 -2.6002
 8219TIP3   OH246147   3.664   6.495   2.144 -0.3390 -0.3137  0.0895
 8219TIP3    H146148   3.692   6.492   2.236 -1.0462 -0.5370  0.3050
 8219TIP3    H246149   3.571   6.470   2.147 -0.2929 -0.5831 -0.7156
 8220TIP3   OH246150   4.314   2.483   0.680 -0.8402  0.1032 -0.5043
 8220TIP3    H146151   4.388   2.487   0.619 -1.8332  1.6013 -1.6804
 8220TIP3    H246152   4.340   2.540   0.752  0.2133 -1.4421  0.4069
 8221TIP3   OH246153   6.685   0.182  13.568 -0.3094  0.1235 -0.0911
 8221TIP3    H146154   6.623   0.158  13.500  0.1580  0.4710 -0.6531
 8221TIP3    H246155   6.760   0.125  13.554  1.3763  2.6453 -2.2737
 8222TIP3   OH246156   1.050   5.205   2.938  0.2258  0.7869 -0.6103
 8222TIP3    H146157   0.963   5.233   2.964  0.3590  0.4583  0.2033
 8222TIP3    H246158   1.102   5.210   3.018  0.4687 -0.9260 -0.6092
 8223TIP3   OH246159   4.802   1.924   0.172  0.2126  0.7175 -0.6514
 8223TIP3    H146160   4.737   1.984   0.208 -1.0323 -0.7244 -0.4006
 8223TIP3    H246161   4.884   1.972   0.177 -0.6389  2.1665  0.0861
 8224TIP3   OH246162   4.413   3.441  12.029 -0.5954 -0.9690  0.0028
 8224TIP3    H146163   4.500   3.401  12.021  0.2576  1.1006 -2.0298
 8224TIP3    H246164   4.397   3.443  12.123  1.2275 -2.0629  0.4006
 8225TIP3   OH246165   0.723   0.610   1.939  0.6556 -0.3406 -0.2104
 8225TIP3    H146166   0.742   0.700   1.966 -0.4863 -0.2092  0.1668
 8225TIP3    H246167   0.637   0.613   1.899  1.2799 -0.9872 -1.7040
 8226TIP3   OH246168   4.512   4.243   0.997  0.0679 -0.4197  0.3561
 8226TIP3    H146169   4.598   4.251   0.956 -0.5766  0.8126 -0.8589
 8226TIP3    H246170   4.530   4.219   1.088  1.6703 -0.4908  0.0431
 8227TIP3   OH246171   4.910   4.267   5.459 -0.3257  0.1798 -0.3610
 8227TIP3    H146172   4.938   4.198   5.518  0.8338 -0.7576 -1.9230
 8227TIP3    H246173   4.978   4.334   5.466 -0.1254  0.0154 -0.6942
 8228TIP3   OH246174   3.949   4.313  16.841  0.0216  0.0019  0.3829
 8228TIP3    H146175   3.938   4.242  16.904 -1.6146 -2.7762 -2.6808
 8228TIP3    H246176   4.044   4.321  16.830  0.2583 -1.9722  0.6247
 8229TIP3   OH246177   1.703   4.503   5.760 -0.9161  0.1989 -0.0620
 8229TIP3    H146178   1.760   4.445   5.710 -0.1345  0.2110  0.7964
 8229TIP3    H246179   1.685   4.456   5.841 -0.1898  1.1749  0.6910
 8230TIP3   OH246180   0.625   5.807  11.684  0.1658 -0.1779 -0.2324
 8230TIP3    H146181   0.613   5.730  11.628  0.4266  1.6562 -2.9801
 8230TIP3    H246182   0.720   5.811  11.699  0.2527  0.0673 -0.8206
 8231TIP3   OH246183   0.940   0.883  16.365 -0.0177 -0.2429  0.1805
 8231TIP3    H146184   0.916   0.965  16.321  0.1810 -0.8729 -1.1471
 8231TIP3    H246185   0.866   0.825  16.350 -0.1414 -0.3408  1.0915
 8232TIP3   OH246186   3.821   0.727   2.600 -0.5766  0.3803  0.4181
 8232TIP3    H146187   3.836   0.797   2.536 -0.2060 -0.0297  0.0459
 8232TIP3    H246188   3.861   0.759   2.681 -1.1403  0.9470  0.4805
 8233TIP3   OH246189   2.344   1.424   1.503 -0.3586  0.3744  0.0658
 8233TIP3    H146190   2.422   1.399   1.453  0.2835  0.6061  0.9215
 8233TIP3    H246191   2.271   1.403   1.446  0.3105 -0.3484 -0.5471
 8234TIP3   OH246192   4.554   5.885   1.083 -0.3837  0.1101 -0.4571
 8234TIP3    H146193   4.540   5.845   0.998 -1.7392 -1.4066  0.4330
 8234TIP3    H246194   4.511   5.970   1.078  0.8975  0.7148 -1.7575
 8235TIP3   OH246195   2.397   6.152  16.084  0.5857 -0.2321  0.1345
 8235TIP3    H146196   2.413   6.080  16.023  0.1573 -0.1458 -0.0843
 8235TIP3    H246197   2.484   6.181  16.110  0.7722 -0.3006 -0.3995
 8236TIP3   OH246198   3.623   4.921  14.140  0.1972  0.1409 -0.1989
 8236TIP3    H146199   3.544   4.906  14.191 -0.1723  0.8219 -0.5495
 8236TIP3    H246200   3.629   5.017  14.133  0.8022  0.0813 -0.5523
 8237TIP3   OH246201   3.098   0.482   5.426 -0.4490  0.3921 -0.3403
 8237TIP3    H146202   3.164   0.510   5.490 -2.9578  0.9688  2.2129
 8237TIP3    H246203   3.050   0.562   5.405 -1.6543 -0.3573 -0.4945
 8238TIP3   OH246204   4.795   0.160  13.389  0.6317 -0.4578 -0.0992
 8238TIP3    H146205   4.862   0.125  13.447  0.6490 -3.3063 -1.6243
 8238TIP3    H246206   4.838   0.166  13.304  0.2439  2.3332 -0.1899
 8239TIP3   OH246207   3.805   3.615   0.959  0.3239  0.0979  0.2223
 8239TIP3    H146208   3.724   3.585   0.918  1.4653 -0.1037 -2.0935
 8239TIP3    H246209   3.844   3.674   0.894  2.2810 -0.2688  0.9910
 8240TIP3   OH246210   0.036   2.118  17.148 -0.3724  0.7459 -0.1507
 8240TIP3    H146211  -0.036   2.069  17.108 -0.7510  0.6603  0.6319
 8240TIP3    H246212   0.109   2.056  17.149 -1.3008 -0.4295  2.3594
 8241TIP3   OH246213   0.089   2.235  15.111 -0.1116 -0.0323  0.5240
 8241TIP3    H146214   0.034   2.307  15.081  0.7587  0.5923  0.3843
 8241TIP3    H246215   0.167   2.239  15.055 -0.8696 -2.3002 -0.8080
 8242TIP3   OH246216   2.152   5.448   1.920  0.3088  0.1924 -0.2999
 8242TIP3    H146217   2.204   5.465   1.842  2.1703  2.1380  1.2195
 8242TIP3    H246218   2.209   5.397   1.977  0.2641  1.5664  1.0425
 8243TIP3   OH246219   4.817   0.509   1.907  0.0054 -0.3335 -0.4314
 8243TIP3    H146220   4.905   0.476   1.887  0.2348 -0.0909  0.1509
 8243TIP3    H246221   4.816   0.518   2.003 -0.2232  0.8414 -0.5295
 8244TIP3   OH246222   5.347   5.632   3.781  0.1035  0.3553  0.7681
 8244TIP3    H146223   5.428   5.680   3.760  0.4299 -0.4719  0.0556
 8244TIP3    H246224   5.312   5.677   3.858  1.0630  0.9448  0.8841
 8245TIP3   OH246225   1.622   6.607  11.702 -0.0124 -0.7012 -0.2591
 8245TIP3    H146226   1.561   6.621  11.775  0.3978 -0.2554  0.0059
 8245TIP3    H246227   1.576   6.642  11.626 -0.1995 -0.6185 -0.1091
 8246TIP3   OH246228   2.633   2.232   0.517 -0.2071  0.6217  0.0849
 8246TIP3    H146229   2.627   2.172   0.592 -2.6262  1.5216  0.6908
 8246TIP3    H246230   2.685   2.305   0.549 -1.2118  0.9937  0.9333
 8247TIP3   OH246231   1.581   0.789   3.731  0.4257 -0.2738 -0.3849
 8247TIP3    H146232   1.602   0.831   3.815 -0.7272 -0.6491  0.1094
 8247TIP3    H246233   1.667   0.768   3.693  0.9689 -0.6021  0.9627
 8248TIP3   OH246234   6.130   5.159   1.480  0.3656  0.2605  0.2878
 8248TIP3    H146235   6.142   5.238   1.426  0.2779 -0.3449 -0.6459
 8248TIP3    H246236   6.057   5.113   1.439 -1.2738  0.9043  2.3221
 8249TIP3   OH246237   6.299   0.022   5.471  0.6630  0.3986  0.3413
 8249TIP3    H146238   6.219  -0.020   5.441  1.3807 -0.4424 -0.4194
 8249TIP3    H246239   6.370  -0.029   5.433  1.5743  1.2782  0.7959
 8250TIP3   OH246240   5.723   1.312  15.890  0.7429  0.0763  0.5175
 8250TIP3    H146241   5.706   1.255  15.816 -0.3448  1.3424 -0.2692
 8250TIP3    H246242   5.785   1.377  15.856  0.6263  0.3643  0.8492
 8251TIP3   OH246243   2.311   0.397  12.587 -0.0448 -0.4862  0.1029
 8251TIP3    H146244   2.249   0.416  12.517 -0.7205 -1.5857  0.3782
 8251TIP3    H246245   2.324   0.302  12.583  0.5218 -0.4585  0.9567
 8252TIP3   OH246246   6.094   3.597   0.132 -0.1471  0.1182  0.2490
 8252TIP3    H146247   6.147   3.609   0.210  1.3907  0.2243 -0.7712
 8252TIP3    H246248   6.027   3.665   0.138  2.3071  2.8184 -0.4081
 8253TIP3   OH246249   0.137   1.089  14.465 -0.5137 -0.3896 -0.2633
 8253TIP3    H146250   0.099   1.052  14.545  1.3534 -2.1314 -0.1002
 8253TIP3    H246251   0.128   1.019  14.400  1.3282 -0.4435 -0.5166
 8254TIP3   OH246252   6.573   5.214  15.543 -0.1288  0.1208 -0.0408
 8254TIP3    H146253   6.604   5.304  15.553  2.0282 -0.7538  2.3045
 8254TIP3    H246254   6.580   5.177  15.631 -1.2914 -2.2557 -0.8729
 8255TIP3   OH246255   0.915   5.526   1.299 -0.0836  0.5563 -0.2645
 8255TIP3    H146256   0.875   5.560   1.379  0.4046  0.6940 -0.0776
 8255TIP3    H246257   0.856   5.456   1.271  0.0175  0.1630  0.4960
 8256TIP3   OH246258   6.777   2.823  14.900  0.0757  0.0374  0.1793
 8256TIP3    H146259   6.807   2.735  14.922 -2.7725 -0.6493  1.7983
 8256TIP3    H246260   6.804   2.836  14.809 -0.1935 -2.8646 -0.3961
 8257TIP3   OH246261   1.578   3.037   3.198  1.0461  0.1619 -0.5376
 8257TIP3    H146262   1.531   3.109   3.156 -1.8059 -0.6188  1.1040
 8257TIP3    H246263   1.515   2.966   3.202  3.4462 -2.1856 -1.1734
 8258TIP3   OH246264   1.667   1.620  13.712 -0.4764  0.0328 -0.1668
 8258TIP3    H146265   1.656   1.710  13.741  0.6481  0.0259  0.3310
 8258TIP3    H246266   1.717   1.627  13.631 -1.2028 -0.1040 -0.6376
 8259TIP3   OH246267   4.826   4.115   0.652 -0.1669 -0.2451 -0.2906
 8259TIP3    H146268   4.812   4.142   0.743  0.2085 -2.5432  0.5094
 8259TIP3    H246269   4.740   4.086   0.622  0.0385 -1.0603 -0.1014
 8260TIP3   OH246270   2.137   2.832   5.828  0.4851 -0.1508 -0.7884
 8260TIP3    H146271   2.182   2.816   5.745  1.4184 -3.9099  0.2574
 8260TIP3    H246272   2.205   2.826   5.894 -0.5332  0.9607  0.4161
 8261TIP3   OH246273   0.691   4.843   2.963 -0.2773 -0.1698 -0.5180
 8261TIP3    H146274   0.725   4.812   3.047  0.3166  2.1150  0.1607
 8261TIP3    H246275   0.769   4.864   2.912 -0.5994  2.2922 -0.0798
 8262TIP3   OH246276   5.192   5.358  11.801  0.4672  0.0127  0.2763
 8262TIP3    H146277   5.162   5.422  11.865 -0.8544 -1.2518  0.9728
 8262TIP3    H246278   5.272   5.396  11.764  0.2104  1.6214  1.3112
 8263TIP3   OH246279   0.534   5.348  14.134  0.3247  0.3350 -0.4831
 8263TIP3    H146280   0.597   5.380  14.069 -1.0086  1.2308 -1.3632
 8263TIP3    H246281   0.487   5.278  14.089  0.2274  0.1136 -0.0451
 8264TIP3   OH246282   6.613   1.216  16.272  0.0171 -0.2063  0.1204
 8264TIP3    H146283   6.697   1.233  16.231  0.6304  0.6581  1.6537
 8264TIP3    H246284   6.565   1.163  16.208  1.6671 -0.6237 -0.8250
 8265TIP3   OH246285   3.819   3.458   5.774  0.0552  0.0581 -0.5019
 8265TIP3    H146286   3.808   3.453   5.869  2.5685 -0.2926 -0.1596
 8265TIP3    H246287   3.809   3.550   5.752  0.2220  0.2465  0.2167
 8266TIP3   OH246288   5.679   1.700  16.105  0.8047 -0.3897  0.0486
 8266TIP3    H146289   5.584   1.694  16.118  0.6267 -2.2565 -1.5891
 8266TIP3    H246290   5.715   1.631  16.160  1.3029  0.6685  1.0859
 8267TIP3   OH246291   4.698   6.016  11.922  0.2888 -0.3481 -0.4217
 8267TIP3    H146292   4.692   5.944  11.859  0.0065 -1.6756  1.0601
 8267TIP3    H246293   4.610   6.027  11.956  0.5789 -0.1683  0.2995
 8268TIP3   OH246294   1.058   2.105   0.227  0.1388 -0.4291  0.1716
 8268TIP3    H146295   1.006   2.112   0.146 -0.3863  2.5842  0.6420
 8268TIP3    H246296   1.148   2.096   0.197 -0.1386 -0.2136 -0.7706
 8269TIP3   OH246297   0.560   3.857   5.359 -0.3080  0.2067  0.2304
 8269TIP3    H146298   0.475   3.815   5.376 -0.3384 -0.8650 -2.1989
 8269TIP3    H246299   0.622   3.808   5.412 -0.8681 -0.5835  0.1678
 8270TIP3   OH246300   3.424   5.519  12.910  0.2213 -0.1245 -0.1094
 8270TIP3    H146301   3.455   5.452  12.850  1.1491  0.5166 -0.3705
 8270TIP3    H246302   3.411   5.473  12.993 -1.1453 -1.0282 -0.8052
 8271TIP3   OH246303   2.240   1.858  13.359  0.3822 -0.2398 -0.1771
 8271TIP3    H146304   2.189   1.785  13.393 -0.7753  0.7691  0.3101
 8271TIP3    H246305   2.331   1.829  13.365  0.0213 -1.1507  1.1908
 8272TIP3   OH246306   5.936   4.716   4.482  0.7984  0.2008 -0.2299
 8272TIP3    H146307   5.846   4.704   4.511  0.9045  0.5026  0.2319
 8272TIP3    H246308   5.941   4.666   4.400  0.2601  0.0508 -0.1791
 8273TIP3   OH246309   1.577   5.117  16.664 -0.8542 -0.3638 -0.2584
 8273TIP3    H146310   1.661   5.074  16.650 -1.0134 -0.5648 -0.6013
 8273TIP3    H246311   1.512   5.059  16.624 -1.1905 -0.3536  0.2579
 8274TIP3   OH246312   4.962   1.771   5.513 -0.4449  0.4362 -0.2566
 8274TIP3    H146313   5.031   1.798   5.574 -0.4986 -1.0531  0.5243
 8274TIP3    H246314   5.009   1.746   5.433 -0.1802  0.3935 -0.0882
 8275TIP3   OH246315   6.360   2.800  16.945  0.0346 -0.5458 -0.2467
 8275TIP3    H146316   6.347   2.890  16.972  1.1795 -0.2364 -0.6762
 8275TIP3    H246317   6.347   2.800  16.851 -4.8310 -1.7841  0.1749
 8276TIP3   OH246318   3.073   5.719   4.970 -0.3922  0.0585 -0.7395
 8276TIP3    H146319   3.140   5.782   4.997 -0.6899  0.4790 -0.9650
 8276TIP3    H246320   3.022   5.765   4.903 -2.2406  0.5529  0.9178
 8277TIP3   OH246321   3.781   4.040  14.898 -0.4997  0.1664 -0.6669
 8277TIP3    H146322   3.701   4.044  14.846 -0.5098 -0.1121 -0.6719
 8277TIP3    H246323   3.783   4.124  14.944  0.7266  1.4635 -2.8997
 8278TIP3   OH246324   3.488   1.429   4.067  0.0642  0.1710 -0.4050
 8278TIP3    H146325   3.558   1.405   4.006 -0.7807 -1.6867 -0.7268
 8278TIP3    H246326   3.533   1.456   4.147  1.1681 -1.2837 -0.4940
 8279TIP3   OH246327   0.626   4.792   5.459  0.2972 -0.3439 -0.1783
 8279TIP3    H146328   0.594   4.715   5.413  1.0196 -0.4007 -0.5957
 8279TIP3    H246329   0.557   4.857   5.449  0.0073 -0.6976 -0.4590
 8280TIP3   OH246330   4.989   2.615   3.295  0.2564 -0.1562 -0.6301
 8280TIP3    H146331   5.007   2.607   3.201 -0.5144 -1.6034 -0.6838
 8280TIP3    H246332   4.944   2.700   3.303  0.3963  0.0187 -1.5507
 8281TIP3   OH246333   1.940   3.866  16.010  0.1216  0.1794 -0.0109
 8281TIP3    H146334   1.904   3.955  15.999 -0.0638  0.0005 -0.9608
 8281TIP3    H246335   1.960   3.838  15.920 -0.7101 -1.1083  0.1936
 8282TIP3   OH246336   6.274   1.402   4.466 -0.2546  0.1609  0.0676
 8282TIP3    H146337   6.185   1.368   4.459 -0.9791  1.8259  0.6698
 8282TIP3    H246338   6.291   1.442   4.380 -0.3750  0.4794  0.1901
 8283TIP3   OH246339   4.749   1.450   0.594 -0.3990  0.1512  0.4582
 8283TIP3    H146340   4.835   1.410   0.582 -1.1594 -1.5369  0.3801
 8283TIP3    H246341   4.768   1.538   0.627  1.3581 -0.0010 -0.0461
 8284TIP3   OH246342   4.529   0.017   3.091  0.3957 -0.0238  0.6479
 8284TIP3    H146343   4.540  -0.078   3.086  2.0978  0.2082 -3.0579
 8284TIP3    H246344   4.445   0.033   3.047  1.1295  0.2952 -0.6588
 8285TIP3   OH246345   4.291   1.658   0.118  0.1191 -0.6633  0.7804
 8285TIP3    H146346   4.368   1.617   0.078  0.1731 -0.8008  1.0191
 8285TIP3    H246347   4.314   1.751   0.124  0.4643 -0.7760  1.2881
 8286TIP3   OH246348   5.311   0.269   5.465  0.3573  1.0775 -0.2794
 8286TIP3    H146349   5.232   0.292   5.416  1.9256  0.8074 -3.1639
 8286TIP3    H246350   5.288   0.188   5.509 -0.7352  0.4733 -1.8371
 8287TIP3   OH246351   0.993   3.943   2.336 -0.3210 -0.0016 -0.2777
 8287TIP3    H146352   0.909   3.901   2.357 -0.4799  0.4499  0.0104
 8287TIP3    H246353   1.004   3.930   2.242 -0.1266 -1.1230 -0.1155
 8288TIP3   OH246354   2.824   3.918   4.593  0.4408  0.2657  0.5038
 8288TIP3    H146355   2.737   3.896   4.559  0.2565  2.1413 -0.3835
 8288TIP3    H246356   2.850   3.995   4.542  2.4435 -0.0001  1.0597
 8289TIP3   OH246357   2.955   2.328  12.728  0.2044  0.8149  0.0176
 8289TIP3    H146358   2.995   2.293  12.808 -0.6813 -0.2659  0.0310
 8289TIP3    H246359   2.897   2.398  12.759  0.1361  0.6413  0.2888
 8290TIP3   OH246360   3.138   2.586   4.982 -0.1034 -0.1009  0.0359
 8290TIP3    H146361   3.114   2.494   4.973 -0.3303  0.0950 -1.5807
 8290TIP3    H246362   3.180   2.609   4.899 -0.6627  1.4270  0.1364
 8291TIP3   OH246363   1.530   2.597  15.759 -0.5921 -0.0892  0.4075
 8291TIP3    H146364   1.479   2.671  15.793  1.4467  3.1375 -2.7685
 8291TIP3    H246365   1.463   2.535  15.729 -2.6087  2.0998  0.0160
 8292TIP3   OH246366   6.496   3.798   2.112 -0.2644 -0.4585 -0.4563
 8292TIP3    H146367   6.479   3.851   2.034  0.6039  0.9089  0.2543
 8292TIP3    H246368   6.429   3.730   2.110 -0.2149 -0.5039 -2.4367
 8293TIP3   OH246369   1.002   4.266  13.993  0.6298 -0.0554 -0.0441
 8293TIP3    H146370   0.975   4.207  14.062 -2.5189  0.7649 -0.4229
 8293TIP3    H246371   0.964   4.351  14.017  2.5480  1.1617 -0.9878
 8294TIP3   OH246372   4.226   5.170  11.445  0.6726  0.2807  0.4116
 8294TIP3    H146373   4.188   5.258  11.451  1.2576  0.5319  0.5168
 8294TIP3    H246374   4.320   5.184  11.456  0.8008 -0.3282  0.1143
 8295TIP3   OH246375   3.211   6.023  14.450  0.0551  0.0168 -0.5405
 8295TIP3    H146376   3.288   6.069  14.481 -1.2650  1.3640  0.9131
 8295TIP3    H246377   3.201   5.949  14.510  1.0863 -1.1652 -1.7319
 8296TIP3   OH246378   2.779   2.897  15.838  0.0456  0.6124  0.1236
 8296TIP3    H146379   2.747   2.987  15.844 -0.2313  0.4691  0.9021
 8296TIP3    H246380   2.751   2.867  15.752 -0.8596  0.9006  0.3085
 8297TIP3   OH246381   4.127   6.265   1.315  0.1508  0.0042 -0.2165
 8297TIP3    H146382   4.073   6.295   1.387 -1.0556  1.7627 -1.7567
 8297TIP3    H246383   4.065   6.232   1.250  1.2696 -2.9734  0.0522
 8298TIP3   OH246384   3.270   3.354   4.271  0.0665  0.0188  0.1975
 8298TIP3    H146385   3.207   3.426   4.280  0.6126  0.4989  0.2602
 8298TIP3    H246386   3.217   3.275   4.271 -0.5233  0.4101  0.4297
 8299TIP3   OH246387   4.901   4.634  15.405 -0.1914  0.5330  0.2961
 8299TIP3    H146388   4.805   4.629  15.408 -0.2693  1.2226 -0.4350
 8299TIP3    H246389   4.923   4.699  15.471 -0.3763  1.5719 -0.6213
 8300TIP3   OH246390   5.634   3.844  15.211  0.3371 -0.8589 -0.6854
 8300TIP3    H146391   5.546   3.826  15.176 -0.2842  1.5027 -0.5143
 8300TIP3    H246392   5.672   3.906  15.150  1.3336 -0.7715  0.0060
 8301TIP3   OH246393   0.902   4.070   1.371  0.1370  0.6493 -0.4113
 8301TIP3    H146394   0.951   4.100   1.448 -1.2631 -1.7345  1.5246
 8301TIP3    H246395   0.921   3.976   1.365 -2.5806  0.0336 -0.7564
 8302TIP3   OH246396   2.234   6.259  13.256 -0.2726 -0.6560 -0.5873
 8302TIP3    H146397   2.294   6.279  13.329 -1.2646 -0.5963  0.2445
 8302TIP3    H246398   2.285   6.279  13.177  1.0586 -1.3427  0.0591
 8303TIP3   OH246399   0.509   1.394  13.228  0.4497  0.0926 -0.3754
 8303TIP3    H146400   0.468   1.360  13.307 -1.3971  0.2465 -1.2020
 8303TIP3    H246401   0.465   1.478  13.213 -0.4197 -0.6669 -2.4169
 8304TIP3   OH246402   3.898   4.609  14.930 -0.4567  0.1606  0.0660
 8304TIP3    H146403   3.888   4.628  15.024 -1.1484  0.5958 -0.0850
 8304TIP3    H246404   3.992   4.606  14.916 -0.3017 -1.5388  1.1006
 8305TIP3   OH246405   4.246   1.099  15.947  0.4713  0.1658  0.1476
 8305TIP3    H146406   4.299   1.022  15.967  3.0899  1.7011 -0.4975
 8305TIP3    H246407   4.309   1.168  15.930 -1.7840  2.4995  0.6830
 8306TIP3   OH246408   5.186   3.886  12.427  0.0661 -0.2045  0.0367
 8306TIP3    H146409   5.260   3.831  12.450 -0.4886 -1.2410 -0.6015
 8306TIP3    H246410   5.142   3.904  12.510 -0.0026 -1.0910  0.1937
 8307TIP3   OH246411   0.986   0.829   1.193 -0.0664 -0.2597  0.1357
 8307TIP3    H146412   1.062   0.812   1.248 -0.1584  1.2509  0.7752
 8307TIP3    H246413   0.932   0.750   1.201  1.3236 -1.2721 -0.1918
 8308TIP3   OH246414   2.443   2.581   4.247  0.1847  0.3452 -0.4849
 8308TIP3    H146415   2.398   2.499   4.228  1.3191  0.0715 -2.3067
 8308TIP3    H246416   2.429   2.596   4.341 -0.2627 -1.7871 -0.1725
 8309TIP3   OH246417   4.220   2.982   4.969 -0.3352 -0.2031 -0.6053
 8309TIP3    H146418   4.232   3.057   5.026  1.7445 -0.8823 -0.0619
 8309TIP3    H246419   4.224   2.906   5.028  1.5658 -0.9031 -1.5545
 8310TIP3   OH246420   5.484   6.652   6.406 -0.1624  0.1643  0.2568
 8310TIP3    H146421   5.399   6.650   6.450 -0.6766 -0.9126 -0.7316
 8310TIP3    H246422   5.516   6.742   6.419 -1.1731  0.4187  1.1304
 8311TIP3   OH246423   3.957   2.606  10.974 -0.8457  0.0918  0.3902
 8311TIP3    H146424   3.869   2.638  10.952 -0.7335 -0.8427 -1.7147
 8311TIP3    H246425   4.008   2.623  10.895  0.0595 -2.1465  0.4279
 8312TIP3   OH246426   6.584   1.485   4.169  0.2407 -0.0376 -0.2216
 8312TIP3    H146427   6.643   1.554   4.137  0.1607 -0.7201 -1.9371
 8312TIP3    H246428   6.642   1.419   4.206  0.3717  0.5529  0.6360
 8313TIP3   OH246429   6.088   3.859   5.111  0.1875 -0.0434  0.0538
 8313TIP3    H146430   6.165   3.911   5.136  0.3763  0.9089 -2.2739
 8313TIP3    H246431   6.022   3.924   5.088 -0.3344 -0.8308 -0.7386
 8314TIP3   OH246432   0.261   4.560   0.508  0.7450  0.1750 -0.0104
 8314TIP3    H146433   0.327   4.629   0.503  0.1181  0.7563 -0.2901
 8314TIP3    H246434   0.220   4.571   0.593 -0.6489  1.3513 -0.8057
 8315TIP3   OH246435   5.139   3.122   0.036 -0.1346 -0.4726 -0.3451
 8315TIP3    H146436   5.053   3.161   0.017 -0.0991  0.2760  0.9282
 8315TIP3    H246437   5.178   3.107  -0.050 -2.0424 -2.0268 -1.0212
 8316TIP3   OH246438   3.656   1.900   3.400 -0.1892 -0.4450 -0.0236
 8316TIP3    H146439   3.677   1.922   3.309  0.0955 -0.7512 -0.0328
 8316TIP3    H246440   3.606   1.819   3.395  0.4703 -0.8755  0.1339
 8317TIP3   OH246441   3.154   0.205  16.550  0.2407 -0.2696 -0.1756
 8317TIP3    H146442   3.201   0.278  16.589  1.4237  0.1978 -2.3097
 8317TIP3    H246443   3.223   0.145  16.519 -0.5464 -0.3094 -2.0048
 8318TIP3   OH246444   6.072   3.652  11.710 -0.2626 -0.0667  0.2524
 8318TIP3    H146445   5.986   3.692  11.719 -0.1930  0.6684 -1.7470
 8318TIP3    H246446   6.108   3.651  11.799 -1.6438  1.1870  0.8679
 8319TIP3   OH246447   2.660   0.422   5.658 -0.2418 -0.6906 -0.3091
 8319TIP3    H146448   2.648   0.357   5.727 -1.5405 -0.7894 -0.6139
 8319TIP3    H246449   2.657   0.371   5.577 -2.8263 -0.1312 -0.6486
 8320TIP3   OH246450   5.674   3.311  15.385 -1.0574  0.3642  0.4792
 8320TIP3    H146451   5.649   3.403  15.392  0.2254  0.7078  0.8706
 8320TIP3    H246452   5.726   3.295  15.464 -1.0100 -0.6130  0.2578
 8321TIP3   OH246453   4.936   6.209   6.469  0.4839 -0.3762  0.2535
 8321TIP3    H146454   4.983   6.159   6.536  1.9757  0.5572 -0.0556
 8321TIP3    H246455   4.853   6.232   6.511  0.4048 -1.7830  0.9391
 8322TIP3   OH246456   6.219   3.238  11.869  0.4147 -0.6198  0.4990
 8322TIP3    H146457   6.143   3.258  11.814  0.4594 -0.0399  0.6522
 8322TIP3    H246458   6.291   3.288  11.831 -0.0506  1.7361  2.4648
 8323TIP3   OH246459   4.865   1.274   4.259  0.0229  0.1069 -0.7339
 8323TIP3    H146460   4.847   1.234   4.174  0.0140  1.6866 -1.5112
 8323TIP3    H246461   4.893   1.363   4.238  2.7092 -0.2987  0.7827
 8324TIP3   OH246462   4.792   5.067  13.132 -0.0674 -0.1801  0.1155
 8324TIP3    H146463   4.747   5.048  13.214  1.0061  0.6751  0.9343
 8324TIP3    H246464   4.738   5.025  13.065 -1.8822  0.5282  1.0743
 8325TIP3   OH246465   0.545   5.651  17.151  0.8376  0.0421  0.0387
 8325TIP3    H146466   0.522   5.723  17.210  0.2111  0.4979 -0.7378
 8325TIP3    H246467   0.640   5.645  17.157  0.8426  0.5360  0.5777
 8326TIP3   OH246468   6.301   6.763  12.476 -0.1268 -0.3384 -0.0605
 8326TIP3    H146469   6.265   6.737  12.392 -0.9082 -0.8746  0.4224
 8326TIP3    H246470   6.249   6.839  12.503 -0.7492 -0.9476  0.5119
 8327TIP3   OH246471   1.764   4.640   1.793 -0.2098 -0.2634  0.0169
 8327TIP3    H146472   1.812   4.677   1.719  1.3259 -0.1763  1.0048
 8327TIP3    H246473   1.832   4.604   1.851 -1.1147  1.5888  2.4363
 8328TIP3   OH246474   1.025   4.962  13.135 -0.3470  0.0841  0.2373
 8328TIP3    H146475   1.062   4.877  13.110 -0.5700  0.3855 -1.2139
 8328TIP3    H246476   0.934   4.944  13.158 -0.0459 -0.2530  1.2127
 8329TIP3   OH246477   2.230   4.403   3.518 -0.2010  0.4659 -0.2932
 8329TIP3    H146478   2.321   4.376   3.508 -0.0163  0.0348  1.9554
 8329TIP3    H246479   2.191   4.389   3.432  1.2989 -1.5814 -0.7136
 8330TIP3   OH246480   2.467   5.809  16.661 -0.2756 -0.0438  0.0173
 8330TIP3    H146481   2.398   5.848  16.713 -0.0185  1.2503 -0.5741
 8330TIP3    H246482   2.548   5.840  16.702  0.0196 -1.9316  1.0045
 8331TIP3   OH246483   2.517   5.232  12.971 -0.6624  0.6613 -0.1076
 8331TIP3    H146484   2.525   5.295  12.899 -0.9603 -0.1942 -0.9129
 8331TIP3    H246485   2.512   5.286  13.050 -1.0414  1.6541 -0.7897
 8332TIP3   OH246486   3.221   5.039  12.418  0.1046 -0.8334 -0.0718
 8332TIP3    H146487   3.203   5.115  12.362  1.1723  0.7345  1.5811
 8332TIP3    H246488   3.140   4.989  12.417 -0.0512 -0.7048 -2.6630
 8333TIP3   OH246489   5.423   1.274  15.782 -0.4215 -0.0176 -0.0799
 8333TIP3    H146490   5.466   1.346  15.828 -1.4152  0.7888 -0.3597
 8333TIP3    H246491   5.472   1.196  15.807 -1.8581  0.0765  3.7259
 8334TIP3   OH246492   1.960   6.381   2.542 -0.0745  0.7130  1.0538
 8334TIP3    H146493   1.871   6.354   2.566  0.4472 -2.4835 -0.1392
 8334TIP3    H246494   1.948   6.464   2.495 -2.7929 -0.8454 -1.3326
 8335TIP3   OH246495   5.180   4.712   2.400  0.0580  0.2604  0.1459
 8335TIP3    H146496   5.185   4.656   2.322  1.5862  2.2471 -1.2963
 8335TIP3    H246497   5.107   4.772   2.381  0.2996  0.6158  0.3303
 8336TIP3   OH246498   4.306   3.197   4.724  0.2750 -0.4194 -0.1433
 8336TIP3    H146499   4.281   3.239   4.806  0.4602  0.8013 -0.6865
 8336TIP3    H246500   4.227   3.204   4.669  1.1977  2.0048 -1.3013
 8337TIP3   OH246501   2.963   1.701  16.030  0.3337 -0.2887  0.2932
 8337TIP3    H146502   3.054   1.711  16.058  1.3497  0.9768 -2.9553
 8337TIP3    H246503   2.952   1.607  16.017 -0.1734 -0.9431  4.3257
 8338TIP3   OH246504   2.509   0.864  14.716  0.0781  0.0494  0.3487
 8338TIP3    H146505   2.543   0.879  14.628  0.9345  1.8253  0.9365
 8338TIP3    H246506   2.488   0.771  14.718  3.9177 -1.0148 -0.4392
 8339TIP3   OH246507   3.616   6.027   2.892 -0.3183 -0.0401  0.2426
 8339TIP3    H146508   3.591   6.064   2.807  0.7641 -1.0622 -0.5599
 8339TIP3    H246509   3.555   5.954   2.905 -0.5298  0.1615  0.3636
 8340TIP3   OH246510   6.669   5.785   4.818  0.1176 -0.1524  0.0367
 8340TIP3    H146511   6.636   5.707   4.773  1.4251 -0.1181 -1.0523
 8340TIP3    H246512   6.719   5.750   4.892 -1.4533 -0.2342  1.0917
 8341TIP3   OH246513   1.452   4.810   1.776 -0.1691 -0.0368 -0.3271
 8341TIP3    H146514   1.491   4.787   1.860 -1.2632 -1.8159 -0.2432
 8341TIP3    H246515   1.526   4.826   1.718  0.6026  1.8498  1.0928
 8342TIP3   OH246516   1.432   6.774  15.541  0.3569 -0.4453  0.2670
 8342TIP3    H146517   1.352   6.784  15.593  0.1494 -3.3610  0.6956
 8342TIP3    H246518   1.402   6.737  15.457  0.9523  1.8412 -1.0397
 8343TIP3   OH246519   2.356   3.625  15.648 -0.5841 -0.4308  0.4031
 8343TIP3    H146520   2.388   3.715  15.639 -1.4559 -0.0468  0.9727
 8343TIP3    H246521   2.344   3.614  15.743 -1.2701 -0.8616  0.2714
 8344TIP3   OH246522   1.340   1.637   6.104  0.1934 -0.5739  0.1184
 8344TIP3    H146523   1.338   1.708   6.167  0.7668  0.5207 -1.0502
 8344TIP3    H246524   1.406   1.663   6.040 -1.1668 -1.0673 -1.5779
 8345TIP3   OH246525   1.989   3.033  14.023 -0.0111  0.4552  0.5604
 8345TIP3    H146526   2.017   3.114  14.066  0.3233  0.1484  0.9289
 8345TIP3    H246527   2.060   3.014  13.961 -1.5858  2.2223 -1.9881
 8346TIP3   OH246528   6.054   5.436   5.605 -0.2437  0.6706  0.0885
 8346TIP3    H146529   5.964   5.419   5.631  0.3002 -0.2025  1.5685
 8346TIP3    H246530   6.086   5.353   5.572  0.5019  0.5018  1.1747
 8347TIP3   OH246531   3.090   0.707  15.662  0.4042 -0.2962 -0.2684
 8347TIP3    H146532   3.037   0.670  15.733 -0.3202 -0.2364 -0.7650
 8347TIP3    H246533   3.126   0.631  15.617 -0.1821 -0.3748 -0.6145
 8348TIP3   OH246534   5.030   6.028   2.900  0.6056 -0.4958  0.3798
 8348TIP3    H146535   5.054   6.069   2.983 -0.8696  0.2071  0.4826
 8348TIP3    H246536   5.107   6.040   2.845  0.4318  2.0194  0.5672
 8349TIP3   OH246537   0.644   4.716  11.040 -0.4355  0.0647 -0.3655
 8349TIP3    H146538   0.610   4.628  11.022 -0.3474 -0.7266  2.7425
 8349TIP3    H246539   0.595   4.773  10.982 -1.2323 -1.9176 -1.7470
 8350TIP3   OH246540   5.843   5.520  16.087  0.0023 -0.0892  0.0435
 8350TIP3    H146541   5.834   5.438  16.136  1.6449  0.2397  0.9795
 8350TIP3    H246542   5.789   5.583  16.135 -2.5974 -0.9035 -1.5908
 8351TIP3   OH246543   2.409   1.502   4.559  0.3014  0.3988  0.5248
 8351TIP3    H146544   2.412   1.465   4.471 -0.0991  1.7073 -0.0660
 8351TIP3    H246545   2.392   1.427   4.616 -2.1400 -0.1298 -0.7745
 8352TIP3   OH246546   1.702   4.607   6.573  0.1662 -0.0366  0.4156
 8352TIP3    H146547   1.752   4.679   6.533 -1.0557 -0.5231 -2.1856
 8352TIP3    H246548   1.613   4.620   6.542 -0.1616 -2.4447  0.2094
 8353TIP3   OH246549   4.766   5.964  14.548  0.2888 -0.0682  0.1252
 8353TIP3    H146550   4.743   5.912  14.471  0.6998  0.2830 -0.2430
 8353TIP3    H246551   4.692   5.954  14.607  0.7782 -1.9087  0.4966
 8354TIP3   OH246552   5.381   4.494  17.045 -0.0866 -0.9788 -0.3924
 8354TIP3    H146553   5.377   4.506  16.950 -2.1415 -0.7208 -0.3120
 8354TIP3    H246554   5.445   4.424  17.057  1.9546  0.5164 -1.7729
 8355TIP3   OH246555   1.453   0.276  15.029 -0.1417 -0.0892  0.5818
 8355TIP3    H146556   1.446   0.269  15.124  0.2801 -1.3049  0.5471
 8355TIP3    H246557   1.483   0.190  15.001  0.3595  0.4422 -0.5986
 8356TIP3   OH246558   2.630   6.424  11.477  0.0799 -0.3075 -0.1967
 8356TIP3    H146559   2.627   6.518  11.494 -0.7587 -0.0628 -1.5692
 8356TIP3    H246560   2.710   6.411  11.426  0.4700 -0.4352  0.4315
 8357TIP3   OH246561   6.090   2.844  14.612  0.0238  0.2121  0.1955
 8357TIP3    H146562   6.062   2.846  14.703 -0.4179  0.9611  0.0522
 8357TIP3    H246563   6.155   2.774  14.608 -0.9653 -0.7634  0.7753
 8358TIP3   OH246564   1.411   3.757   1.762 -0.3795 -0.4416 -0.1456
 8358TIP3    H146565   1.378   3.694   1.698 -1.5881  0.5514 -0.5395
 8358TIP3    H246566   1.362   3.738   1.843 -1.9729  0.9804 -0.7090
 8359TIP3   OH246567   1.107   4.513  16.739 -0.0549  0.0515  0.1295
 8359TIP3    H146568   1.117   4.542  16.648 -0.8767 -0.5901 -0.1878
 8359TIP3    H246569   1.057   4.583  16.781  1.1064  0.7734  0.3328
 8360TIP3   OH246570   3.520   1.701   4.806 -0.1495  0.3048 -0.2960
 8360TIP3    H146571   3.547   1.718   4.716  1.4423  1.2866  0.3256
 8360TIP3    H246572   3.528   1.606   4.817  1.5962  0.3857 -0.6226
 8361TIP3   OH246573   1.100   6.811   5.850 -0.1259 -0.0649  0.3289
 8361TIP3    H146574   1.094   6.884   5.788 -1.6057 -1.0276 -0.7334
 8361TIP3    H246575   1.139   6.849   5.928  0.9797  1.3908 -0.8858
 8362TIP3   OH246576   2.608   0.993   4.706  0.1889 -0.8619 -0.1807
 8362TIP3    H146577   2.655   1.013   4.787 -1.8891 -0.3746  0.9794
 8362TIP3    H246578   2.631   1.065   4.647  0.0809 -0.0610  0.7280
 8363TIP3   OH246579   4.648   3.403  11.369  0.1337 -0.1064  0.1505
 8363TIP3    H146580   4.597   3.420  11.448 -1.6119  3.1872 -1.5004
 8363TIP3    H246581   4.726   3.358  11.401 -0.3145  1.3618  3.7974
 8364TIP3   OH246582   2.375   4.490  11.366 -0.0832  0.0329  0.6801
 8364TIP3    H146583   2.365   4.450  11.280  0.1876  0.4587  0.4506
 8364TIP3    H246584   2.433   4.430  11.414  1.1678  0.6511 -0.0043
 8365TIP3   OH246585   1.351   1.632  16.468 -0.0619  0.0044  0.7985
 8365TIP3    H146586   1.396   1.686  16.403 -1.5197  0.6306  0.2527
 8365TIP3    H246587   1.412   1.560  16.486  1.7612  1.5863  1.2435
 8366TIP3   OH246588   2.164   5.283   6.050  0.4184 -0.2406 -0.2269
 8366TIP3    H146589   2.104   5.217   6.017  1.0247 -1.0865  0.3461
 8366TIP3    H246590   2.120   5.320   6.126 -0.3577  0.7318 -1.1154
 8367TIP3   OH246591   1.348   5.350   5.324 -0.0830  0.3919  0.4628
 8367TIP3    H146592   1.277   5.346   5.260 -3.0171 -0.3290  3.5294
 8367TIP3    H246593   1.342   5.439   5.360 -0.6766 -0.2369  1.9811
 8368TIP3   OH246594   4.537   4.945  15.937 -0.0935  0.1600 -0.1261
 8368TIP3    H146595   4.514   4.997  16.014  1.5557  1.8825 -0.7231
 8368TIP3    H246596   4.461   4.951  15.880 -0.1738  1.4191  0.0960
 8369TIP3   OH246597   1.575   4.239   0.551  0.2330 -0.4415 -0.4681
 8369TIP3    H146598   1.587   4.307   0.485 -1.1131 -0.2668 -0.5471
 8369TIP3    H246599   1.654   4.244   0.606  1.3982 -0.6172 -2.0554
 8370TIP3   OH246600   2.521   0.110  13.325  0.3632 -0.5712  0.2257
 8370TIP3    H146601   2.564   0.171  13.264  1.0734 -0.9135  0.3710
 8370TIP3    H246602   2.546   0.141  13.412 -0.9121  0.1060  0.3685
 8371TIP3   OH246603   6.267   6.252   2.232  0.3302 -0.0361 -0.4633
 8371TIP3    H146604   6.337   6.282   2.291  1.0923 -1.3810 -0.6548
 8371TIP3    H246605   6.227   6.333   2.201 -0.4665  0.7440  2.2790
 8372TIP3   OH246606   0.501   4.378  15.544 -0.0784  0.2772 -0.0435
 8372TIP3    H146607   0.534   4.289  15.554 -2.0054 -0.5217 -0.3544
 8372TIP3    H246608   0.436   4.387  15.613 -1.9243  0.4153 -1.7239
 8373TIP3   OH246609   4.897   0.390  15.867  0.1128 -0.2479  0.4471
 8373TIP3    H146610   4.905   0.406  15.773  1.6955 -0.7303  0.4557
 8373TIP3    H246611   4.942   0.306  15.880  0.1222 -0.0662  1.6652
 8374TIP3   OH246612   6.550   6.217  16.065 -0.8651  0.0069 -0.4224
 8374TIP3    H146613   6.579   6.240  15.976 -0.0996 -2.9610 -1.0335
 8374TIP3    H246614   6.539   6.122  16.064  0.8762 -0.4156  3.1062
 8375TIP3   OH246615   2.547   4.087   0.759  0.1182 -0.5090 -0.2775
 8375TIP3    H146616   2.474   4.093   0.822  1.5055  1.0141  1.2954
 8375TIP3    H246617   2.603   4.162   0.780  2.1682 -1.6355 -1.4204
 8376TIP3   OH246618   4.257   3.297  14.623 -0.3533 -0.0517 -0.0216
 8376TIP3    H146619   4.200   3.246  14.680 -0.1554 -0.0814  0.1507
 8376TIP3    H246620   4.328   3.327  14.680 -0.4767  0.4335 -0.1107
 8377TIP3   OH246621   4.996   3.817  14.484  0.0153  0.4588  0.0039
 8377TIP3    H146622   4.953   3.750  14.537 -1.0931  0.4849 -0.8203
 8377TIP3    H246623   4.933   3.890  14.482 -0.9511 -0.3223 -2.9823
 8378TIP3   OH246624   5.608   2.199  15.478 -0.0937  0.2069  0.2422
 8378TIP3    H146625   5.641   2.274  15.527  1.4264  0.2595 -0.7812
 8378TIP3    H246626   5.681   2.136  15.477 -0.4991 -0.2831 -0.9075
 8379TIP3   OH246627   5.641   4.557   5.373 -0.1644 -0.1736 -0.1311
 8379TIP3    H146628   5.693   4.530   5.449  0.6074  3.0441  0.6652
 8379TIP3    H246629   5.579   4.621   5.408 -1.6595 -0.6258 -1.8171
 8380TIP3   OH246630   5.031   4.484  12.189  0.0309  0.2013 -0.3262
 8380TIP3    H146631   5.123   4.506  12.197 -0.1279  0.2454  2.9398
 8380TIP3    H246632   5.018   4.410  12.249 -2.3914  1.6003  1.0716
 8381TIP3   OH246633   4.333   0.504  13.883  0.6727 -0.0925  0.0705
 8381TIP3    H146634   4.361   0.579  13.831  0.2831  0.4541  0.6446
 8381TIP3    H246635   4.317   0.435  13.818  0.5658  0.4602 -0.5017
 8382TIP3   OH246636   2.617   3.259  13.380 -0.0885  0.3400  0.7677
 8382TIP3    H146637   2.527   3.253  13.411 -0.3131 -0.1115  0.0545
 8382TIP3    H246638   2.609   3.288  13.289  0.3918 -1.2118  0.2025
 8383TIP3   OH246639   0.254   5.087   3.459  0.1753  0.2140 -0.1558
 8383TIP3    H146640   0.308   5.048   3.390 -1.3728 -0.4046 -1.0498
 8383TIP3    H246641   0.172   5.109   3.416 -1.3543 -1.4148  1.7759
 8384TIP3   OH246642   5.274   1.953  12.004 -0.4342  0.2350  0.8657
 8384TIP3    H146643   5.229   1.980  11.924 -0.7062 -0.8194  0.6523
 8384TIP3    H246644   5.220   1.884  12.041 -0.4744  0.9087  2.1463
 8385TIP3   OH246645   5.150   1.551   3.837 -0.0872  0.3345  0.0416
 8385TIP3    H146646   5.138   1.633   3.885 -0.5590 -0.2072  0.8862
 8385TIP3    H246647   5.179   1.578   3.750  1.3108  1.3240  0.7715
 8386TIP3   OH246648   5.127   2.056  16.299  0.0015 -0.1255  0.3813
 8386TIP3    H146649   5.120   2.143  16.259 -0.7265  0.1818  1.1339
 8386TIP3    H246650   5.175   2.071  16.381  1.8255 -0.8112 -0.5184
 8387TIP3   OH246651   0.574   5.113   2.311 -0.4605  0.3736  0.0128
 8387TIP3    H146652   0.632   5.128   2.386 -1.5510  1.0779  0.7489
 8387TIP3    H246653   0.549   5.021   2.319  0.0116  0.2465  0.0799
 8388TIP3   OH246654   3.294   3.861   3.472  0.4901  0.4718  0.5492
 8388TIP3    H146655   3.260   3.932   3.526 -0.5000 -0.4773  1.2081
 8388TIP3    H246656   3.380   3.842   3.508  0.0238  0.1553  1.5280
 8389TIP3   OH246657   3.470   3.986  12.955 -0.6164  0.0084 -0.1573
 8389TIP3    H146658   3.513   4.052  13.009  4.2007 -3.3154  0.7133
 8389TIP3    H246659   3.494   4.010  12.865  1.8377 -0.8143  0.2060
 8390TIP3   OH246660   2.829   0.687   1.966  0.4659  0.1286  0.0641
 8390TIP3    H146661   2.878   0.703   2.046  0.1684  0.2969  0.2110
 8390TIP3    H246662   2.799   0.596   1.974  2.0020 -0.4806 -0.6907
 8391TIP3   OH246663   2.964   1.585   6.471 -0.1457 -0.0461 -0.3942
 8391TIP3    H146664   2.886   1.568   6.524 -0.3695  1.8477 -0.0487
 8391TIP3    H246665   3.036   1.591   6.535 -0.0212  0.0106 -0.5397
 8392TIP3   OH246666   2.294   3.419   3.587 -0.2344  0.6460  0.4881
 8392TIP3    H146667   2.291   3.339   3.639  1.2659 -0.6442 -1.2794
 8392TIP3    H246668   2.202   3.437   3.565 -0.4896 -1.9057 -0.9032
 8393TIP3   OH246669   2.876   3.288   2.415 -0.3721 -0.5283 -0.2586
 8393TIP3    H146670   2.927   3.229   2.471 -1.4210 -0.3238  0.9575
 8393TIP3    H246671   2.870   3.369   2.464 -0.5249 -0.0164 -1.0958
 8394TIP3   OH246672   5.032   5.654  15.874 -0.5822 -0.3486 -0.4991
 8394TIP3    H146673   5.111   5.610  15.845  0.0456  1.2538 -1.3500
 8394TIP3    H246674   4.963   5.588  15.865  0.4670 -1.4481 -0.7509
 8395TIP3   OH246675   0.227   2.616  13.082  0.2747  0.2780 -0.2580
 8395TIP3    H146676   0.321   2.630  13.067 -0.1417  0.7643 -2.8574
 8395TIP3    H246677   0.184   2.673  13.018 -1.8517  0.6745  1.4092
 8396TIP3   OH246678   2.815   0.823  14.531 -0.2218 -0.7381  0.0810
 8396TIP3    H146679   2.823   0.869  14.615 -2.4181 -0.3083  0.1345
 8396TIP3    H246680   2.838   0.889  14.466 -2.3808  0.2255  0.2099
 8397TIP3   OH246681   5.665   1.639   2.022  0.7413 -0.0355  0.4524
 8397TIP3    H146682   5.618   1.558   2.007  1.9456 -1.2010  2.5128
 8397TIP3    H246683   5.728   1.645   1.949 -1.0711  0.4629 -1.1412
 8398TIP3   OH246684   6.196   3.318   0.549  0.3869  0.0687 -0.1380
 8398TIP3    H146685   6.268   3.286   0.603  1.2079  1.7573 -0.1696
 8398TIP3    H246686   6.160   3.239   0.508  1.7350 -0.8950  0.4535
 8399TIP3   OH246687   2.671   1.072  12.726 -0.2705  0.1226 -0.2978
 8399TIP3    H146688   2.738   1.139  12.740 -1.2386  1.2166 -0.7285
 8399TIP3    H246689   2.600   1.096  12.784 -1.8624  1.2682 -2.5536
 8400TIP3   OH246690   3.154   3.026   2.778  0.1366  0.0686  0.4284
 8400TIP3    H146691   3.079   3.027   2.837 -1.8641 -0.1984 -1.9937
 8400TIP3    H246692   3.120   2.993   2.695  2.6327  1.1731 -1.1572
 8401TIP3   OH246693   3.083   2.217  16.249 -0.2468  0.2897  0.6116
 8401TIP3    H146694   3.166   2.217  16.297  1.2558  1.0614 -1.8123
 8401TIP3    H246695   3.068   2.309  16.227  0.9863 -0.2396 -3.1903
 8402TIP3   OH246696   1.881   2.013  16.699  0.3519  0.0343 -0.1363
 8402TIP3    H146697   1.938   1.953  16.652 -0.2085  0.3451 -1.2313
 8402TIP3    H246698   1.851   1.963  16.775  2.6045  0.0929  0.8706
 8403TIP3   OH246699   2.309   1.930  16.448 -0.2818  0.0386 -0.2681
 8403TIP3    H146700   2.382   1.961  16.502  0.4424  0.0268 -1.2264
 8403TIP3    H246701   2.347   1.915  16.362 -1.5354  0.5720 -0.9451
 8404TIP3   OH246702   2.487   4.498   4.690  0.2016  0.0771 -0.0348
 8404TIP3    H146703   2.509   4.427   4.750  1.6338 -2.8480 -3.5932
 8404TIP3    H246704   2.561   4.559   4.696  1.5109 -1.3946 -0.4162
 8405TIP3   OH246705   6.113   1.692   0.181 -0.2708  0.1804  0.1358
 8405TIP3    H146706   6.157   1.750   0.242 -0.3743 -0.1850  0.5644
 8405TIP3    H246707   6.088   1.748   0.108 -0.5344  0.7103  0.6281
 8406TIP3   OH246708   4.285   4.119  16.041 -0.4619 -0.1250  0.4134
 8406TIP3    H146709   4.200   4.137  16.002  0.9674  1.0033 -2.5229
 8406TIP3    H246710   4.335   4.200  16.029  1.3685 -1.1055  0.9714
 8407TIP3   OH246711   6.261   4.252  16.813  0.4075 -0.4400  0.2969
 8407TIP3    H146712   6.308   4.318  16.763  1.7579 -1.4472  0.1774
 8407TIP3    H246713   6.322   4.178  16.818 -0.8952 -1.5241  0.7652
 8408TIP3   OH246714   5.258   6.291   6.624 -0.3789  0.4160 -0.0332
 8408TIP3    H146715   5.204   6.214   6.607 -0.6807  0.3434  1.2003
 8408TIP3    H246716   5.217   6.334   6.698  1.7536 -0.1696  1.5899
 8409TIP3   OH246717   3.846   4.529   5.930 -0.2703 -0.3697  0.5114
 8409TIP3    H146718   3.795   4.456   5.964  0.0115 -1.0961 -0.5845
 8409TIP3    H246719   3.830   4.600   5.992 -0.1293 -1.4984  1.8772
 8410TIP3   OH246720   3.237   4.396  13.398  0.1385 -0.9687 -0.1642
 8410TIP3    H146721   3.299   4.339  13.444  1.1785  1.5870  1.8635
 8410TIP3    H246722   3.158   4.394  13.452 -0.0149 -0.9515 -0.3891
 8411TIP3   OH246723   6.008   1.172  13.003 -0.9807  0.3548  0.4767
 8411TIP3    H146724   6.034   1.084  12.974  1.1085  1.0330  0.1400
 8411TIP3    H246725   6.051   1.184  13.087 -0.3714  1.4189  0.0418
 8412TIP3   OH246726   3.473   2.257  10.397  0.3688  0.2161 -0.1578
 8412TIP3    H146727   3.488   2.318  10.470  1.4571 -0.4025  0.1668
 8412TIP3    H246728   3.393   2.288  10.356  0.8848  1.8614  0.0051
 8413TIP3   OH246729   1.112   0.114   1.078 -0.0351 -0.6752  0.3712
 8413TIP3    H146730   1.204   0.095   1.059  0.3403 -0.5498  1.8932
 8413TIP3    H246731   1.064   0.077   1.004  1.2022 -1.1923 -0.2044
 8414TIP3   OH246732   6.576   2.740   4.019 -0.3870 -0.8515  0.3351
 8414TIP3    H146733   6.547   2.784   3.939 -3.2065 -0.3242  1.5466
 8414TIP3    H246734   6.606   2.811   4.075 -0.4338 -1.0045  0.5516
 8415TIP3   OH246735   1.390   4.285  13.055 -0.4671 -0.6369 -0.0368
 8415TIP3    H146736   1.446   4.360  13.034 -0.3457 -0.2706  1.5021
 8415TIP3    H246737   1.421   4.254  13.140  0.5054 -3.4614 -1.3180
 8416TIP3   OH246738   0.315   1.665  12.759  0.6371  0.1057 -0.4359
 8416TIP3    H146739   0.292   1.751  12.793  1.4828  0.6083 -1.0881
 8416TIP3    H246740   0.409   1.658  12.773  0.4957 -0.9666  0.1333
 8417TIP3   OH246741   2.996   4.319   2.079  0.1882 -0.8307  0.1400
 8417TIP3    H146742   3.086   4.298   2.104  0.0976 -0.0992  1.1081
 8417TIP3    H246743   2.945   4.307   2.159 -0.1403  1.2924  0.3016
 8418TIP3   OH246744   5.611   0.446  14.817  0.4081 -0.4571 -0.1160
 8418TIP3    H146745   5.590   0.534  14.785 -1.9014 -0.8603  0.1342
 8418TIP3    H246746   5.690   0.458  14.869  0.0712  1.5112  0.0329
 8419TIP3   OH246747   1.281   3.970  13.983  0.2692 -0.2237  0.0129
 8419TIP3    H146748   1.366   4.014  13.979  0.6300 -0.9635 -0.8869
 8419TIP3    H246749   1.229   4.013  13.915  0.2257 -0.3919 -0.0587
 8420TIP3   OH246750   2.164   2.250   0.870  0.5887  0.2969 -0.5713
 8420TIP3    H146751   2.190   2.277   0.958  1.3160  2.1356 -1.2916
 8420TIP3    H246752   2.071   2.230   0.877  0.5903  0.6249  0.5638
 8421TIP3   OH246753   2.900   2.747   2.965 -0.0663 -0.1635 -0.5153
 8421TIP3    H146754   2.896   2.834   2.924 -0.7558 -0.3286 -0.8091
 8421TIP3    H246755   2.841   2.693   2.913 -0.6588 -0.4819  0.4521
 8422TIP3   OH246756   6.275   3.932  14.658  0.2035  0.4887 -0.0357
 8422TIP3    H146757   6.195   3.921  14.607 -0.7247  0.5242  1.3558
 8422TIP3    H246758   6.261   3.879  14.736  1.2724  1.0167  0.5307
 8423TIP3   OH246759   0.357   3.548   5.307 -0.1248  0.7620  0.3722
 8423TIP3    H146760   0.405   3.503   5.238 -0.8626  1.2357 -0.4692
 8423TIP3    H246761   0.285   3.489   5.328 -1.4792  1.7811 -1.1956
 8424TIP3   OH246762   6.044   3.127   5.965 -0.4496  0.1127 -0.3000
 8424TIP3    H146763   5.999   3.054   6.008  0.9637 -0.8784 -0.4188
 8424TIP3    H246764   6.097   3.085   5.897  0.7487  1.2003 -0.0763
 8425TIP3   OH246765   0.773   6.208  14.466  0.0459  0.2839 -0.4077
 8425TIP3    H146766   0.687   6.183  14.431  0.5211 -0.8781 -0.7887
 8425TIP3    H246767   0.761   6.206  14.561  0.3197 -2.5909 -0.3559
 8426TIP3   OH246768   1.225   5.948   0.239  0.1500  0.2000  0.0608
 8426TIP3    H146769   1.258   5.859   0.239 -0.8284 -0.2141 -1.8219
 8426TIP3    H246770   1.219   5.972   0.147  0.8815  2.4292  0.5228
 8427TIP3   OH246771   4.490   4.921  12.510 -0.5045 -0.1143  0.0328
 8427TIP3    H146772   4.397   4.941  12.511 -0.7254 -1.0989  1.2818
 8427TIP3    H246773   4.533   5.001  12.540 -0.9831  0.1734 -0.0460
 8428TIP3   OH246774   4.596   5.211  12.716 -0.2161  0.0073  0.4794
 8428TIP3    H146775   4.611   5.116  12.722  0.9731  0.2258  1.1356
 8428TIP3    H246776   4.638   5.237  12.634 -3.1047 -0.4627 -1.2940
 8429TIP3   OH246777   3.103   2.823  14.032 -0.0665 -0.4659 -0.3095
 8429TIP3    H146778   3.139   2.894  14.086 -0.9335 -0.2010 -0.0525
 8429TIP3    H246779   3.030   2.864  13.986 -0.9705 -1.3286  0.3063
 8430TIP3   OH246780   6.406   4.755  16.373 -0.3915 -0.3300  0.3442
 8430TIP3    H146781   6.346   4.768  16.299  1.2109 -1.4961 -1.2770
 8430TIP3    H246782   6.370   4.680  16.420  0.1656 -1.5923 -1.1272
 8431TIP3   OH246783   4.113   3.729   0.157 -0.2262 -0.3334 -0.0250
 8431TIP3    H146784   4.069   3.714   0.073  1.8841  0.5320 -1.3705
 8431TIP3    H246785   4.042   3.731   0.221 -1.8747 -1.4606 -1.7085
 8432TIP3   OH246786   4.159   5.767   4.710 -0.0974 -0.3249 -0.0660
 8432TIP3    H146787   4.228   5.715   4.669  0.1775  1.2878 -1.8172
 8432TIP3    H246788   4.207   5.828   4.768 -0.1365  0.0627 -0.4385
 8433TIP3   OH246789   4.062   0.994  11.621  0.0267  0.2682 -0.2653
 8433TIP3    H146790   4.004   1.051  11.571 -0.9166 -1.2011 -0.9492
 8433TIP3    H246791   4.092   0.929  11.558  0.3468 -0.4981  0.6497
 8434TIP3   OH246792   2.733   0.380   2.317 -0.6986 -0.1413 -0.0961
 8434TIP3    H146793   2.818   0.399   2.276 -0.6277 -0.7619 -0.2526
 8434TIP3    H246794   2.727   0.284   2.315  0.3245 -0.4361  3.3333
 8435TIP3   OH246795   2.694   2.577   4.365 -0.0493 -0.0116  0.6005
 8435TIP3    H146796   2.666   2.557   4.454  0.7274 -1.9657  0.4564
 8435TIP3    H246797   2.629   2.534   4.309  0.1230  0.1962  0.2396
 8436TIP3   OH246798   2.961   1.605  15.060  0.2049  0.2102 -0.2461
 8436TIP3    H146799   3.033   1.650  15.014  0.2481 -0.9372 -1.3575
 8436TIP3    H246800   2.903   1.676  15.088  1.2912  1.0938 -0.1620
 8437TIP3   OH246801   5.482   3.159   4.337 -0.1942  0.1931  0.2344
 8437TIP3    H146802   5.503   3.172   4.244 -0.0927 -1.3572  0.0048
 8437TIP3    H246803   5.493   3.065   4.351 -1.2361  0.2310  1.5658
 8438TIP3   OH246804   5.394   6.566  16.395  0.1242  0.0337 -0.0225
 8438TIP3    H146805   5.447   6.591  16.319  0.7882 -0.2966  0.3176
 8438TIP3    H246806   5.391   6.645  16.449 -0.1226  0.1889 -0.2616
 8439TIP3   OH246807   6.698   4.527  14.337  0.2813  0.0746  0.1403
 8439TIP3    H146808   6.627   4.465  14.352  1.1672 -1.2078 -0.8079
 8439TIP3    H246809   6.703   4.577  14.419 -2.1791  0.7379 -0.0213
 8440TIP3   OH246810   6.342   1.574   4.795 -0.1399  0.2214 -0.2043
 8440TIP3    H146811   6.410   1.637   4.820  0.0752  0.5084 -1.4525
 8440TIP3    H246812   6.266   1.628   4.772 -0.6544 -0.0795  0.7120
 8441TIP3   OH246813   6.267   4.933   4.188 -0.0391  0.3116  0.8774
 8441TIP3    H146814   6.178   4.916   4.218 -1.7076 -0.8021 -3.8631
 8441TIP3    H246815   6.269   5.028   4.173 -0.5805  0.2981  0.6759
 8442TIP3   OH246816   3.028   4.740  11.929 -0.4758  0.6449 -0.1400
 8442TIP3    H146817   3.025   4.651  11.966 -0.6325  0.1699 -1.2505
 8442TIP3    H246818   3.051   4.726  11.837 -1.0609  1.7217 -0.4584
 8443TIP3   OH246819   4.154   2.628  17.112  0.1928  0.2156 -0.4456
 8443TIP3    H146820   4.230   2.613  17.056  1.3448 -1.6779  1.4531
 8443TIP3    H246821   4.090   2.563  17.084  0.0263  0.5157 -0.7705
 8444TIP3   OH246822   5.168   0.614  11.422 -0.1433 -0.5538  0.5910
 8444TIP3    H146823   5.171   0.540  11.483  1.3082  0.1425  1.4251
 8444TIP3    H246824   5.075   0.631  11.410 -0.4922 -1.7852  1.2735
 8445TIP3   OH246825   5.165   1.924   5.728  0.7998  0.0095 -0.6875
 8445TIP3    H146826   5.116   1.992   5.776  0.5855 -1.1468  0.7925
 8445TIP3    H246827   5.249   1.965   5.709  0.4321  0.9309 -0.4192
 8446TIP3   OH246828   3.405   5.096  13.451  0.0053  0.0238  0.4366
 8446TIP3    H146829   3.446   5.175  13.485  1.5983  0.1119 -1.4814
 8446TIP3    H246830   3.321   5.126  13.416  0.8912  1.0713 -0.9132
 8447TIP3   OH246831   4.268   4.338   5.003  0.1018 -0.1159 -0.0210
 8447TIP3    H146832   4.310   4.319   5.087  0.0147 -1.9982 -0.3521
 8447TIP3    H246833   4.227   4.255   4.978 -0.0388  0.4575 -1.8262
 8448TIP3   OH246834   6.031   2.302   4.293 -0.0880  0.2297 -0.0327
 8448TIP3    H146835   5.947   2.334   4.261  0.5313  0.3555 -1.6506
 8448TIP3    H246836   6.087   2.380   4.296  0.0953  0.0795  0.6176
 8449TIP3   OH246837   1.711   2.960  14.480  0.0562 -1.0234  0.1884
 8449TIP3    H146838   1.697   2.892  14.547  0.0573 -0.7430  0.4745
 8449TIP3    H246839   1.771   2.920  14.418 -1.6664 -2.1156 -0.8594
 8450TIP3   OH246840   2.360   3.830   0.839  0.0033  0.1052 -0.1980
 8450TIP3    H146841   2.433   3.870   0.885  1.8245 -0.9562 -1.9857
 8450TIP3    H246842   2.356   3.741   0.872 -0.7461  0.2548  0.1408
 8451TIP3   OH246843   4.055   0.409  11.463  0.3467 -0.4955  0.5264
 8451TIP3    H146844   4.091   0.484  11.417 -0.5830 -0.3176  0.0773
 8451TIP3    H246845   4.132   0.361  11.494  1.0339 -0.8586 -1.5800
 8452TIP3   OH246846   5.572   2.738  12.063 -0.2590 -0.0011  0.2312
 8452TIP3    H146847   5.620   2.708  11.986 -1.0750  0.1084 -0.3308
 8452TIP3    H246848   5.600   2.829  12.074 -0.1740 -0.0034  0.0436
 8453TIP3   OH246849   0.065   5.489   0.943  0.2089  0.1458  0.1153
 8453TIP3    H146850   0.047   5.395   0.932 -2.3183  0.2841  2.1109
 8453TIP3    H246851  -0.007   5.533   0.898  2.6770  1.3617 -3.0232
 8454TIP3   OH246852   0.036   3.117  14.024  0.0193 -0.1104 -0.5719
 8454TIP3    H146853   0.086   3.142  14.102 -0.2672 -1.8721  0.2278
 8454TIP3    H246854  -0.021   3.192  14.007  0.0983  0.3207  0.9092
 8455TIP3   OH246855   0.504   5.124  11.417  0.0500  1.0050 -0.1319
 8455TIP3    H146856   0.452   5.086  11.347 -0.9631  1.6643  0.2514
 8455TIP3    H246857   0.558   5.190  11.373 -0.9967  1.8209 -0.2221
 8456TIP3   OH246858   0.261   0.489  13.190 -0.2558 -1.0570  0.1610
 8456TIP3    H146859   0.343   0.449  13.220 -0.8454 -1.5262  1.1947
 8456TIP3    H246860   0.192   0.434  13.226 -1.0532 -0.3756 -0.2675
 8457TIP3   OH246861   1.012   0.728  15.526  0.0783 -0.2268  0.2748
 8457TIP3    H146862   1.061   0.810  15.520  0.5088 -0.5833 -1.3020
 8457TIP3    H246863   1.043   0.687  15.607  2.6571 -0.5990 -0.8241
 8458TIP3   OH246864   4.032   0.084  15.584  0.5389 -0.2440  0.0306
 8458TIP3    H146865   3.969   0.049  15.647  0.5815 -1.3289 -0.5208
 8458TIP3    H246866   4.105   0.022  15.585  1.2003  0.5120 -0.0122
 8459TIP3   OH246867   4.500   0.406  14.041 -0.5868  0.6693 -0.2759
 8459TIP3    H146868   4.589   0.430  14.013 -0.3542 -0.4313 -0.5291
 8459TIP3    H246869   4.442   0.454  13.981 -0.1274  0.1377 -1.1756
 8460TIP3   OH246870   3.791   5.156   6.004 -0.9303 -0.0198 -0.6031
 8460TIP3    H146871   3.802   5.096   6.077  0.4124 -0.8336 -1.4229
 8460TIP3    H246872   3.878   5.160   5.963 -1.4849  0.9227 -1.7644
 8461TIP3   OH246873   4.784   3.904   3.462  0.0913  0.6506 -0.5598
 8461TIP3    H146874   4.746   3.817   3.478  1.7272  0.1699  0.9742
 8461TIP3    H246875   4.761   3.954   3.540 -0.0485  1.3263 -1.0269
 8462TIP3   OH246876   1.167   4.272  15.067  0.3079  0.2117 -0.0503
 8462TIP3    H146877   1.107   4.295  15.138  0.0222 -0.7888  0.0480
 8462TIP3    H246878   1.253   4.267  15.108  0.3545  0.8947 -0.0422
 8463TIP3   OH246879   1.097   5.699  14.344 -0.8015  0.9006 -0.1794
 8463TIP3    H146880   1.017   5.655  14.371 -0.9844  0.5926 -1.1905
 8463TIP3    H246881   1.139   5.637  14.284 -1.0181  2.0368 -1.5605
 8464TIP3   OH246882   6.107   3.097  16.425  0.5568  0.0753 -0.3698
 8464TIP3    H146883   6.091   3.026  16.486  0.3178 -0.0225 -0.5433
 8464TIP3    H246884   6.180   3.147  16.463  0.5401 -0.1003 -0.1112
 8465TIP3   OH246885   5.886   1.627   3.458  0.3878  0.1564 -0.3668
 8465TIP3    H146886   5.982   1.627   3.463  0.4561 -0.5302 -1.3039
 8465TIP3    H246887   5.857   1.648   3.547  1.4064  0.7133 -0.1500
 8466TIP3   OH246888   4.705   3.261  16.700  0.0292 -0.3648  0.1063
 8466TIP3    H146889   4.638   3.325  16.678  0.4679 -0.5452 -1.9435
 8466TIP3    H246890   4.786   3.311  16.705  0.0220 -0.4166  0.8008
 8467TIP3   OH246891   2.992   0.990   0.984  0.3178 -0.1895  0.1160
 8467TIP3    H146892   2.915   0.933   0.996  0.0474 -0.0363 -0.8304
 8467TIP3    H246893   3.021   1.009   1.073  1.3098 -3.0053  0.5121
 8468TIP3   OH246894   2.899   4.480   4.337  0.0053 -0.4148  0.2200
 8468TIP3    H146895   2.907   4.555   4.277  1.7317 -0.9762 -0.2935
 8468TIP3    H246896   2.859   4.517   4.416  0.5990  0.9942 -0.1179
 8469TIP3   OH246897   4.937   1.067  13.121 -0.3420 -0.5000  0.0692
 8469TIP3    H146898   4.882   1.006  13.171 -1.0179 -0.8459 -1.0623
 8469TIP3    H246899   4.936   1.147  13.174 -1.8422 -0.5437  0.1601
 8470TIP3   OH246900   6.154   2.599   0.805 -0.8384  0.0716 -0.0952
 8470TIP3    H146901   6.220   2.636   0.747 -1.3082 -0.2283 -0.8303
 8470TIP3    H246902   6.099   2.544   0.748 -0.4953 -1.3161  0.8477
 8471TIP3   OH246903   0.565   2.745   1.507  0.2039  0.4490 -0.4317
 8471TIP3    H146904   0.634   2.801   1.543  1.6194 -0.0130 -2.2698
 8471TIP3    H246905   0.546   2.682   1.576  1.2446  0.9299  0.3063
 8472TIP3   OH246906   5.705   6.717   4.550  0.2340  0.0429  0.1979
 8472TIP3    H146907   5.767   6.788   4.533  0.4941 -0.4857 -1.1904
 8472TIP3    H246908   5.715   6.699   4.643  1.7551  0.3631  0.1288
 8473TIP3   OH246909   3.502   2.325  15.657  0.2473 -0.4761 -0.5244
 8473TIP3    H146910   3.519   2.237  15.624 -0.3044 -0.7707 -0.0442
 8473TIP3    H246911   3.479   2.312  15.749  1.8016  0.3209  0.0219
 8474TIP3   OH246912   4.405   2.712  12.188  0.0917  0.5252 -0.2640
 8474TIP3    H146913   4.433   2.714  12.096  1.4766  1.4769  0.1455
 8474TIP3    H246914   4.311   2.730  12.184 -0.5511 -2.5788 -1.6746
 8475TIP3   OH246915   6.027   2.762   1.006  0.4342 -0.1277  0.4912
 8475TIP3    H146916   6.094   2.829   1.013  1.3752 -1.2063  3.6255
 8475TIP3    H246917   6.067   2.693   0.953  0.6236  0.4640 -0.1481
 8476TIP3   OH246918   4.345   6.060  13.962  0.3369 -0.3171 -0.0075
 8476TIP3    H146919   4.325   6.025  14.049 -1.0262  0.6851  0.1203
 8476TIP3    H246920   4.341   6.155  13.973 -0.2835 -0.1767 -1.2404
 8477TIP3   OH246921   3.541   1.960  10.864 -0.3031  0.0920 -0.0275
 8477TIP3    H146922   3.596   1.927  10.935 -0.5032 -2.5651 -0.9949
 8477TIP3    H246923   3.456   1.918  10.878 -0.9740  1.2121 -0.6481
 8478TIP3   OH246924   4.606   3.633  14.493 -0.1349  0.0410 -0.5737
 8478TIP3    H146925   4.637   3.579  14.420 -1.0370  2.0703 -2.5678
 8478TIP3    H246926   4.519   3.599  14.513  0.6315 -1.3926  0.5645
 8479TIP3   OH246927   3.787   2.959   1.718  0.0627  0.0230 -0.3398
 8479TIP3    H146928   3.756   2.986   1.805  0.5262 -1.4807  0.3177
 8479TIP3    H246929   3.854   2.894   1.736  3.0836  2.4869 -1.7150
 8480TIP3   OH246930   0.091   3.975  13.898  0.5486  0.6848  0.5383
 8480TIP3    H146931   0.161   3.915  13.874  2.7246  2.7182  1.3152
 8480TIP3    H246932   0.070   3.953  13.989  0.3789  0.2633  0.3977
 8481TIP3   OH246933   2.330   3.609  11.769 -0.4142 -0.0143 -0.1066
 8481TIP3    H146934   2.331   3.704  11.781 -2.5901 -0.0728  1.0259
 8481TIP3    H246935   2.388   3.576  11.838 -0.3734  0.4300  0.0765
 8482TIP3   OH246936   4.655   6.422   1.067  0.5705 -0.0291  0.2834
 8482TIP3    H146937   4.683   6.333   1.085 -0.3506 -0.3996 -0.0528
 8482TIP3    H246938   4.609   6.417   0.983 -1.3722  0.3194  1.2520
 8483TIP3   OH246939   3.755   5.259   2.528  0.0679  0.2345  0.5284
 8483TIP3    H146940   3.683   5.231   2.586  0.6068 -1.8298  0.2761
 8483TIP3    H246941   3.732   5.348   2.504 -1.2226  0.4537  2.3066
 8484TIP3   OH246942   0.505   3.682  11.996 -0.3297 -0.3907 -0.7754
 8484TIP3    H146943   0.586   3.631  11.990  0.1369  0.4613 -1.7869
 8484TIP3    H246944   0.475   3.691  11.906 -0.3769  1.1743 -0.6172
 8485TIP3   OH246945   5.185   1.590  12.861 -0.0823 -0.2302 -0.2361
 8485TIP3    H146946   5.089   1.592  12.869 -0.0071  0.9649  0.6259
 8485TIP3    H246947   5.211   1.510  12.907 -0.5774  0.2759  0.9801
 8486TIP3   OH246948   0.620   3.563  15.978 -0.0927  0.3969  0.2196
 8486TIP3    H146949   0.586   3.508  15.907  1.0968 -1.7423  1.1837
 8486TIP3    H246950   0.543   3.585  16.030 -0.7215  0.3812 -0.6821
 8487TIP3   OH246951   1.170   2.567  13.435  0.7588 -0.0580 -0.0721
 8487TIP3    H146952   1.196   2.655  13.464 -0.4791  0.0733  0.7141
 8487TIP3    H246953   1.245   2.536  13.385  2.0146  0.6876  1.2475
 8488TIP3   OH246954   1.419   6.746  11.264 -0.3922 -0.1123  0.1363
 8488TIP3    H146955   1.386   6.724  11.352  2.1609 -1.7962  0.8010
 8488TIP3    H246956   1.350   6.717  11.205 -1.2211 -1.0883  1.5184
 8489TIP3   OH246957   0.231   6.192   5.047  0.6646 -0.4838 -0.8860
 8489TIP3    H146958   0.325   6.173   5.040  1.0253  1.0654 -0.6710
 8489TIP3    H246959   0.227   6.277   5.090 -0.9762 -1.9779  2.2122
 8490TIP3   OH246960   1.463   2.570   2.870 -0.2380 -0.1534 -1.1075
 8490TIP3    H146961   1.407   2.579   2.793 -0.4407  1.5927 -0.7908
 8490TIP3    H246962   1.406   2.586   2.945  0.3069 -0.1343 -0.6851
 8491TIP3   OH246963   5.996   5.057  15.175  0.0305  0.1571  0.0257
 8491TIP3    H146964   5.903   5.034  15.178 -0.0471  0.4277 -0.2170
 8491TIP3    H246965   5.999   5.135  15.119  0.1809  1.2305  1.4482
 8492TIP3   OH246966   4.383   1.487   5.469 -0.0242  0.6391  0.3080
 8492TIP3    H146967   4.375   1.582   5.461  0.9520  0.6590 -0.8959
 8492TIP3    H246968   4.423   1.473   5.555 -2.0331  1.1611  1.3768
 8493TIP3   OH246969   2.735   1.515   2.273 -0.3769 -0.1045 -0.2132
 8493TIP3    H146970   2.794   1.563   2.332  1.9801 -2.9174 -0.0757
 8493TIP3    H246971   2.767   1.536   2.186  1.7174 -2.4218 -0.1188
 8494TIP3   OH246972   0.147   3.341  16.291 -0.4592 -0.2579  0.0588
 8494TIP3    H146973   0.189   3.420  16.324 -0.8276 -0.0023 -0.0816
 8494TIP3    H246974   0.059   3.369  16.265 -1.6117 -1.2439  2.5679
 8495TIP3   OH246975   1.228   2.318   5.329 -0.3634 -0.0098 -0.0596
 8495TIP3    H146976   1.201   2.227   5.345  0.5219 -0.1940  0.4370
 8495TIP3    H246977   1.323   2.312   5.316 -0.1808  0.9522  0.7760
 8496TIP3   OH246978   4.417   0.967  15.730 -0.0035  0.0931 -0.0516
 8496TIP3    H146979   4.395   0.876  15.750  0.3317  0.5601  2.9187
 8496TIP3    H246980   4.340   1.000  15.683 -0.3901 -1.5283 -0.6204
 8497TIP3   OH246981   0.730   6.479  12.146 -0.3407 -0.3387 -0.7511
 8497TIP3    H146982   0.642   6.493  12.183  0.1808 -1.1705  0.8975
 8497TIP3    H246983   0.774   6.563  12.158 -0.3512 -0.4398  0.1085
 8498TIP3   OH246984   1.001   3.214  17.081 -0.5022 -0.0938  0.1488
 8498TIP3    H146985   1.015   3.185  16.991 -0.0996  0.2297  0.1049
 8498TIP3    H246986   0.957   3.140  17.123 -1.2532 -0.0116 -0.4689
 8499TIP3   OH246987   5.719   4.275  12.548  0.7257  0.1280 -0.2290
 8499TIP3    H146988   5.812   4.264  12.567  1.2730 -0.1290 -2.6978
 8499TIP3    H246989   5.690   4.187  12.521 -0.0243  0.3893 -0.3064
 8500TIP3   OH246990   5.915   1.881  16.837  0.3429  0.4282 -0.0324
 8500TIP3    H146991   5.879   1.940  16.771  0.7654  1.6018  0.7563
 8500TIP3    H246992   6.009   1.878  16.818  0.5178  1.0425  0.7100
 8501TIP3   OH246993   0.256   2.346  11.916 -0.7808  0.0627  0.3973
 8501TIP3    H146994   0.306   2.353  11.998  0.2931  0.4939 -0.2672
 8501TIP3    H246995   0.229   2.254  11.913  1.2297 -0.5837  0.1165
 8502TIP3   OH246996   3.869   1.995  16.793  0.3579 -0.0259  0.2995
 8502TIP3    H146997   3.808   1.954  16.731  0.5340 -0.0251  0.1212
 8502TIP3    H246998   3.953   1.994  16.747  0.4216  0.2737  0.4092
 8503TIP3   OH246999   4.269   6.028   2.237  0.1073 -0.6042  1.0220
 8503TIP3    H147000   4.334   6.094   2.260  0.8277 -1.0626  0.3540
 8503TIP3    H247001   4.292   5.952   2.289 -0.1947 -0.6179  1.1396
 8504TIP3   OH247002   4.815   4.476   6.099 -0.5210  0.4063 -0.2547
 8504TIP3    H147003   4.869   4.553   6.115 -0.3495  0.0663  0.9422
 8504TIP3    H247004   4.815   4.465   6.004  0.4403  1.1809 -0.3540
 8505TIP3   OH247005   0.875   5.421   3.527 -0.0751 -0.0143  0.5690
 8505TIP3    H147006   0.869   5.509   3.566 -0.3170 -1.7666  5.0556
 8505TIP3    H247007   0.791   5.410   3.483 -1.0684  1.1792  2.0410
 8506TIP3   OH247008   6.611   1.847   1.217  0.0541  0.3936 -0.2386
 8506TIP3    H147009   6.701   1.857   1.248 -0.1325  0.5367  0.2719
 8506TIP3    H247010   6.602   1.913   1.149 -0.1467  1.5124  0.8232
 8507TIP3   OH247011   5.474   6.808   3.437 -0.1768 -0.2495 -0.1586
 8507TIP3    H147012   5.392   6.850   3.415 -0.9408 -0.9141  1.2604
 8507TIP3    H247013   5.510   6.860   3.509  0.3444 -0.3185 -0.3599
 8508TIP3   OH247014   5.609   4.119   1.239  0.7418  0.2514  0.4841
 8508TIP3    H147015   5.588   4.032   1.274  2.8666 -0.5882 -0.1804
 8508TIP3    H247016   5.528   4.149   1.198  0.4897 -2.3597 -1.1496
 8509TIP3   OH247017   1.492   2.878  15.089 -0.3991  0.1065  0.1624
 8509TIP3    H147018   1.507   2.928  15.169  0.6338  1.3683 -0.7932
 8509TIP3    H247019   1.494   2.786  15.118 -0.8583  0.5498  1.7000
 8510TIP3   OH247020   5.384   4.771   1.470 -0.4400  0.6362 -0.5370
 8510TIP3    H147021   5.391   4.864   1.491  1.9124  0.6114 -0.9339
 8510TIP3    H247022   5.360   4.729   1.553  0.4160  1.4049  0.1234
 8511TIP3   OH247023   6.687   4.859  16.119 -0.1143 -0.5905 -0.1142
 8511TIP3    H147024   6.748   4.933  16.122 -1.1354  0.5177 -2.8755
 8511TIP3    H247025   6.605   4.894  16.154 -0.4864 -0.4940 -1.0498
 8512TIP3   OH247026   5.178   2.434  17.028 -0.2890  0.2612 -0.1466
 8512TIP3    H147027   5.116   2.431  16.955 -0.6607  1.6931  0.0690
 8512TIP3    H247028   5.208   2.525  17.029 -0.7663  0.4278  1.8674
 8513TIP3   OH247029   3.175   2.686   6.024 -0.0858 -0.7531  0.0307
 8513TIP3    H147030   3.128   2.668   6.106 -0.8884 -0.1426 -0.2873
 8513TIP3    H247031   3.171   2.781   6.015  0.3213 -0.7880 -0.5380
 8514TIP3   OH247032   4.115   4.204   2.832  0.0201 -0.0577 -0.0176
 8514TIP3    H147033   4.098   4.162   2.916  1.7597 -0.4397  0.1690
 8514TIP3    H247034   4.105   4.134   2.767  1.5276 -0.4738  0.1647
 8515TIP3   OH247035   5.986   3.994   0.455 -0.7489  0.3457 -0.2115
 8515TIP3    H147036   6.072   3.998   0.497  0.2648 -2.5741 -1.6921
 8515TIP3    H247037   5.931   3.950   0.519 -0.5604  0.3307 -0.0567
 8516TIP3   OH247038   5.949   3.529  15.701 -0.3838  0.5138 -0.0323
 8516TIP3    H147039   6.033   3.485  15.706 -0.6669 -0.0157  0.1264
 8516TIP3    H247040   5.932   3.539  15.607 -1.1917 -1.4408 -0.1395
 8517TIP3   OH247041   5.983   3.540   6.118 -0.2097  0.2184 -0.2266
 8517TIP3    H147042   5.891   3.526   6.093  0.1598  0.4272 -1.8154
 8517TIP3    H247043   6.033   3.507   6.043  0.9757  1.1043  0.1511
 8518TIP3   OH247044   6.818   3.903   4.666  0.0196  0.4234 -0.0106
 8518TIP3    H147045   6.892   3.964   4.668 -0.4322  0.9547  1.5381
 8518TIP3    H247046   6.817   3.863   4.753 -1.3110  0.1843 -0.1152
 8519TIP3   OH247047   5.454   4.838   0.858 -0.6211 -0.2163  0.3987
 8519TIP3    H147048   5.477   4.810   0.946 -0.6139  1.9945  1.1761
 8519TIP3    H247049   5.362   4.864   0.864 -0.5724  0.1196 -0.1867
 8520TIP3   OH247050   5.260   0.215   3.154 -0.7046  0.0742  0.6299
 8520TIP3    H147051   5.182   0.231   3.100 -1.3470 -0.6728  1.3011
 8520TIP3    H247052   5.253   0.123   3.178  0.8481 -0.2345  0.0148
 8521TIP3   OH247053   1.525   3.964   4.378 -0.2433 -0.3667 -0.1756
 8521TIP3    H147054   1.560   3.923   4.299 -2.5718 -0.7954 -1.0703
 8521TIP3    H247055   1.548   4.056   4.369  1.2637 -0.7339 -0.3226
 8522TIP3   OH247056   1.534   6.256  13.290 -0.0752 -0.4467 -0.3564
 8522TIP3    H147057   1.573   6.175  13.258  0.1945 -0.0496 -1.0703
 8522TIP3    H247058   1.581   6.325  13.243 -1.5470  0.0650 -1.1564
 8523TIP3   OH247059   2.100   5.492   2.704 -0.4792  0.1686 -0.5209
 8523TIP3    H147060   2.014   5.481   2.664 -1.0292 -1.2906  0.9606
 8523TIP3    H247061   2.082   5.537   2.787 -0.0653 -1.4908  0.5229
 8524TIP3   OH247062   3.456   1.655   2.563  0.1001 -0.3637 -0.1075
 8524TIP3    H147063   3.465   1.750   2.561 -2.1681 -0.0720  0.8842
 8524TIP3    H247064   3.362   1.639   2.561  0.4202 -2.6216 -0.6035
 8525TIP3   OH247065   1.042   0.340  17.078  0.2818 -0.1363 -0.2497
 8525TIP3    H147066   1.112   0.336  17.013  0.5916  0.9135  0.0178
 8525TIP3    H247067   1.083   0.378  17.155 -0.0759 -1.4035  0.5991
 8526TIP3   OH247068   6.283   4.599  12.937 -0.1278  0.0878  0.4408
 8526TIP3    H147069   6.344   4.542  12.986 -0.9324 -0.1302  1.2271
 8526TIP3    H247070   6.235   4.646  13.005  1.0489  2.3263 -0.1992
 8527TIP3   OH247071   5.438   4.976   3.219  0.3574 -0.3528 -0.1241
 8527TIP3    H147072   5.434   4.983   3.124  0.7317 -3.5707 -0.5062
 8527TIP3    H247073   5.353   5.006   3.250  0.1754  0.5808 -1.4645
 8528TIP3   OH247074   6.336   4.741  12.485 -0.2592  0.0386  0.6542
 8528TIP3    H147075   6.399   4.677  12.453  0.0938  1.3716 -1.5551
 8528TIP3    H247076   6.381   4.825  12.480 -1.8621  0.9097 -0.0501
 8529TIP3   OH247077   2.147   3.189   2.820  0.8433  0.1647 -0.2978
 8529TIP3    H147078   2.145   3.227   2.907  1.9071 -1.2351  0.3687
 8529TIP3    H247079   2.240   3.174   2.802  0.4871 -2.0587 -0.5257
 8530TIP3   OH247080   2.989   0.927  13.812 -0.4837 -0.0746  0.1176
 8530TIP3    H147081   3.065   0.973  13.847 -0.3213 -1.1877  1.3327
 8530TIP3    H247082   2.915   0.961  13.862 -0.4901 -0.4517  0.3695
 8531TIP3   OH247083   0.704   1.608  16.246  0.1792 -0.2538  0.2148
 8531TIP3    H147084   0.760   1.667  16.197 -0.6675  0.2170 -0.2194
 8531TIP3    H247085   0.633   1.663  16.278  0.3774 -0.6807  1.4353
 8532TIP3   OH247086   1.510   6.153  13.754  0.0847 -1.1774  0.2038
 8532TIP3    H147087   1.492   6.094  13.827  0.0612 -0.6769  0.6118
 8532TIP3    H247088   1.425   6.165  13.712  0.3519 -2.6548 -0.8429
 8533TIP3   OH247089   3.110   4.455  12.024 -0.0826  0.2949 -0.2304
 8533TIP3    H147090   3.143   4.414  11.944  0.0302  3.1916 -1.8016
 8533TIP3    H247091   3.188   4.468  12.078  0.1274  0.0143 -0.4602
 8534TIP3   OH247092   3.025   0.447   1.767 -0.2961 -0.6414 -0.3982
 8534TIP3    H147093   3.023   0.352   1.778  1.0113 -0.8221 -1.4876
 8534TIP3    H247094   3.084   0.478   1.836  1.1254 -0.8885 -1.4633
 8535TIP3   OH247095   5.483   0.140  16.967  0.2529  0.1392 -0.2614
 8535TIP3    H147096   5.569   0.168  16.998  0.5947 -1.1883  0.0247
 8535TIP3    H247097   5.435   0.222  16.954  1.0149  0.8428  1.1379
 8536TIP3   OH247098   0.247   5.890  11.490 -0.4100 -0.2206  0.2960
 8536TIP3    H147099   0.168   5.944  11.480 -0.1760 -0.1128 -1.2231
 8536TIP3    H247100   0.319   5.952  11.480 -0.1374 -0.7942 -1.5929
 8537TIP3   OH247101   4.427   3.732   0.361 -0.1693  0.0432  0.9380
 8537TIP3    H147102   4.376   3.651   0.370  0.3086 -0.2148  1.3828
 8537TIP3    H247103   4.366   3.795   0.322 -0.0904 -0.9722 -0.9364
 8538TIP3   OH247104   0.322   1.361  16.567  0.3639 -0.0482  0.2623
 8538TIP3    H147105   0.381   1.364  16.492  0.9533 -1.8528  0.5928
 8538TIP3    H247106   0.238   1.333  16.531  0.2832  0.4154  0.0902
 8539TIP3   OH247107   6.596   3.664   1.720  0.2953  0.0735  0.4404
 8539TIP3    H147108   6.508   3.690   1.745 -0.4700 -1.2247 -0.8051
 8539TIP3    H247109   6.643   3.656   1.804 -0.3605  2.0467  1.0399
 8540TIP3   OH247110   1.860   6.302  11.057  1.0898  0.2210 -0.2433
 8540TIP3    H147111   1.866   6.374  10.994  0.8759  0.6028  0.1597
 8540TIP3    H247112   1.784   6.251  11.029  1.1720  0.2189 -0.4630
 8541TIP3   OH247113   5.107   2.976  12.149 -0.4054 -0.0282 -0.2191
 8541TIP3    H147114   5.056   3.022  12.215 -0.2681  0.0651 -0.1790
 8541TIP3    H247115   5.068   2.888  12.146  0.6647 -0.6021  1.2161
 8542TIP3   OH247116   0.235   0.725   4.175  0.6716  0.3410  0.0540
 8542TIP3    H147117   0.232   0.634   4.147 -0.5052  0.4056 -0.0944
 8542TIP3    H247118   0.258   0.721   4.268  1.1574 -0.0708 -0.0794
 8543TIP3   OH247119   5.712   4.536  14.180 -0.8744 -0.4849 -0.2132
 8543TIP3    H147120   5.801   4.504  14.170 -1.1916 -1.0905 -1.2297
 8543TIP3    H247121   5.701   4.546  14.274  0.2450 -0.4437 -0.0696
 8544TIP3   OH247122   0.587   4.646  16.609  0.3183 -0.5872  0.6766
 8544TIP3    H147123   0.656   4.595  16.565 -0.7127 -1.8298  0.4306
 8544TIP3    H247124   0.603   4.736  16.582  1.3685 -0.9589 -0.0150
 8545TIP3   OH247125   1.583   5.224   5.305 -0.3868 -0.3838  0.1072
 8545TIP3    H147126   1.628   5.268   5.233  1.0469  0.0533  1.2065
 8545TIP3    H247127   1.510   5.282   5.327  0.2434  0.4034  0.1645
 8546TIP3   OH247128   3.483   4.013  10.634  0.3849  0.2539  0.0164
 8546TIP3    H147129   3.566   4.044  10.670 -0.2073  3.6547 -1.2365
 8546TIP3    H247130   3.416   4.060  10.683 -0.5550  1.6810 -2.4327
 8547TIP3   OH247131   3.393   5.423   5.272  0.0827  0.9217 -0.0409
 8547TIP3    H147132   3.488   5.406   5.272  0.0082  0.1713 -2.4614
 8547TIP3    H247133   3.381   5.494   5.209 -0.8538  2.0932  1.3897
 8548TIP3   OH247134   5.345   5.263   2.717 -0.1061  0.1626  0.6793
 8548TIP3    H147135   5.333   5.222   2.631 -0.4880  1.2871  0.1879
 8548TIP3    H247136   5.426   5.314   2.708 -0.2393  0.4212  0.9325
 8549TIP3   OH247137   1.925   4.691  11.884 -0.3735  0.3305  0.1332
 8549TIP3    H147138   1.858   4.724  11.825 -0.7886 -0.2309  0.2754
 8549TIP3    H247139   1.884   4.694  11.971 -0.4433 -0.5676  0.1458
 8550TIP3   OH247140   6.748   0.508   3.499  0.3096 -0.2824  0.4677
 8550TIP3    H147141   6.806   0.584   3.494  2.8061 -2.1320 -0.8434
 8550TIP3    H247142   6.721   0.505   3.591  2.4862  0.5640  1.1996
 8551TIP3   OH247143   2.056   6.497   5.142  0.1408 -0.1450 -0.2558
 8551TIP3    H147144   2.006   6.546   5.076  0.1704  1.2104  0.6699
 8551TIP3    H247145   2.144   6.490   5.105  0.6713  2.2746  0.3672
 8552TIP3   OH247146   4.141   2.982   3.292  0.1754 -0.2209 -0.1303
 8552TIP3    H147147   4.072   2.944   3.346 -0.3628  1.7911  0.7163
 8552TIP3    H247148   4.108   3.069   3.269  1.2874 -0.2350 -2.0115
 8553TIP3   OH247149   2.296   2.278  13.994 -0.0594  0.0718 -0.3399
 8553TIP3    H147150   2.208   2.282  13.958  0.0492 -2.1444 -0.9997
 8553TIP3    H247151   2.344   2.349  13.949 -0.2421 -1.7994 -3.8167
 8554TIP3   OH247152   3.088   4.204   0.338 -0.2993  0.6690 -0.1808
 8554TIP3    H147153   3.016   4.216   0.400 -0.7628  0.6093 -0.6930
 8554TIP3    H247154   3.089   4.109   0.321  1.2958  0.3483  1.4511
 8555TIP3   OH247155   2.923   5.694   0.137 -0.0870  0.1092 -0.6851
 8555TIP3    H147156   2.938   5.787   0.118 -2.7697  0.6652 -0.4484
 8555TIP3    H247157   2.829   5.688   0.156 -0.0125 -2.6823 -0.7903
 8556TIP3   OH247158   5.933   4.928  11.527  0.0639  0.5934 -0.3611
 8556TIP3    H147159   5.978   4.920  11.610  0.5127  0.9455 -0.5605
 8556TIP3    H247160   5.894   5.016  11.529 -0.6701  0.2670 -0.1636
 8557TIP3   OH247161   2.096   1.002  16.151 -0.1855 -0.1029  0.6986
 8557TIP3    H147162   2.136   0.918  16.171  1.4846  0.5070  0.0886
 8557TIP3    H247163   2.055   0.990  16.066  2.3802  0.3657 -0.7161
 8558TIP3   OH247164   5.389   5.940   0.739 -0.4469  0.4047 -0.2710
 8558TIP3    H147165   5.356   5.991   0.812  0.8868  0.6870  0.1624
 8558TIP3    H247166   5.453   5.880   0.778 -0.8956 -0.5772 -0.9809
 8559TIP3   OH247167   6.529   1.692   3.876 -0.5350  0.2256 -0.0003
 8559TIP3    H147168   6.615   1.690   3.919 -0.2315 -2.5578 -0.5502
 8559TIP3    H247169   6.467   1.668   3.945 -0.7401  1.0658  0.1161
 8560TIP3   OH247170   5.426   0.898   3.054  0.4609  0.0248 -0.1219
 8560TIP3    H147171   5.340   0.933   3.075  0.7033  1.3139 -1.1426
 8560TIP3    H247172   5.412   0.804   3.044 -0.4682 -0.0337  1.4368
 8561TIP3   OH247173   0.334   5.473  16.834 -0.1793 -0.0342  0.0180
 8561TIP3    H147174   0.366   5.441  16.750  1.0471  0.9199  0.1000
 8561TIP3    H247175   0.253   5.424  16.849 -0.2714 -0.4159 -1.5791
 8562TIP3   OH247176   1.688   4.151   6.501 -0.6598  0.4160  0.0568
 8562TIP3    H147177   1.737   4.077   6.538 -2.3208  0.2819  2.1738
 8562TIP3    H247178   1.634   4.113   6.432  0.0675  0.0661 -0.3282
 8563TIP3   OH247179   2.959   5.701  13.160  0.6614  0.0317 -0.2046
 8563TIP3    H147180   2.991   5.650  13.085  0.2286  0.5006 -0.7186
 8563TIP3    H247181   2.912   5.638  13.213 -1.2739  0.1591 -1.6597
 8564TIP3   OH247182   3.349   2.206  14.188 -0.3416  0.1025  0.0894
 8564TIP3    H147183   3.391   2.273  14.242  1.2617 -0.1826 -0.7377
 8564TIP3    H247184   3.363   2.125  14.236 -1.4994  0.2195  0.6532
 8565TIP3   OH247185   0.158   1.104  16.438 -0.1229 -0.6413 -0.3315
 8565TIP3    H147186   0.170   1.016  16.403  0.5441 -0.8532  0.4252
 8565TIP3    H247187   0.158   1.160  16.360 -2.6362 -1.4734 -1.0401
 8566TIP3   OH247188   4.447   2.198  14.640 -0.1110 -0.3590 -0.3306
 8566TIP3    H147189   4.464   2.250  14.719  0.7556 -0.1941 -0.6158
 8566TIP3    H247190   4.402   2.258  14.581  0.4130 -0.0871 -0.4563
 8567TIP3   OH247191   3.055   0.738   3.382 -0.2040 -0.6971  0.5820
 8567TIP3    H147192   3.072   0.763   3.473  1.0682 -1.9429  0.7143
 8567TIP3    H247193   3.030   0.646   3.386 -0.3752 -0.6966 -0.3140
 8568TIP3   OH247194   0.867   1.350   0.141 -0.2777 -0.3671  0.1434
 8568TIP3    H147195   0.873   1.390   0.054  0.6844 -0.2118  0.2712
 8568TIP3    H247196   0.808   1.276   0.129 -0.2488 -0.2781 -0.6207
 8569TIP3   OH247197   2.553   6.543   0.759  0.1423 -0.0613 -0.3750
 8569TIP3    H147198   2.604   6.598   0.700 -1.7727  3.2215  0.7775
 8569TIP3    H247199   2.462   6.561   0.736 -0.6017 -1.1681  1.4609
 8570TIP3   OH247200   5.989   2.657  13.377  0.0353 -0.5323 -0.0580
 8570TIP3    H147201   6.018   2.595  13.444  3.1974  1.2462  0.4468
 8570TIP3    H247202   5.999   2.611  13.294 -0.0695 -1.4882  0.4532
 8571TIP3   OH247203   5.771   4.459  14.915 -0.9358 -0.3882  0.5268
 8571TIP3    H147204   5.822   4.383  14.943  1.2209  0.2909 -1.1821
 8571TIP3    H247205   5.812   4.533  14.961 -0.4004  0.1465 -0.7322
 8572TIP3   OH247206   2.652   5.024  16.897 -0.6286 -0.2439  0.3048
 8572TIP3    H147207   2.695   5.107  16.917  0.6442 -0.9389  0.6074
 8572TIP3    H247208   2.648   5.021  16.802  1.2841 -0.7291  0.1852
 8573TIP3   OH247209   5.764   5.504  14.166  0.6964  0.1210 -0.1094
 8573TIP3    H147210   5.756   5.587  14.118  1.4079 -1.1049 -2.4881
 8573TIP3    H247211   5.855   5.503  14.195  0.9912 -0.2601 -1.0023
 8574TIP3   OH247212   4.793   5.748   4.326  0.5728  0.9377 -0.3880
 8574TIP3    H147213   4.730   5.677   4.343  1.1439  0.8895  1.8869
 8574TIP3    H247214   4.876   5.702   4.309  1.1506  0.9920  1.9919
 8575TIP3   OH247215   5.284   2.903   2.937 -0.0058  0.2394 -0.1701
 8575TIP3    H147216   5.273   2.989   2.978 -1.8101 -0.6278  1.3376
 8575TIP3    H247217   5.273   2.841   3.009 -0.8678 -1.3115 -1.5698
 8576TIP3   OH247218   0.836   4.252  15.332  1.0612 -0.7104 -0.3977
 8576TIP3    H147219   0.849   4.338  15.372 -0.1983 -1.0696  0.8985
 8576TIP3    H247220   0.924   4.217  15.319  1.5629  0.3996 -0.1032
 8577TIP3   OH247221   1.953   0.445   2.605  0.1683 -0.5438  0.5254
 8577TIP3    H147222   1.861   0.471   2.604  0.0515 -0.8888  1.4902
 8577TIP3    H247223   2.001   0.526   2.623  0.0697 -0.3447 -0.0854
 8578TIP3   OH247224   2.060   2.544  13.781 -0.0286  0.1620 -0.5880
 8578TIP3    H147225   1.990   2.595  13.822 -0.5670 -1.2090  0.2879
 8578TIP3    H247226   2.050   2.559  13.687 -0.2527  1.5192 -0.3671
 8579TIP3   OH247227   4.188   3.727   3.233  0.5739 -0.1764  0.4482
 8579TIP3    H147228   4.272   3.703   3.192  0.2449  1.7982 -1.5889
 8579TIP3    H247229   4.137   3.765   3.162 -1.6182 -0.1884  1.9237
 8580TIP3   OH247230   6.199   5.213  11.515  0.0223 -0.7130  0.3825
 8580TIP3    H147231   6.168   5.289  11.465  0.8607 -1.1481 -0.8448
 8580TIP3    H247232   6.222   5.249  11.600  0.8832  0.5200 -0.3366
 8581TIP3   OH247233   6.142   5.425   4.619  0.2008 -0.1694  0.1548
 8581TIP3    H147234   6.114   5.456   4.705  1.3332 -0.0666  0.5034
 8581TIP3    H247235   6.072   5.367   4.590 -1.0821  1.2428  0.3175
 8582TIP3   OH247236   3.918   3.028  11.808 -0.5309 -0.1453 -0.3279
 8582TIP3    H147237   3.869   2.952  11.776 -0.4996  0.7128 -2.6063
 8582TIP3    H247238   3.951   3.071  11.729 -0.3526  2.1163  0.8705
 8583TIP3   OH247239   5.208   5.030  11.985  0.0052 -0.2141  0.2620
 8583TIP3    H147240   5.187   5.021  11.892  1.5632  0.4797 -0.1866
 8583TIP3    H247241   5.290   4.983  11.996 -0.1243 -0.2328  1.2975
 8584TIP3   OH247242   5.331   1.044   3.380  0.8535  0.8881  0.0646
 8584TIP3    H147243   5.362   1.090   3.302  1.9100  0.0005 -0.0632
 8584TIP3    H247244   5.266   0.982   3.346  0.4195  1.3338  0.0636
 8585TIP3   OH247245   0.404   6.570  16.758  0.0850 -0.4342  0.1742
 8585TIP3    H147246   0.489   6.577  16.800  0.5261 -0.4833 -0.6932
 8585TIP3    H247247   0.341   6.576  16.830  0.7987  0.2130  0.7529
 8586TIP3   OH247248   4.891   5.960  15.831  0.7263  0.8380 -0.8723
 8586TIP3    H147249   4.963   5.925  15.884  0.4307  1.4281 -0.0677
 8586TIP3    H247250   4.825   5.891  15.834  1.2055  0.3248 -1.5524
 8587TIP3   OH247251   6.105   1.856   1.248  0.2739 -0.8226 -0.5144
 8587TIP3    H147252   6.103   1.837   1.154 -0.5045 -1.6739 -0.3368
 8587TIP3    H247253   6.081   1.774   1.290 -1.0526 -0.0217  0.3694
 8588TIP3   OH247254   3.540   0.431  16.700 -0.0089 -0.0278  0.4906
 8588TIP3    H147255   3.520   0.340  16.679 -0.0540  0.0234  0.3093
 8588TIP3    H247256   3.592   0.462  16.625 -2.3012  0.9249 -0.8260
 8589TIP3   OH247257   0.060   5.755   2.530 -0.1085  0.1344 -0.1446
 8589TIP3    H147258   0.041   5.830   2.587 -0.8261 -0.3222  0.2233
 8589TIP3    H247259   0.151   5.768   2.503 -0.3515  1.3681 -0.4261
 8590TIP3   OH247260   1.945   1.961   2.552 -0.0933 -0.2130  0.0024
 8590TIP3    H147261   1.972   1.915   2.472  1.6471 -1.0844  1.0201
 8590TIP3    H247262   2.017   1.945   2.614 -1.4883  0.2342  1.8285
 8591TIP3   OH247263   2.507   4.955   2.769  0.1602  0.2062 -0.1914
 8591TIP3    H147264   2.448   5.030   2.757  0.1494  0.2167 -0.0657
 8591TIP3    H247265   2.476   4.911   2.848  0.0450 -0.0469 -0.3766
 8592TIP3   OH247266   3.629   1.678  13.119  0.5866 -0.5840 -0.0859
 8592TIP3    H147267   3.596   1.714  13.037  2.0449  0.9773 -0.0488
 8592TIP3    H247268   3.565   1.704  13.185  1.0887  1.0927 -0.2291
 8593TIP3   OH247269   1.071   5.514  14.130  0.6238  0.0050 -0.1569
 8593TIP3    H147270   1.016   5.531  14.054  2.5277  2.7469 -1.0422
 8593TIP3    H247271   1.072   5.418  14.137 -4.0885 -0.2936 -0.0665
 8594TIP3   OH247272   2.024   2.294   1.752 -0.3957 -0.2107 -0.1488
 8594TIP3    H147273   2.061   2.214   1.715 -0.8176 -1.2127  1.5023
 8594TIP3    H247274   1.931   2.290   1.730 -1.0864 -1.8433  2.5272
 8595TIP3   OH247275   6.132   4.476  15.637 -0.1005  0.6745 -0.0988
 8595TIP3    H147276   6.046   4.495  15.601 -0.5253  0.0866  0.5735
 8595TIP3    H247277   6.170   4.413  15.576  0.4023  1.9208 -1.1071
 8596TIP3   OH247278   5.035   1.096   3.401  0.1421  0.3219 -0.0763
 8596TIP3    H147279   5.108   1.157   3.408  0.5653 -0.1951  0.0387
 8596TIP3    H247280   5.008   1.102   3.309 -0.6040  1.5627  0.1908
 8597TIP3   OH247281   5.289   5.145   4.879 -0.4962  0.1084 -0.3804
 8597TIP3    H147282   5.294   5.190   4.795 -1.2926 -0.0599 -0.5267
 8597TIP3    H247283   5.251   5.060   4.858  1.0412 -0.6893 -0.1265
 8598TIP3   OH247284   4.087   1.641  14.196  0.0118  0.5910 -0.3681
 8598TIP3    H147285   4.123   1.553  14.202  1.2654  1.1285  0.3079
 8598TIP3    H247286   4.146   1.687  14.136  0.1586  1.3311  0.3261
 8599TIP3   OH247287   0.795   3.648   0.354  0.1534 -0.4639 -0.6498
 8599TIP3    H147288   0.796   3.661   0.259 -0.9930 -1.3028 -0.7984
 8599TIP3    H247289   0.836   3.728   0.389  0.3728 -0.0326 -1.8244
 8600TIP3   OH247290   5.489   5.737  10.429 -0.3606  0.1705 -0.2572
 8600TIP3    H147291   5.581   5.737  10.404 -0.3832  1.8358 -0.4586
 8600TIP3    H247292   5.486   5.790  10.509 -0.9844 -0.9634  0.5010
 8601TIP3   OH247293   1.177   2.710   2.069  0.1958  0.7779 -0.3779
 8601TIP3    H147294   1.202   2.675   1.984  2.5098  0.5550  0.3246
 8601TIP3    H247295   1.194   2.639   2.131 -1.6472  0.8639  0.2894
 8602TIP3   OH247296   5.043   0.114   4.167  0.2227  0.3884 -0.1454
 8602TIP3    H147297   5.011   0.069   4.246 -1.0665 -0.1253 -0.9256
 8602TIP3    H247298   5.110   0.174   4.199  2.4598 -2.4214  0.9369
 8603TIP3   OH247299   0.023   1.383   1.142 -0.0584 -0.0711 -0.0538
 8603TIP3    H147300   0.055   1.472   1.129 -0.4262 -0.1351 -1.6762
 8603TIP3    H247301   0.054   1.336   1.064 -1.5776 -0.8515 -0.2238
 8604TIP3   OH247302   5.928   4.143   2.627 -0.4116 -0.1317 -0.0250
 8604TIP3    H147303   5.960   4.226   2.591 -0.0840 -0.5407 -0.6917
 8604TIP3    H247304   6.006   4.087   2.628 -0.6500 -0.4522  0.3581
 8605TIP3   OH247305   4.546   5.548  10.969  0.0818  0.3106 -0.0015
 8605TIP3    H147306   4.494   5.595  10.904 -0.7478 -0.7731 -0.1685
 8605TIP3    H247307   4.549   5.458  10.936 -0.4985 -0.3054  1.5310
 8606TIP3   OH247308   5.238   4.509  14.576  0.4433 -0.2264 -0.0254
 8606TIP3    H147309   5.180   4.433  14.568  0.4860 -0.1220 -1.9330
 8606TIP3    H247310   5.272   4.504  14.665 -0.0173 -2.1108  0.1025
 8607TIP3   OH247311   1.135   1.677   0.285 -0.0695 -0.1563  0.6122
 8607TIP3    H147312   1.158   1.763   0.252  1.5440 -0.3346  1.1666
 8607TIP3    H247313   1.122   1.623   0.207  0.9455  0.1029  0.2501
 8608TIP3   OH247314   5.337   5.097   2.486 -0.3988  0.4153  0.1799
 8608TIP3    H147315   5.350   5.006   2.511  0.8308  0.2733 -0.8694
 8608TIP3    H247316   5.376   5.104   2.399  0.9636  2.2925  0.8770
 8609TIP3   OH247317   6.533   5.183  12.348  0.3144  0.6764 -0.4893
 8609TIP3    H147318   6.629   5.179  12.342  0.4545  1.0950  1.0444
 8609TIP3    H247319   6.502   5.116  12.287  1.5145  1.8229 -2.4734
 8610TIP3   OH247320   1.313   4.420   5.987  0.4285 -0.0612  0.8469
 8610TIP3    H147321   1.336   4.421   5.894 -2.8366  1.1909 -0.0929
 8610TIP3    H247322   1.342   4.505   6.020  0.7177 -0.1186  0.7447
 8611TIP3   OH247323   6.377   1.054  15.542  0.2896 -0.1981 -0.3155
 8611TIP3    H147324   6.446   0.997  15.575  0.1619  0.2868  0.8630
 8611TIP3    H247325   6.312   1.057  15.613 -0.4711  0.1339 -1.0040
 8612TIP3   OH247326   6.094   1.153  13.251 -0.0785  0.5890  0.2512
 8612TIP3    H147327   6.159   1.089  13.224 -0.9941  0.2392 -1.2615
 8612TIP3    H247328   6.114   1.171  13.343  1.9559  0.2898 -0.0905
 8613TIP3   OH247329   6.743   6.162   1.976  0.1332  0.0989 -0.5931
 8613TIP3    H147330   6.817   6.173   1.917 -0.4351 -0.5717 -1.4490
 8613TIP3    H247331   6.782   6.165   2.064  0.9926  1.0261 -0.9806
 8614TIP3   OH247332   0.421   4.432   2.113  0.2383  0.2428  0.4138
 8614TIP3    H147333   0.374   4.416   2.031  1.6844  1.1803 -0.6482
 8614TIP3    H247334   0.468   4.351   2.130  1.5894  0.7203 -0.8597
 8615TIP3   OH247335   1.144   6.100   5.913  0.4322  1.0350 -0.0526
 8615TIP3    H147336   1.175   6.122   5.825 -1.4671  2.0575 -0.5288
 8615TIP3    H247337   1.216   6.124   5.970  0.8081  2.7379 -1.1520
 8616TIP3   OH247338   2.897   5.574   2.252  0.3129 -0.5771  0.2569
 8616TIP3    H147339   2.939   5.524   2.322  0.8509 -1.5801 -0.7540
 8616TIP3    H247340   2.891   5.513   2.179  0.9586  0.8222 -1.0199
 8617TIP3   OH247341   0.692   6.015   5.187  0.3973 -0.2244 -0.0687
 8617TIP3    H147342   0.754   6.034   5.116  1.2108  2.9657  1.3058
 8617TIP3    H247343   0.606   6.030   5.149  0.8050  0.9809 -0.5756
 8618TIP3   OH247344   0.939   3.189  12.070 -0.1570 -0.0480 -0.0939
 8618TIP3    H147345   0.955   3.279  12.042 -1.3640  0.6727  1.3706
 8618TIP3    H247346   1.027   3.150  12.078  0.4796  1.4477  0.6167
 8619TIP3   OH247347   4.095   0.276  14.657 -0.0174  0.1591  0.3971
 8619TIP3    H147348   4.184   0.264  14.622 -0.1963 -0.1965  0.0602
 8619TIP3    H247349   4.055   0.189  14.649 -1.0949  0.7687 -1.4027
 8620TIP3   OH247350   6.800   3.033   3.522 -0.2073  0.1537  0.1468
 8620TIP3    H147351   6.713   2.994   3.528  0.3346 -1.0406  0.4341
 8620TIP3    H247352   6.845   2.982   3.455 -0.6295  2.6112 -2.2067
 8621TIP3   OH247353   0.385   2.746  16.292 -0.5500  0.3837 -0.4559
 8621TIP3    H147354   0.381   2.728  16.386 -0.4477 -1.2025 -0.7257
 8621TIP3    H247355   0.474   2.780  16.278  0.1044 -1.1355 -0.2246
 8622TIP3   OH247356   4.056   3.426   4.090 -0.3183  0.5551  0.4216
 8622TIP3    H147357   4.056   3.333   4.068 -0.2507  1.1358 -2.5296
 8622TIP3    H247358   3.964   3.448   4.103 -0.4537  0.2820 -0.0426
 8623TIP3   OH247359   1.109   1.371   0.258  0.2722 -0.6896 -0.1990
 8623TIP3    H147360   1.077   1.400   0.343  1.7567 -1.1489  0.5536
 8623TIP3    H247361   1.031   1.363   0.204 -0.7474 -0.7845  1.2361
 8624TIP3   OH247362   2.875   4.187   5.698  0.0281 -0.1166  0.2445
 8624TIP3    H147363   2.811   4.217   5.635  0.3438  0.3017  0.1192
 8624TIP3    H247364   2.867   4.247   5.772  0.2009 -0.1236  0.2708
 8625TIP3   OH247365   3.613   3.928  16.657  0.4522 -0.0129 -0.3151
 8625TIP3    H147366   3.567   3.845  16.644  0.7211 -0.0591 -1.0065
 8625TIP3    H247367   3.544   3.989  16.685 -0.0231 -0.1088 -1.2292
 8626TIP3   OH247368   0.447   0.643  11.800  0.3541 -0.0548 -0.1029
 8626TIP3    H147369   0.476   0.712  11.741  0.5136 -0.1288 -0.1122
 8626TIP3    H247370   0.361   0.672  11.832  0.6639  0.4086  0.3253
 8627TIP3   OH247371   0.805   3.445  12.857 -0.4722 -0.0158 -0.0810
 8627TIP3    H147372   0.727   3.390  12.848  1.9280 -3.4155 -2.2438
 8627TIP3    H247373   0.870   3.387  12.897  1.8360  1.6984 -1.2002
 8628TIP3   OH247374   0.383   1.596   1.644 -0.0022  0.2354  0.4217
 8628TIP3    H147375   0.425   1.625   1.725  2.0262 -0.8243 -0.1791
 8628TIP3    H247376   0.411   1.505   1.634 -3.0925 -0.8102  0.2980
 8629TIP3   OH247377   6.736   6.694  12.378 -0.2253 -0.1222 -0.3766
 8629TIP3    H147378   6.753   6.744  12.298 -0.9182 -1.1750 -1.2020
 8629TIP3    H247379   6.648   6.660  12.366  0.2281 -1.5416  0.1623
 8630TIP3   OH247380   1.933   1.639   5.718  0.3055  0.1761  0.0304
 8630TIP3    H147381   1.947   1.547   5.695 -0.5637 -0.2312  1.0469
 8630TIP3    H247382   1.942   1.686   5.635  0.1557 -0.8954 -0.6151
 8631TIP3   OH247383   2.979   4.182  17.209  0.4896  0.1560 -0.0272
 8631TIP3    H147384   2.939   4.183  17.296 -0.1708 -0.0424 -0.3198
 8631TIP3    H247385   3.014   4.270  17.198  0.6599  0.1571  0.4781
 8632TIP3   OH247386   2.066   2.855   2.398  0.2148  0.3043 -0.5602
 8632TIP3    H147387   1.982   2.851   2.352 -0.1995 -0.0483  0.1937
 8632TIP3    H247388   2.097   2.944   2.385 -0.1451  0.3539 -1.0865
 8633TIP3   OH247389   0.212   1.875   2.001 -0.0919  0.1880 -0.0675
 8633TIP3    H147390   0.128   1.885   2.046 -0.0825  2.6319 -0.4446
 8633TIP3    H247391   0.202   1.923   1.919  1.1835 -0.7914 -0.8377
 8634TIP3   OH247392   5.802   1.979  10.779  0.4252 -0.2243 -0.3924
 8634TIP3    H147393   5.737   1.972  10.849 -0.2031  1.1193 -0.8145
 8634TIP3    H247394   5.764   2.040  10.716  2.2831  0.9775 -0.4305
 8635TIP3   OH247395   0.246   3.753   4.198 -0.2194 -0.3586 -0.2332
 8635TIP3    H147396   0.198   3.735   4.279 -1.7352  2.8984 -0.2598
 8635TIP3    H247397   0.313   3.817   4.224  0.3080 -0.4714 -1.2724
 8636TIP3   OH247398   4.324   5.460  12.626  0.3038  0.5920  0.1848
 8636TIP3    H147399   4.408   5.484  12.587 -0.1039 -1.0195 -1.8648
 8636TIP3    H247400   4.330   5.365  12.639 -1.2734  0.4008 -0.2843
 8637TIP3   OH247401   2.908   5.393   0.185  0.1456  0.8153 -0.3600
 8637TIP3    H147402   2.877   5.483   0.199 -0.8707  0.3880  0.2685
 8637TIP3    H247403   2.979   5.382   0.248 -0.9856  0.5902  0.9229
 8638TIP3   OH247404   4.566   3.377  13.336 -0.0355 -0.2253 -0.8728
 8638TIP3    H147405   4.512   3.298  13.338 -0.2743 -0.1077 -1.9216
 8638TIP3    H247406   4.630   3.360  13.268 -1.2241  1.1759 -2.4321
 8639TIP3   OH247407   0.360   3.958   1.920  0.3381 -0.1306 -0.2049
 8639TIP3    H147408   0.312   4.001   1.849 -0.3743 -1.9504 -0.8712
 8639TIP3    H247409   0.452   3.977   1.901  0.1927 -0.9202 -1.8804
 8640TIP3   OH247410   1.985   2.710  11.698 -0.0078  0.6707  0.6945
 8640TIP3    H147411   2.016   2.725  11.608 -0.8802 -0.8902  0.1009
 8640TIP3    H247412   2.065   2.695  11.748  0.4055 -0.3147 -0.2168
 8641TIP3   OH247413   6.488   3.874  15.592  0.2370  0.4782  0.4162
 8641TIP3    H147414   6.393   3.880  15.589  0.1359 -0.7497  0.4817
 8641TIP3    H247415   6.517   3.892  15.503 -0.1453 -0.2173  0.1432
 8642TIP3   OH247416   6.545   5.255  12.838  0.5936 -0.0184 -0.3016
 8642TIP3    H147417   6.590   5.171  12.832  1.0991  0.0996  1.2699
 8642TIP3    H247418   6.540   5.273  12.932  0.2748  1.5849 -0.5870
 8643TIP3   OH247419   3.972   2.677  10.465  0.1321  0.5550  0.2697
 8643TIP3    H147420   4.028   2.689  10.542 -0.4618  0.6405  0.7009
 8643TIP3    H247421   3.885   2.658  10.502  0.0812 -0.5654 -0.3807
 8644TIP3   OH247422   6.006   2.910  16.601 -0.5520  0.1684  0.1852
 8644TIP3    H147423   6.014   2.816  16.581  1.8680  0.1849  0.7434
 8644TIP3    H247424   5.944   2.914  16.673 -0.2672 -1.0641  0.5275
 8645TIP3   OH247425   3.887   5.909  12.187  0.9189 -1.0258 -0.2333
 8645TIP3    H147426   3.824   5.976  12.215  0.7651 -2.2163  2.5171
 8645TIP3    H247427   3.966   5.959  12.164 -0.5042  0.3786 -2.4857
 8646TIP3   OH247428   2.447   5.543  14.926 -0.2701 -0.1445 -0.4691
 8646TIP3    H147429   2.369   5.598  14.935 -0.1200  0.0185 -0.1544
 8646TIP3    H247430   2.453   5.525  14.832 -1.5240 -1.3883 -0.3457
 8647TIP3   OH247431   5.249   0.956  16.233  0.0346 -0.1641  0.2969
 8647TIP3    H147432   5.281   1.008  16.306 -0.2212  1.3576 -0.6255
 8647TIP3    H247433   5.327   0.909  16.202  1.6051  3.4355 -1.8739
 8648TIP3   OH247434   1.486   4.349  14.919 -0.3912  0.2503 -0.3299
 8648TIP3    H147435   1.514   4.435  14.888 -1.6439  0.7534 -0.0954
 8648TIP3    H247436   1.561   4.292  14.902 -0.1079  1.0568 -1.9037
 8649TIP3   OH247437   6.755   5.938  12.816  0.2400 -0.1936  0.1426
 8649TIP3    H147438   6.780   5.911  12.905 -2.3612 -1.4706  0.5842
 8649TIP3    H247439   6.762   5.857  12.764  0.0734  0.1363 -0.3991
 8650TIP3   OH247440   2.035   3.586   0.219 -0.1604 -0.0320 -0.1088
 8650TIP3    H147441   2.006   3.578   0.128  0.0519  0.8926 -0.2649
 8650TIP3    H247442   2.062   3.677   0.228  1.6427 -0.5713  0.3365
 8651TIP3   OH247443   2.307   1.589   3.127  0.1908 -0.2055 -0.4520
 8651TIP3    H147444   2.377   1.653   3.136  0.2972 -0.2317 -1.0414
 8651TIP3    H247445   2.267   1.609   3.042  0.7120 -1.3805 -0.9997
 8652TIP3   OH247446   1.919   6.461  12.975  0.3063  0.3261 -0.5552
 8652TIP3    H147447   1.953   6.372  12.971  1.6610  0.7643  0.3509
 8652TIP3    H247448   1.992   6.516  12.946  0.2036  1.2574  0.8333
 8653TIP3   OH247449   1.654   0.314  11.455  1.2587 -0.0417 -0.3101
 8653TIP3    H147450   1.587   0.289  11.519  1.0676  2.9795  0.8674
 8653TIP3    H247451   1.718   0.244  11.459 -0.4624 -1.6544  0.6101
 8654TIP3   OH247452   6.815   1.385  11.958 -0.6332 -0.5486  0.1429
 8654TIP3    H147453   6.739   1.423  11.913 -0.0915 -1.2493 -1.4380
 8654TIP3    H247454   6.816   1.428  12.044 -2.4192 -0.0451 -0.0482
 8655TIP3   OH247455   3.446   6.032  12.991 -0.0565 -0.5785  1.1057
 8655TIP3    H147456   3.521   6.071  12.948  0.8216 -0.6755  2.4741
 8655TIP3    H247457   3.381   6.102  12.996 -0.4387 -0.7448 -0.8746
 8656TIP3   OH247458   2.685   0.499   1.095  0.6492  0.2673  0.1949
 8656TIP3    H147459   2.756   0.528   1.152  0.0060  1.9396  0.1982
 8656TIP3    H247460   2.627   0.574   1.089 -0.7400 -0.8134 -0.4271
 8657TIP3   OH247461   1.041   3.514  12.432  0.7315  0.1401  0.0177
 8657TIP3    H147462   1.022   3.607  12.424  0.1931  0.3919  2.8993
 8657TIP3    H247463   0.955   3.472  12.433  0.9759 -0.4632 -1.4905
 8658TIP3   OH247464   5.527   1.704   5.049  0.5302  0.0246  0.0690
 8658TIP3    H147465   5.532   1.791   5.089 -2.7970 -0.2324  1.4101
 8658TIP3    H247466   5.489   1.720   4.962  2.2909  0.0500 -0.7460
 8659TIP3   OH247467   5.320   1.013  12.371 -0.5940  0.2644  0.3689
 8659TIP3    H147468   5.324   1.109  12.375 -2.6580  0.3603  1.2076
 8659TIP3    H247469   5.253   0.995  12.306 -1.3868 -0.5727  1.3933
 8660TIP3   OH247470   0.020   2.672   1.197  0.3924  0.1474  0.1138
 8660TIP3    H147471  -0.001   2.666   1.290 -1.5498 -0.5442 -0.3055
 8660TIP3    H247472   0.056   2.760   1.186 -0.4438  0.6783  1.3514
 8661TIP3   OH247473   3.353   1.111  12.639 -0.4092 -0.6850  0.1226
 8661TIP3    H147474   3.357   1.123  12.544  1.4049  1.3662  0.3914
 8661TIP3    H247475   3.441   1.084  12.664 -0.7596 -0.8226  1.2791
 8662TIP3   OH247476   6.227   4.295  14.938  0.6693  0.4357 -0.4476
 8662TIP3    H147477   6.268   4.372  14.900 -1.3579  1.8426  0.0703
 8662TIP3    H247478   6.133   4.306  14.920  0.0893 -0.8136  1.4847
 8663TIP3   OH247479   3.950   4.456   1.429 -0.1128 -0.3843 -0.0466
 8663TIP3    H147480   3.911   4.540   1.404 -1.8628 -0.9252  0.7171
 8663TIP3    H247481   4.016   4.440   1.362 -0.6096  1.0091 -0.9258
 8664TIP3   OH247482   2.363   3.326  15.015 -0.1008  0.5944  0.0805
 8664TIP3    H147483   2.418   3.339  14.937 -0.4584  0.8357 -0.1372
 8664TIP3    H247484   2.339   3.415  15.041 -0.8639  0.4656 -0.1738
 8665TIP3   OH247485   0.068   6.252  11.976  0.0179 -0.3172 -0.7723
 8665TIP3    H147486   0.008   6.178  11.970 -1.5329  0.7244  1.0640
 8665TIP3    H247487   0.122   6.233  12.053 -0.4815  0.4943 -0.2078
 8666TIP3   OH247488   6.064   6.000   1.367 -0.1185  0.5137  0.3627
 8666TIP3    H147489   6.103   5.995   1.454  1.9881  0.1674 -0.5353
 8666TIP3    H247490   6.024   5.914   1.354 -1.6014  0.9949  1.4379
 8667TIP3   OH247491   5.718   4.875   2.644  0.1351 -0.2664  0.4407
 8667TIP3    H147492   5.683   4.810   2.583  0.9254 -1.9726  1.7341
 8667TIP3    H247493   5.656   4.874   2.718 -0.5420  1.4187 -0.0436
 8668TIP3   OH247494   3.782   5.187   6.531 -0.3580  0.0386 -0.2894
 8668TIP3    H147495   3.712   5.126   6.556 -0.0032 -0.4188 -0.3971
 8668TIP3    H247496   3.753   5.272   6.564 -1.0704 -0.1081 -0.5340
 8669TIP3   OH247497   5.968   4.307   4.480  0.4999 -0.0392 -0.2343
 8669TIP3    H147498   6.060   4.292   4.503  0.9552  1.3167 -1.0457
 8669TIP3    H247499   5.926   4.327   4.564  0.1772 -3.7455  0.6714
 8670TIP3   OH247500   4.585   0.219   6.230  0.3496  0.3802 -0.3560
 8670TIP3    H147501   4.507   0.170   6.258  1.4806  0.1430  2.8003
 8670TIP3    H247502   4.575   0.304   6.271  1.7740  0.3226  0.1398
 8671TIP3   OH247503   0.737   1.356   2.063 -0.3566 -0.0089 -0.3489
 8671TIP3    H147504   0.762   1.265   2.049  0.8235  0.0315  1.2935
 8671TIP3    H247505   0.756   1.399   1.979 -0.9275 -1.2312 -1.1435
 8672TIP3   OH247506   3.705   6.766  14.033  0.6056  0.0530 -0.3844
 8672TIP3    H147507   3.703   6.817  13.951 -0.6519 -0.3140 -0.6056
 8672TIP3    H247508   3.641   6.696  14.019  0.7021 -0.2789  0.7587
 8673TIP3   OH247509   1.510   3.016   0.952 -0.2437 -0.5056  0.2207
 8673TIP3    H147510   1.580   3.018   1.018  0.2968  0.3395 -0.3578
 8673TIP3    H247511   1.483   2.925   0.949  0.8033 -0.8426  0.4951
 8674TIP3   OH247512   1.694   5.812   3.656 -0.3571  0.2454  0.1991
 8674TIP3    H147513   1.654   5.770   3.580 -0.6986 -0.3183  0.6745
 8674TIP3    H247514   1.619   5.840   3.710 -0.1214  0.0016  0.6630
 8675TIP3   OH247515   5.430   2.886   4.320  0.2569  0.3227 -0.1689
 8675TIP3    H147516   5.366   2.899   4.390  0.3035 -0.8234  0.1118
 8675TIP3    H247517   5.506   2.846   4.364  1.4291  2.1990 -0.3846
 8676TIP3   OH247518   0.997   5.315  14.368  0.0288 -0.1556  0.3820
 8676TIP3    H147519   0.942   5.279  14.437  1.3860 -0.7177  1.1923
 8676TIP3    H247520   0.966   5.272  14.288 -0.5065 -0.6941  0.8738
 8677TIP3   OH247521   0.773   0.983  13.842 -0.2600 -0.2051 -0.1306
 8677TIP3    H147522   0.835   1.047  13.807  0.7079 -0.4738  1.0330
 8677TIP3    H247523   0.687   1.015  13.815  0.3745 -0.1038 -2.2479
 8678TIP3   OH247524   4.849   2.393   4.814  0.5348  0.2030 -0.3974
 8678TIP3    H147525   4.906   2.317   4.826  0.7429  0.3254 -0.5821
 8678TIP3    H247526   4.836   2.398   4.719  2.1562  1.5518 -0.6102
 8679TIP3   OH247527   2.023   5.230   2.103 -0.4273 -0.1289 -0.1242
 8679TIP3    H147528   1.987   5.310   2.065  1.2101  1.3715  1.2788
 8679TIP3    H247529   1.948   5.172   2.113 -1.4344  0.6433 -2.5278
 8680TIP3   OH247530   1.265   5.074  13.193 -1.1191  0.1549  0.5613
 8680TIP3    H147531   1.173   5.057  13.176 -0.7387 -0.2599 -1.4068
 8680TIP3    H247532   1.294   5.126  13.118  0.6118 -1.1699  0.2309
 8681TIP3   OH247533   1.826   2.555  15.989  0.1389 -0.0942  0.4018
 8681TIP3    H147534   1.755   2.569  16.052  0.4880 -0.7504  0.9514
 8681TIP3    H247535   1.888   2.498  16.035  0.8219  0.1338 -0.2242
 8682TIP3   OH247536   1.478   1.512   3.455 -0.1662  0.0712 -0.1228
 8682TIP3    H147537   1.546   1.474   3.400  0.2128  3.8958 -2.7249
 8682TIP3    H247538   1.395   1.485   3.415  0.0906  1.6065 -1.8182
 8683TIP3   OH247539   4.447   0.557   6.136 -0.3368  0.0401 -0.4421
 8683TIP3    H147540   4.498   0.560   6.217  1.2427 -0.9877 -1.3476
 8683TIP3    H247541   4.380   0.624   6.147  3.1532  3.8687 -0.4964
 8684TIP3   OH247542   6.204   1.202  11.459  0.1416 -0.3703 -0.0823
 8684TIP3    H147543   6.142   1.167  11.395 -0.6034 -0.1965  0.5276
 8684TIP3    H247544   6.239   1.280  11.418 -0.3978 -0.2113 -0.2494
 8685TIP3   OH247545   1.161   1.272   3.711 -0.0493  0.0877 -0.3012
 8685TIP3    H147546   1.196   1.216   3.642  0.6455 -0.6822  0.6313
 8685TIP3    H247547   1.077   1.233   3.734 -0.7036  0.8654 -1.2932
 8686TIP3   OH247548   3.793   2.762  16.368 -0.5045 -0.6582  0.5942
 8686TIP3    H147549   3.808   2.795  16.279  0.2756 -0.3443  0.8381
 8686TIP3    H247550   3.699   2.743  16.371 -1.1308  2.0647  0.6202
 8687TIP3   OH247551   6.637   3.273  17.246 -0.4904  0.0121  0.1609
 8687TIP3    H147552   6.730   3.284  17.227 -0.2733 -0.8614  0.6359
 8687TIP3    H247553   6.593   3.305  17.167  0.1991  0.5814 -0.0083
 8688TIP3   OH247554   4.413   2.664  14.007 -0.1679 -0.7000 -0.5990
 8688TIP3    H147555   4.367   2.713  13.939 -1.4371  0.1331  0.8048
 8688TIP3    H247556   4.453   2.731  14.063 -2.8029 -1.0722  1.9609
 8689TIP3   OH247557   4.743   0.428  13.399 -0.0286 -0.5452  0.0061
 8689TIP3    H147558   4.664   0.459  13.356  0.3279  1.7646  0.8648
 8689TIP3    H247559   4.775   0.357  13.343 -2.4135 -1.2312 -0.5868
 8690TIP3   OH247560   5.337   2.129  11.574  0.1104  0.4248 -0.1622
 8690TIP3    H147561   5.402   2.064  11.600  2.3191  1.4287 -2.6330
 8690TIP3    H247562   5.379   2.213  11.593 -1.2596  1.1209 -0.1411
 8691TIP3   OH247563   0.627   1.711   1.989 -0.1692 -0.0791  0.5424
 8691TIP3    H147564   0.590   1.758   1.914 -1.7874  0.1343  1.4310
 8691TIP3    H247565   0.658   1.628   1.952  0.9929  0.8571 -0.7072
 8692TIP3   OH247566   6.585   0.217  14.489 -0.3249  0.1401  0.4780
 8692TIP3    H147567   6.521   0.169  14.542 -0.7592  0.6119  0.3878
 8692TIP3    H247568   6.591   0.303  14.531 -0.4435  0.4122 -0.0520
 8693TIP3   OH247569   6.011   0.292   1.334 -0.3759  0.2178  0.2954
 8693TIP3    H147570   5.997   0.206   1.294 -2.2649  1.1067 -1.1545
 8693TIP3    H247571   6.105   0.296   1.350 -0.4389 -2.9332  2.4611
 8694TIP3   OH247572   0.490   3.569   3.599 -0.4539 -0.1052 -0.2431
 8694TIP3    H147573   0.501   3.631   3.671  0.4295 -0.3537 -0.1443
 8694TIP3    H247574   0.578   3.533   3.585 -0.8171 -0.8281 -0.7524
 8695TIP3   OH247575   5.210   1.403  14.557 -0.3039  0.2787  0.2746
 8695TIP3    H147576   5.173   1.345  14.624 -0.6520 -0.2917 -0.3978
 8695TIP3    H247577   5.224   1.346  14.481  0.3495  0.8604 -0.0500
 8696TIP3   OH247578   0.991   6.581   5.478 -0.0464  0.3254 -0.0237
 8696TIP3    H147579   0.910   6.541   5.511  0.9234 -2.0053 -0.3519
 8696TIP3    H247580   1.054   6.571   5.549  0.5956  0.0680 -0.6224
 8697TIP3   OH247581   2.202   6.477  14.332  0.5376 -0.4621  0.2977
 8697TIP3    H147582   2.268   6.457  14.399 -0.2477  0.9779  1.5739
 8697TIP3    H247583   2.210   6.572  14.319 -0.3185 -0.5032 -0.5830
 8698TIP3   OH247584   6.045   1.544  14.103 -0.2968 -0.0692 -0.3802
 8698TIP3    H147585   6.124   1.585  14.139  0.7548 -2.6784  0.5526
 8698TIP3    H247586   6.035   1.584  14.016  0.8485  1.7613  0.2549
 8699TIP3   OH247587   5.527   5.197  11.276 -0.1630 -0.2565  0.0371
 8699TIP3    H147588   5.471   5.248  11.218 -0.4498  0.3187  0.8170
 8699TIP3    H247589   5.469   5.166  11.345  0.6878  1.4307  1.5741
 8700TIP3   OH247590   5.941   6.114  13.139  0.3014 -0.0831  0.3741
 8700TIP3    H147591   5.854   6.150  13.125  0.7674  1.5851  1.4707
 8700TIP3    H247592   5.950   6.109  13.234  1.7822  0.8589  0.3201
 8701TIP3   OH247593   3.753   5.790  14.919 -0.6584  0.8930 -0.1570
 8701TIP3    H147594   3.674   5.768  14.969  0.3930 -0.6196  0.9496
 8701TIP3    H247595   3.799   5.854  14.973 -0.1346  0.2040  0.2317
 8702TIP3   OH247596   2.304   2.866   5.609  0.1785 -0.2409  0.0870
 8702TIP3    H147597   2.247   2.942   5.602  1.7655  1.1539  1.3814
 8702TIP3    H247598   2.392   2.902   5.598  1.0783 -1.6090  2.2590
 8703TIP3   OH247599   6.612   1.247   1.870 -0.5038  0.4171  0.2111
 8703TIP3    H147600   6.658   1.199   1.939 -0.6983  1.5314  1.1391
 8703TIP3    H247601   6.670   1.320   1.848 -0.9515  0.7154  0.0066
 8704TIP3   OH247602   5.005   3.921   1.709  0.6575 -0.5091 -0.4072
 8704TIP3    H147603   5.091   3.960   1.698 -0.5836  2.9099  0.6056
 8704TIP3    H247604   4.947   3.972   1.652 -1.0960 -0.8856  0.9208
 8705TIP3   OH247605   4.888   5.229   3.531 -0.2116  0.4457 -0.4831
 8705TIP3    H147606   4.881   5.230   3.626  0.0629  1.5870 -0.4691
 8705TIP3    H247607   4.932   5.311   3.508  0.7001 -0.2916 -1.5224
 8706TIP3   OH247608   4.800   2.135  13.680 -0.0003  0.2485  0.6775
 8706TIP3    H147609   4.749   2.204  13.722  0.6681  0.9381  0.3536
 8706TIP3    H247610   4.891   2.159  13.694  0.2503 -0.7711  0.8938
 8707TIP3   OH247611   1.197   5.695  14.621 -0.2838 -0.2569  0.3043
 8707TIP3    H147612   1.107   5.725  14.626 -1.2030 -2.2275 -2.1235
 8707TIP3    H247613   1.238   5.751  14.555 -0.0871 -0.1419  0.5236
 8708TIP3   OH247614   2.667   3.411   0.558  0.1509 -0.1854 -0.8006
 8708TIP3    H147615   2.633   3.374   0.477  1.7244  1.6499 -2.4181
 8708TIP3    H247616   2.625   3.498   0.563  0.3895 -0.1176  0.1424
 8709TIP3   OH247617   1.331   1.262  14.684 -0.1690  0.0308 -0.2591
 8709TIP3    H147618   1.272   1.270  14.759 -0.4268  4.0357 -0.7084
 8709TIP3    H247619   1.377   1.179  14.699 -0.6247  0.3292  3.9793
 8710TIP3   OH247620   6.596   4.881   2.434 -0.0366  0.2263  0.7559
 8710TIP3    H147621   6.625   4.970   2.413 -0.8377  0.4788  0.7137
 8710TIP3    H247622   6.601   4.876   2.529 -0.6092  0.5336  0.8052
 8711TIP3   OH247623   0.684   2.572  11.400  0.7113  0.1953 -0.0573
 8711TIP3    H147624   0.728   2.516  11.336 -1.5589 -1.2340 -0.4818
 8711TIP3    H247625   0.626   2.627  11.348 -0.1693 -0.0388  0.6567
 8712TIP3   OH247626   0.465   1.142   5.426 -0.0466 -0.3660  0.2720
 8712TIP3    H147627   0.511   1.113   5.504  0.8612  0.8619  0.2323
 8712TIP3    H247628   0.424   1.224   5.452  0.0812 -0.0567 -0.4605
 8713TIP3   OH247629   4.904   3.121  16.384 -0.5069 -0.0460 -0.0017
 8713TIP3    H147630   4.909   3.161  16.297  2.1870  0.9493  0.5015
 8713TIP3    H247631   4.900   3.027  16.366 -0.5903  0.1727 -1.2025
 8714TIP3   OH247632   4.881   6.501   1.183  0.1578  0.2392 -0.0247
 8714TIP3    H147633   4.795   6.468   1.158 -0.2493  0.7630  0.6608
 8714TIP3    H247634   4.917   6.435   1.242 -1.0132  1.3376  2.0445
 8715TIP3   OH247635   2.537   1.749   1.321  0.9682  0.4709  0.7292
 8715TIP3    H147636   2.472   1.816   1.344 -0.1913 -0.2612 -0.3112
 8715TIP3    H247637   2.621   1.794   1.329  0.4110  1.2878  2.6620
 8716TIP3   OH247638   6.620   0.754  16.822 -0.2721  0.0582 -0.0368
 8716TIP3    H147639   6.680   0.822  16.790  0.9226 -0.1306  1.6363
 8716TIP3    H247640   6.546   0.803  16.857 -0.5150  0.3663 -0.9524
 8717TIP3   OH247641   1.924   2.041   0.156 -0.1588  0.4273  0.1010
 8717TIP3    H147642   1.935   2.129   0.192 -0.4085  0.2917  0.5217
 8717TIP3    H247643   1.938   1.982   0.231 -2.3964  0.1919  0.4187
 8718TIP3   OH247644   3.425   0.594  15.260 -0.3302  0.2891 -0.4471
 8718TIP3    H147645   3.369   0.550  15.195  1.2120 -0.9109 -1.0496
 8718TIP3    H247646   3.508   0.606  15.214  0.4146  0.5284  0.9240
 8719TIP3   OH247647   5.308   1.647   2.270 -0.2822 -0.3667  0.0226
 8719TIP3    H147648   5.246   1.583   2.236 -0.8311 -0.6880  1.5263
 8719TIP3    H247649   5.312   1.715   2.203  0.2939 -1.9277 -1.6138
 8720TIP3   OH247650   5.128   6.347  12.209  0.0988  0.3058 -0.7704
 8720TIP3    H147651   5.041   6.387  12.215 -1.0254 -2.1377  0.5451
 8720TIP3    H247652   5.132   6.315  12.119 -0.4041  0.3501 -0.8151
 8721TIP3   OH247653   3.622   0.644  14.334  0.1891 -0.4986  0.0144
 8721TIP3    H147654   3.705   0.605  14.308  0.0400  0.2665 -1.7160
 8721TIP3    H247655   3.558   0.605  14.275 -0.3556  0.4853 -0.0576
 8722TIP3   OH247656   3.549   1.303   7.940 -0.1670  0.0344 -0.1012
 8722TIP3    H147657   3.515   1.229   7.990 -0.9753  0.7769  0.4782
 8722TIP3    H247658   3.507   1.296   7.855 -0.0704 -0.2929 -0.1235
 8723TIP3   OH247659   2.746   5.259   4.116 -0.2693 -0.0718  0.1536
 8723TIP3    H147660   2.683   5.238   4.046 -3.7001  0.6854  2.7349
 8723TIP3    H247661   2.811   5.315   4.073 -3.0778  1.7463 -2.1861
 8724TIP3   OH247662   3.894   5.600  13.833  0.8247 -0.3763 -0.1679
 8724TIP3    H147663   3.964   5.568  13.776 -0.1914  0.4326 -1.9661
 8724TIP3    H247664   3.939   5.634  13.910  2.4806  0.5956 -1.4996
 8725TIP3   OH247665   2.456   4.894  11.593  0.2835 -0.2560  0.4869
 8725TIP3    H147666   2.461   4.829  11.523 -0.3253 -0.7153  0.8649
 8725TIP3    H247667   2.547   4.921  11.608  0.3419  0.5165 -1.0934
 8726TIP3   OH247668   0.893   5.034  12.833  0.0570  0.3245 -0.1324
 8726TIP3    H147669   0.951   5.023  12.908  0.7577  2.0327 -0.3819
 8726TIP3    H247670   0.886   4.946  12.795  1.7524 -0.0963  0.4439
 8727TIP3   OH247671   4.314   1.490   1.093  0.4810  0.0177 -0.4653
 8727TIP3    H147672   4.265   1.414   1.059 -0.7331  1.0286 -1.0448
 8727TIP3    H247673   4.404   1.458   1.100  0.0945 -1.3341 -1.1744
 8728TIP3   OH247674   0.820   2.420   3.444  0.4373 -0.3738 -0.5168
 8728TIP3    H147675   0.775   2.359   3.503  0.4891  0.4279  0.3692
 8728TIP3    H247676   0.753   2.445   3.381 -0.5153  1.0297  0.9556
 8729TIP3   OH247677   4.117   5.781  13.151  0.4023 -0.3686  0.1346
 8729TIP3    H147678   4.105   5.875  13.135 -1.2693 -0.3225  1.4536
 8729TIP3    H247679   4.033   5.742  13.126  1.2455 -1.6060 -0.8707
 8730TIP3   OH247680   2.164   4.605  15.790  0.6411  0.0334  0.9018
 8730TIP3    H147681   2.226   4.675  15.810 -0.6495  1.5161 -0.0140
 8730TIP3    H247682   2.202   4.560  15.714  0.3359  1.3192 -0.0423
 8731TIP3   OH247683   4.357   2.200  16.613 -0.2196 -0.6531  0.1049
 8731TIP3    H147684   4.295   2.147  16.563  0.5288 -1.6368  0.1930
 8731TIP3    H247685   4.353   2.163  16.702 -0.4711  0.1404  0.4299
 8732TIP3   OH247686   2.691   4.346   0.851 -0.2582 -0.3036 -0.2146
 8732TIP3    H147687   2.702   4.358   0.946  1.5425  0.2288 -0.4470
 8732TIP3    H247688   2.618   4.403   0.828  0.9269  1.5837  0.4838
 8733TIP3   OH247689   2.355   4.266  10.595  0.4743  0.4302  0.5824
 8733TIP3    H147690   2.275   4.222  10.626  0.0174  1.0392  0.2817
 8733TIP3    H247691   2.327   4.316  10.518  1.2415  0.2978  0.2040
 8734TIP3   OH247692   0.935   6.616  10.810  0.8255  0.3966 -0.1243
 8734TIP3    H147693   0.916   6.524  10.823 -0.6743  0.4211 -1.8769
 8734TIP3    H247694   1.006   6.618  10.746 -0.0733  0.4531 -1.1416
 8735TIP3   OH247695   1.605   5.723  16.281  0.2119  0.1448  0.0371
 8735TIP3    H147696   1.690   5.758  16.307  0.7549 -1.9450  1.2905
 8735TIP3    H247697   1.611   5.629  16.298 -2.1426 -0.1539 -0.4261
 8736TIP3   OH247698   5.115   2.568   5.646 -0.3362 -0.7191 -0.2297
 8736TIP3    H147699   5.164   2.497   5.605  0.9184  0.2374 -0.4654
 8736TIP3    H247700   5.160   2.582   5.730 -0.5064 -0.1337 -0.2328
 8737TIP3   OH247701   4.051   6.237  13.340  0.3628  0.1496  0.1163
 8737TIP3    H147702   4.104   6.316  13.334  0.5329  0.0539  0.3284
 8737TIP3    H247703   4.060   6.208  13.431 -0.3749  0.3468  0.2607
 8738TIP3   OH247704   4.538   5.735   3.437 -0.2241 -0.2589  0.3486
 8738TIP3    H147705   4.548   5.827   3.463  0.2989 -0.3379  0.4384
 8738TIP3    H247706   4.443   5.722   3.431 -0.3411  0.0111  1.3450
 8739TIP3   OH247707   4.998   5.187  15.741  0.4076  0.0421 -0.9464
 8739TIP3    H147708   5.081   5.193  15.789 -0.1662  0.4448  0.0181
 8739TIP3    H247709   4.939   5.142  15.801 -0.4784  1.0366 -1.0431
 8740TIP3   OH247710   3.697   5.270   4.956  0.9521  0.0626  0.5793
 8740TIP3    H147711   3.726   5.183   4.982 -0.9656 -0.5388  0.8182
 8740TIP3    H247712   3.638   5.255   4.882 -0.2389  1.0620  1.2982
 8741TIP3   OH247713   1.995   6.056   1.825  0.6471  0.0601 -0.1388
 8741TIP3    H147714   2.024   6.123   1.887 -2.2057  0.7262  0.6186
 8741TIP3    H247715   2.020   5.973   1.866 -0.0088  0.5349  1.2651
 8742TIP3   OH247716   3.006   5.742  12.315 -0.0905 -0.2211 -0.0404
 8742TIP3    H147717   2.953   5.672  12.351  1.7749 -0.9795  1.4354
 8742TIP3    H247718   3.055   5.701  12.244  1.1902 -0.5445  0.9859
 8743TIP3   OH247719   3.279   4.618   2.156  0.5161  0.5117  0.2251
 8743TIP3    H147720   3.370   4.628   2.183  0.4132  1.3460  0.2848
 8743TIP3    H247721   3.247   4.708   2.145 -0.5579  0.2576  1.1024
 8744TIP3   OH247722   6.634   1.668  13.178 -0.1946  0.3103 -0.0938
 8744TIP3    H147723   6.542   1.667  13.206  0.3651  0.1342  1.8945
 8744TIP3    H247724   6.663   1.577  13.189  0.3536  0.4615 -0.2425
 8745TIP3   OH247725   1.840   1.747   4.038 -0.5669 -0.2484 -0.0604
 8745TIP3    H147726   1.910   1.695   4.000  0.3496 -0.5151  1.8830
 8745TIP3    H247727   1.764   1.731   3.981  0.1231 -2.3569 -0.4557
 8746TIP3   OH247728   3.438   5.248   2.093  0.4694  0.3724 -0.5409
 8746TIP3    H147729   3.489   5.311   2.145  0.1605  1.0552 -1.0487
 8746TIP3    H247730   3.501   5.180   2.069  0.3828 -0.5709  1.6534
 8747TIP3   OH247731   2.096   2.848  11.438  0.1824 -0.3643  0.2096
 8747TIP3    H147732   2.185   2.839  11.472  0.8846  2.5758 -0.6034
 8747TIP3    H247733   2.107   2.888  11.351 -1.9199 -0.1878 -0.0309
 8748TIP3   OH247734   3.510   1.254   4.320 -0.2462 -0.0667 -0.1485
 8748TIP3    H147735   3.479   1.310   4.391  0.2397  0.8669 -0.6506
 8748TIP3    H247736   3.436   1.248   4.260 -0.2237  0.2248 -0.2057
 8749TIP3   OH247737   5.111   3.201  10.850 -0.0042  0.0624  0.9615
 8749TIP3    H147738   5.016   3.193  10.842 -0.0020  0.4208  0.4802
 8749TIP3    H247739   5.146   3.154  10.774  0.1613  0.6351  0.6684
 8750TIP3   OH247740   2.835   5.363   3.721  0.4030  0.0298 -0.2805
 8750TIP3    H147741   2.864   5.368   3.812  0.7584  0.7094 -0.4276
 8750TIP3    H247742   2.914   5.340   3.672  0.7056  1.7220 -0.6602
 8751TIP3   OH247743   4.360   1.245   4.866  0.0257 -0.1475  0.2343
 8751TIP3    H147744   4.349   1.336   4.896 -0.8510  0.3231 -1.3900
 8751TIP3    H247745   4.273   1.207   4.876  0.0424 -0.3672 -0.4715
 8752TIP3   OH247746   2.643   6.617  11.710 -0.4810  0.3212 -0.3457
 8752TIP3    H147747   2.673   6.708  11.720  0.9281 -0.0375 -1.0506
 8752TIP3    H247748   2.721   6.564  11.729 -0.9638 -0.7047 -1.1246
 8753TIP3   OH247749   2.425   6.170  14.193 -0.0875  0.2245 -0.4949
 8753TIP3    H147750   2.356   6.106  14.210  0.6505 -0.1364  1.3585
 8753TIP3    H247751   2.421   6.230  14.268  0.6225  1.0927 -1.1296
 8754TIP3   OH247752   2.226   1.520   1.792 -0.1967  0.2855  0.3345
 8754TIP3    H147753   2.254   1.583   1.727  1.0827  0.0169  0.6076
 8754TIP3    H247754   2.273   1.439   1.770 -0.4433 -0.0647  1.0532
 8755TIP3   OH247755   4.706   5.500  13.607  0.7962 -0.9936  1.0426
 8755TIP3    H147756   4.665   5.428  13.559  2.9075 -2.7119  1.6116
 8755TIP3    H247757   4.726   5.565  13.540  1.5235 -2.2805 -0.0589
 8756TIP3   OH247758   2.522   3.514   3.195 -0.5999  0.4960  0.0798
 8756TIP3    H147759   2.552   3.448   3.132 -0.9650  0.8052 -0.4314
 8756TIP3    H247760   2.496   3.588   3.141 -0.4111  0.9729  0.6375
 8757TIP3   OH247761   6.588   5.188   0.196  0.5363  0.5739 -0.5324
 8757TIP3    H147762   6.527   5.187   0.122  0.9297  1.8078 -0.8911
 8757TIP3    H247763   6.651   5.120   0.175 -1.2431 -1.4964  0.3565
 8758TIP3   OH247764   5.018   2.671   0.054 -0.2487 -0.5953  0.2825
 8758TIP3    H147765   5.110   2.679   0.030 -0.6007  1.3456 -0.6215
 8758TIP3    H247766   5.002   2.577   0.060  1.8862 -0.9579  0.8948
 8759TIP3   OH247767   1.570   1.848   4.901 -0.3886 -0.2163 -0.3596
 8759TIP3    H147768   1.513   1.841   4.978 -1.1510 -1.2967 -0.9877
 8759TIP3    H247769   1.645   1.793   4.922 -0.5649 -0.4586 -0.3611
 8760TIP3   OH247770   1.751   1.447  12.584 -0.2208 -0.3861 -0.0071
 8760TIP3    H147771   1.750   1.543  12.592  0.9871 -0.2765 -0.9376
 8760TIP3    H247772   1.792   1.430  12.499  3.7761 -1.8005  1.9642
 8761TIP3   OH247773   0.956   5.625   5.609  0.1021  0.1459  0.2168
 8761TIP3    H147774   0.890   5.622   5.678  0.5846 -0.4713  0.6607
 8761TIP3    H247775   0.917   5.680   5.541 -1.4179 -1.2649 -0.1196
 8762TIP3   OH247776   4.674   3.353  11.996  0.8331 -0.0307 -0.1249
 8762TIP3    H147777   4.700   3.282  12.055  2.0912  1.1224  0.7686
 8762TIP3    H247778   4.710   3.329  11.911 -4.2531 -3.7146 -1.6915
 8763TIP3   OH247779   2.098   5.479  12.354  0.1263  0.2317  0.7675
 8763TIP3    H147780   2.081   5.553  12.297 -1.1716  1.4233  2.5908
 8763TIP3    H247781   2.011   5.446  12.377  0.6338 -0.6095  1.5716
 8764TIP3   OH247782   3.021   5.524  14.622  0.0553  0.3007 -0.2379
 8764TIP3    H147783   3.102   5.522  14.674  0.9539 -0.0350 -1.5864
 8764TIP3    H247784   3.044   5.477  14.542 -1.1980  1.0561 -1.0662
 8765TIP3   OH247785   1.653   6.317  11.625 -0.2157 -0.3239  0.2312
 8765TIP3    H147786   1.735   6.334  11.579  0.7983 -2.4150  1.1170
 8765TIP3    H247787   1.636   6.398  11.674  1.2524  0.1894 -0.0621
 8766TIP3   OH247788   5.164   2.655  14.109 -1.1157  0.0479 -0.5846
 8766TIP3    H147789   5.196   2.716  14.042 -1.8152 -0.6700 -1.6178
 8766TIP3    H247790   5.221   2.669  14.184 -0.3627  0.9612 -1.2979
 8767TIP3   OH247791   5.861   6.104   3.963  0.0146 -0.6069  0.3793
 8767TIP3    H147792   5.792   6.125   4.026  2.1672  2.5323  1.9172
 8767TIP3    H247793   5.820   6.119   3.878 -1.0589  1.9558  1.2502
 8768TIP3   OH247794   0.677   2.230   5.744  0.0276  0.3580 -0.0805
 8768TIP3    H147795   0.634   2.216   5.828  2.8821 -0.3541  1.3989
 8768TIP3    H247796   0.743   2.297   5.762  1.6292 -0.7959 -1.3535
 8769TIP3   OH247797   4.717   6.282   1.921  0.1297 -0.4164 -0.1260
 8769TIP3    H147798   4.635   6.268   1.874  0.8139 -1.4393 -1.0740
 8769TIP3    H247799   4.707   6.367   1.964 -0.7738  0.2480 -1.5981
 8770TIP3   OH247800   6.643   1.109   0.200  0.4598 -0.1331  0.0762
 8770TIP3    H147801   6.719   1.145   0.154  1.2278 -1.4932  0.2476
 8770TIP3    H247802   6.674   1.093   0.289 -0.3901  0.4282  0.4880
 8771TIP3   OH247803   0.094   4.065  17.200  0.3640  0.3657  0.5741
 8771TIP3    H147804   0.129   4.154  17.195  0.8106  0.2024  0.7595
 8771TIP3    H247805  -0.001   4.076  17.197  0.4283  0.7476 -1.0611
 8772TIP3   OH247806   2.409   3.064  16.412 -0.1707  0.0768  0.4155
 8772TIP3    H147807   2.339   3.098  16.356  0.7240 -0.4411 -1.0936
 8772TIP3    H247808   2.435   2.982  16.370  1.1465  0.1131  1.0956
 8773TIP3   OH247809   2.241   5.762   3.928 -0.1414 -0.2490  0.0571
 8773TIP3    H147810   2.194   5.719   3.856  0.3680 -1.7372  0.5600
 8773TIP3    H247811   2.328   5.721   3.927  0.9967  2.0416 -0.5041
 8774TIP3   OH247812   3.709   4.743  14.776  0.1394  0.2407 -0.0278
 8774TIP3    H147813   3.658   4.776  14.849 -0.0990  0.8973 -0.4886
 8774TIP3    H247814   3.774   4.684  14.817  1.4907  2.3157  0.9853
 8775TIP3   OH247815   0.359   0.576   1.382  0.5910  0.3452  0.0493
 8775TIP3    H147816   0.416   0.650   1.404 -1.3439  1.8232  0.4109
 8775TIP3    H247817   0.302   0.609   1.312 -0.2239 -0.8457  0.1074
 8776TIP3   OH247818   2.171   2.738  12.568 -0.6266 -0.3677  0.3031
 8776TIP3    H147819   2.264   2.742  12.550 -0.5975  1.0972  0.6259
 8776TIP3    H247820   2.135   2.685  12.497  0.2941  0.0498 -0.4930
 8777TIP3   OH247821   1.820   6.258   3.818 -0.0511 -0.3696  0.4566
 8777TIP3    H147822   1.821   6.277   3.724 -1.3291 -3.3596 -0.3040
 8777TIP3    H247823   1.895   6.200   3.831  0.5164  0.5593  1.4614
 8778TIP3   OH247824   1.733   5.893  13.821  0.1353  0.3197 -0.0435
 8778TIP3    H147825   1.795   5.820  13.825  1.2185  1.2499  2.0721
 8778TIP3    H247826   1.754   5.938  13.739  2.1722  0.5002  0.5289
 8779TIP3   OH247827   0.027   2.921  13.354 -0.0655  0.2607  0.0556
 8779TIP3    H147828   0.048   2.869  13.277  0.5005  2.2361 -1.2064
 8779TIP3    H247829  -0.064   2.949  13.341 -0.7159 -1.1551  1.2258
 8780TIP3   OH247830   5.771   1.126   4.735  0.5751 -0.3738 -0.6597
 8780TIP3    H147831   5.837   1.137   4.803 -1.0735 -3.2312  1.6587
 8780TIP3    H247832   5.788   1.039   4.699 -1.2669 -0.8056 -0.6268
 8781TIP3   OH247833   3.464   5.200  13.895  0.2541  0.3634  0.0016
 8781TIP3    H147834   3.502   5.177  13.980 -1.4899 -0.4670  0.5975
 8781TIP3    H247835   3.515   5.150  13.832  0.1433 -0.7608  0.7724
 8782TIP3   OH247836   5.283   2.998  13.529  0.4897 -0.1536 -0.6777
 8782TIP3    H147837   5.353   2.941  13.561 -0.0238 -0.1603  0.4929
 8782TIP3    H247838   5.219   2.938  13.492  0.0815 -0.3318  0.2932
 8783TIP3   OH247839   2.859   1.523   2.588 -0.3147  0.1497 -0.1402
 8783TIP3    H147840   2.871   1.453   2.652  1.5783  1.6489  1.2761
 8783TIP3    H247841   2.931   1.512   2.526 -0.8508  0.0207 -0.7530
 8784TIP3   OH247842   4.350   2.474   0.142 -0.1860  0.0608  0.0080
 8784TIP3    H147843   4.422   2.537   0.154 -0.3845  0.1803  0.5684
 8784TIP3    H247844   4.271   2.525   0.159 -0.3554 -0.3067  0.3222
 8785TIP3   OH247845   6.332   2.824  12.152 -0.0544  0.1916 -0.7243
 8785TIP3    H147846   6.386   2.748  12.175 -0.1072  0.2819 -0.2953
 8785TIP3    H247847   6.394   2.896  12.142 -0.1897  0.5678  0.9329
 8786TIP3   OH247848   3.925   6.732   4.172 -0.1039  0.7713 -0.3368
 8786TIP3    H147849   3.884   6.704   4.091 -0.4478 -0.6436  0.2836
 8786TIP3    H247850   4.010   6.688   4.172 -0.6534 -0.3686  0.6621
 8787TIP3   OH247851   3.001   0.350   5.679 -0.4153 -0.5248  0.2113
 8787TIP3    H147852   3.090   0.315   5.672  0.2049  0.8991  0.4859
 8787TIP3    H247853   2.984   0.391   5.595 -0.5956 -0.3138  0.3475
 8788TIP3   OH247854   4.808   6.691   2.265  0.5256  0.2583  0.0397
 8788TIP3    H147855   4.834   6.674   2.356 -0.3267 -1.7725 -0.0412
 8788TIP3    H247856   4.713   6.704   2.269  0.4379 -0.1311 -0.5767
 8789TIP3   OH247857   0.812   6.146  16.876 -0.1336 -0.0650  0.1600
 8789TIP3    H147858   0.812   6.221  16.935 -0.2873  0.9750 -1.1353
 8789TIP3    H247859   0.743   6.089  16.910 -1.8090  1.6052 -0.3513
 8790TIP3   OH247860   0.707   5.611   5.747  0.0086 -0.3303 -0.1842
 8790TIP3    H147861   0.650   5.662   5.689 -3.1058 -0.5280  2.4302
 8790TIP3    H247862   0.648   5.551   5.792  2.1978 -0.2961  3.0608
 8791TIP3   OH247863   0.746   4.632   0.605 -0.1674 -0.4423  0.5918
 8791TIP3    H147864   0.753   4.720   0.642 -0.7981 -0.0958 -0.0982
 8791TIP3    H247865   0.748   4.574   0.681  2.8861 -0.0414  0.9676
 8792TIP3   OH247866   0.424   6.074   0.293  0.2817  0.4860  0.4665
 8792TIP3    H147867   0.437   6.113   0.206  2.6527  2.2411  1.5228
 8792TIP3    H247868   0.429   6.147   0.354 -0.7765 -0.7939  2.1804
 8793TIP3   OH247869   4.927   1.610  14.843  0.4912  0.5642 -0.7315
 8793TIP3    H147870   4.844   1.651  14.866 -0.1112 -0.5870 -0.7790
 8793TIP3    H247871   4.903   1.531  14.795  1.5090 -0.8724  0.9651
 8794TIP3   OH247872   5.659   2.442   3.759  0.1145  0.0547  0.3355
 8794TIP3    H147873   5.735   2.394   3.725  0.6022  1.0820 -0.0744
 8794TIP3    H247874   5.623   2.487   3.682  1.0400  2.1491  1.0437
 8795TIP3   OH247875   4.759   1.834   2.047  0.4453 -0.6621 -0.5285
 8795TIP3    H147876   4.806   1.842   1.963  0.6626 -1.5300 -0.5031
 8795TIP3    H247877   4.672   1.871   2.029  0.2553 -1.4672 -1.3455
 8796TIP3   OH247878   6.068   4.489  10.546  0.4474  0.4442 -0.2867
 8796TIP3    H147879   6.050   4.583  10.553  1.0044  0.4609  1.9572
 8796TIP3    H247880   5.983   4.447  10.559  0.4005  0.6308  0.0197
 8797TIP3   OH247881   2.284   1.375   4.020  0.4396  0.0557  0.6532
 8797TIP3    H147882   2.302   1.338   4.106 -0.0270 -1.6880  0.0367
 8797TIP3    H247883   2.340   1.453   4.015  1.9340 -0.8983  1.7617
 8798TIP3   OH247884   1.235   2.376   6.623 -0.2928  0.2213 -0.5102
 8798TIP3    H147885   1.287   2.429   6.683  0.6730  0.7222 -1.7456
 8798TIP3    H247886   1.158   2.430   6.602 -3.1880 -1.6990  3.7582
 8799TIP3   OH247887   1.904   2.014  13.408 -0.2821 -0.1548  1.0365
 8799TIP3    H147888   1.989   2.023  13.451 -0.5287  1.1349  1.2912
 8799TIP3    H247889   1.840   2.033  13.478 -0.7822 -0.8666  0.7897
 8800TIP3   OH247890   3.375   1.874  14.621 -0.4636  0.7485 -0.5836
 8800TIP3    H147891   3.312   1.886  14.692 -0.8370  0.1993 -0.8133
 8800TIP3    H247892   3.428   1.799  14.647  1.5190  2.4548  0.6023
 8801TIP3   OH247893   3.890   6.001  12.696 -0.1551  0.4282  0.0412
 8801TIP3    H147894   3.943   6.073  12.662 -0.8207  0.8442 -0.1366
 8801TIP3    H247895   3.864   5.951  12.619 -0.0713  0.2590  0.1223
 8802TIP3   OH247896   4.380   6.747   5.665 -0.4576 -0.4695 -0.2392
 8802TIP3    H147897   4.377   6.654   5.646 -1.6133 -0.2226 -1.4497
 8802TIP3    H247898   4.456   6.780   5.617 -1.6639 -0.3574 -2.2144
 8803TIP3   OH247899   0.647   5.779  14.015 -0.4669  0.1840  0.1830
 8803TIP3    H147900   0.655   5.851  13.952 -2.7144 -1.5026 -2.2733
 8803TIP3    H247901   0.579   5.808  14.076  0.6711  1.2192  1.0283
 8804TIP3   OH247902   3.730   6.461  11.750  0.3143  0.3885  0.4652
 8804TIP3    H147903   3.726   6.375  11.708  1.0157  0.2987  0.5712
 8804TIP3    H247904   3.683   6.518  11.690  0.3497  0.0430  0.1009
 8805TIP3   OH247905   4.718   6.676   2.647 -0.0793  0.1703  0.3827
 8805TIP3    H147906   4.641   6.636   2.687 -0.5777 -0.8784 -1.5268
 8805TIP3    H247907   4.700   6.770   2.649  0.5612  0.3673  3.8016
 8806TIP3   OH247908   0.420   5.209  16.011  1.0270 -0.1791  0.4571
 8806TIP3    H147909   0.479   5.200  15.936 -0.7961 -1.4866 -0.9300
 8806TIP3    H247910   0.451   5.144  16.074 -0.1100 -2.4581 -1.1799
 8807TIP3   OH247911   6.809   5.427  16.176 -0.0008 -0.3588 -0.2207
 8807TIP3    H147912   6.861   5.357  16.136 -1.8316 -0.6272 -2.3215
 8807TIP3    H247913   6.728   5.383  16.205 -0.0725  0.4459  0.8684
 8808TIP3   OH247914   4.562   6.070  12.762  0.4607  0.3485  0.2159
 8808TIP3    H147915   4.550   6.051  12.668 -1.4836  0.6963  0.3486
 8808TIP3    H247916   4.611   6.152  12.764  0.3672  0.4280 -0.4969
 8809TIP3   OH247917   4.632   2.896  12.713  0.4315 -0.1789  0.0256
 8809TIP3    H147918   4.594   2.839  12.779 -0.6157 -0.0321 -0.4307
 8809TIP3    H247919   4.705   2.939  12.757 -0.8991  0.7260  1.4260
 8810TIP3   OH247920   3.875   5.050  12.031  0.2929  0.9058  0.2003
 8810TIP3    H147921   3.967   5.070  12.049  0.3980  1.3244 -0.7607
 8810TIP3    H247922   3.842   5.128  11.987  0.0009 -0.0098 -1.2486
 8811TIP3   OH247923   0.163   4.899   3.000 -0.2491  1.0504  0.1292
 8811TIP3    H147924   0.256   4.889   2.982 -0.2488  0.2147  0.5656
 8811TIP3    H247925   0.120   4.854   2.927 -0.3148  1.2768  0.0259
 8812TIP3   OH247926   0.279   5.117   1.107 -0.7329 -0.1926  0.4355
 8812TIP3    H147927   0.249   5.053   1.043 -0.7873  0.6926 -0.4576
 8812TIP3    H247928   0.357   5.077   1.147 -1.0250 -0.9866  0.2194
 8813TIP3   OH247929   2.130   5.311   2.331 -0.1785 -0.0844 -0.0276
 8813TIP3    H147930   2.099   5.299   2.241 -0.8349  0.9902  0.0362
 8813TIP3    H247931   2.205   5.370   2.322  0.3949 -0.7919  0.0433
 8814TIP3   OH247932   4.328   2.227   2.353 -0.3002 -0.4255  0.2865
 8814TIP3    H147933   4.369   2.308   2.320  0.5666 -0.8003  0.4189
 8814TIP3    H247934   4.345   2.229   2.447  1.8997 -1.9305 -0.0038
 8815TIP3   OH247935   1.463   4.142  13.931 -0.2437 -0.8944  0.4163
 8815TIP3    H147936   1.555   4.127  13.952  0.1624 -1.6767 -1.6552
 8815TIP3    H247937   1.464   4.196  13.853 -1.6272  0.9040  1.5423
 8816TIP3   OH247938   2.645   5.902  13.730 -0.2308  0.6968  0.0767
 8816TIP3    H147939   2.740   5.892  13.722 -0.2801  0.0038  0.3300
 8816TIP3    H247940   2.633   5.974  13.791  0.1313  1.9580 -1.2855
 8817TIP3   OH247941   3.099   5.032  16.117  0.2300  0.2700  0.2213
 8817TIP3    H147942   3.184   4.999  16.144  1.4903  1.5503 -1.9164
 8817TIP3    H247943   3.111   5.061  16.026 -2.4002  0.7823 -0.0629
 8818TIP3   OH247944   3.414   0.110   4.062 -0.0356  0.3092  0.4925
 8818TIP3    H147945   3.485   0.160   4.022  0.8935 -0.3273  1.2958
 8818TIP3    H247946   3.458   0.035   4.102 -1.0230  0.5166  2.0191
 8819TIP3   OH247947   5.755   4.409   2.052 -0.7143  0.0342  0.1634
 8819TIP3    H147948   5.694   4.483   2.050 -0.4103  0.3233 -2.4327
 8819TIP3    H247949   5.778   4.399   2.144 -2.5465  1.6796  0.8767
 8820TIP3   OH247950   6.738   1.360   2.188 -0.5799 -0.1243  0.1840
 8820TIP3    H147951   6.666   1.389   2.132 -1.1026  0.3628  1.0838
 8820TIP3    H247952   6.815   1.362   2.131 -1.3508 -1.2142 -0.9576
 8821TIP3   OH247953   3.797   0.596  16.268  0.3209 -0.0869  0.1977
 8821TIP3    H147954   3.795   0.582  16.174  0.6074  0.8487  0.0416
 8821TIP3    H247955   3.889   0.582  16.292 -0.0649 -2.1893  0.6649
 8822TIP3   OH247956   5.153   2.313   6.238 -0.3887  0.4687  0.2501
 8822TIP3    H147957   5.236   2.301   6.192 -0.6422 -1.3163  0.1738
 8822TIP3    H247958   5.136   2.407   6.234  0.4962  0.5932 -1.7255
 8823TIP3   OH247959   5.952   2.640  16.814 -0.0985  0.0625 -0.1032
 8823TIP3    H147960   5.939   2.642  16.719 -2.4548 -0.7919  0.1226
 8823TIP3    H247961   6.042   2.608  16.826  0.0322 -0.3885 -2.0386
 8824TIP3   OH247962   0.891   4.942   6.519 -0.2100  0.1261  0.5062
 8824TIP3    H147963   0.963   4.884   6.544 -0.2788 -0.7526 -1.1526
 8824TIP3    H247964   0.827   4.883   6.477 -0.5596  1.3079 -0.6940
 8825TIP3   OH247965   1.618   4.582   3.131 -0.6025 -0.0847  0.4745
 8825TIP3    H147966   1.687   4.648   3.123 -0.9476  0.4192  1.4903
 8825TIP3    H247967   1.656   4.503   3.094  0.4490  0.2487  0.8111
 8826TIP3   OH247968   2.083   0.903   2.081 -0.2825  0.5060  0.1920
 8826TIP3    H147969   2.136   0.977   2.111 -1.3418  2.4208 -2.2766
 8826TIP3    H247970   1.998   0.916   2.124  0.6547 -1.7445  3.0090
 8827TIP3   OH247971   2.186   2.982  14.570  0.0021 -0.0349  0.0185
 8827TIP3    H147972   2.245   2.914  14.603 -1.0741 -0.9890  0.0317
 8827TIP3    H247973   2.115   2.934  14.527 -0.6213  1.0876 -0.2505
 8828TIP3   OH247974   5.959   6.558  16.456  0.7225 -0.2118 -0.2275
 8828TIP3    H147975   5.958   6.466  16.483  2.5183 -0.7113 -1.6840
 8828TIP3    H247976   6.004   6.603  16.528  1.1431 -0.7054 -0.1780
 8829TIP3   OH247977   5.266   4.763   0.131  0.2027  0.5293  0.1962
 8829TIP3    H147978   5.224   4.709   0.064  0.5831 -1.3803  1.4090
 8829TIP3    H247979   5.357   4.769   0.102  0.4572 -0.6251  0.6914
 8830TIP3   OH247980   5.084   4.614   2.642 -0.1415  0.3498  0.3369
 8830TIP3    H147981   5.131   4.624   2.559 -0.0903 -1.9440  0.0328
 8830TIP3    H247982   5.153   4.592   2.706 -0.6768 -3.8119 -0.2606
 8831TIP3   OH247983   6.161   0.141  14.805  0.2060  0.4022 -0.2463
 8831TIP3    H147984   6.231   0.158  14.741  1.1454 -1.3381  0.2704
 8831TIP3    H247985   6.176   0.051  14.834 -0.8032  0.8007  1.6880
 8832TIP3   OH247986   1.277   0.503   6.363 -0.4277 -0.2468  0.2347
 8832TIP3    H147987   1.240   0.447   6.296 -1.6062  0.1870  0.4925
 8832TIP3    H247988   1.203   0.526   6.419  0.1709  0.9298  0.5866
 8833TIP3   OH247989   6.382   6.422   2.435  0.3832 -0.2702  0.1874
 8833TIP3    H147990   6.423   6.488   2.490  0.1057 -0.2045  0.3168
 8833TIP3    H247991   6.299   6.402   2.478 -1.0744  1.6545 -1.5085
 8834TIP3   OH247992   4.922   4.058   5.630  0.0809 -0.1660  0.4890
 8834TIP3    H147993   4.860   4.079   5.700  2.0166  1.3048  1.8812
 8834TIP3    H247994   4.957   3.972   5.654  0.9628  0.4642  1.5580
 8835TIP3   OH247995   4.427   3.277  12.517 -0.4113 -0.2420 -0.3216
 8835TIP3    H147996   4.426   3.181  12.520 -0.2868 -0.2960 -1.5813
 8835TIP3    H247997   4.351   3.303  12.570 -1.0514 -1.0681 -0.8107
 8836TIP3   OH247998   2.963   6.741   2.864 -0.0636  0.8535 -0.0259
 8836TIP3    H147999   2.923   6.828   2.870 -0.4894  0.6702 -0.1699
 8836TIP3    H248000   2.901   6.684   2.910  1.3942  1.0063  2.2629
 8837TIP3   OH248001   1.946   0.993  15.884 -0.2940 -0.4380 -0.1930
 8837TIP3    H148002   1.931   1.087  15.876  2.3039  0.1864  1.3298
 8837TIP3    H248003   2.004   0.971  15.811 -0.4963 -0.7764 -0.2586
 8838TIP3   OH248004   6.334   5.339  12.245 -0.1605 -0.1356 -0.0565
 8838TIP3    H148005   6.402   5.274  12.268  2.0142  0.8399 -3.0695
 8838TIP3    H248006   6.363   5.419  12.289  0.1511  0.0665 -0.6282
 8839TIP3   OH248007   5.177   1.001   3.134 -0.5421  0.1767  0.5133
 8839TIP3    H148008   5.120   0.924   3.132  0.3347 -0.4706 -0.1766
 8839TIP3    H248009   5.116   1.075   3.129 -1.3208 -0.5151 -1.5559
 8840TIP3   OH248010   2.756   0.389   3.613 -0.4430  0.1072 -0.0068
 8840TIP3    H148011   2.713   0.342   3.542 -0.0784  0.4496 -0.4548
 8840TIP3    H248012   2.835   0.426   3.574 -1.1280  1.7929  0.1214
 8841TIP3   OH248013   4.346   0.243  14.561  0.5109  0.3158 -0.8190
 8841TIP3    H148014   4.364   0.149  14.556  1.2939  0.2124  1.9489
 8841TIP3    H248015   4.419   0.284  14.515  0.3869 -0.4064 -1.6931
 8842TIP3   OH248016   4.408   0.560   1.305  0.4567 -0.0083 -0.0215
 8842TIP3    H148017   4.350   0.556   1.381  0.4332  0.3860 -0.0166
 8842TIP3    H248018   4.379   0.488   1.249  0.0340  0.1194  0.0289
 8843TIP3   OH248019   4.175   6.818  15.117 -0.2786  0.6371  0.1509
 8843TIP3    H148020   4.089   6.798  15.080 -1.9152  0.2325  3.6664
 8843TIP3    H248021   4.170   6.912  15.139  1.3855  1.3566 -2.1989
 8844TIP3   OH248022   4.834   3.311   4.065 -0.2520  0.8995  0.5576
 8844TIP3    H148023   4.899   3.351   4.007  0.8252  0.0155  1.1216
 8844TIP3    H248024   4.861   3.337   4.153 -0.3893  0.1397  0.8304
 8845TIP3   OH248025   0.690   2.371  14.014 -0.3674  0.1655  0.6020
 8845TIP3    H148026   0.709   2.278  14.021  0.2793  0.2184 -0.3325
 8845TIP3    H248027   0.647   2.381  13.929  1.3938  0.9918 -0.2246
 8846TIP3   OH248028   1.251   3.653   2.250 -1.0829 -0.3077  0.5729
 8846TIP3    H148029   1.344   3.676   2.249 -1.3967  1.0746 -0.5923
 8846TIP3    H248030   1.226   3.658   2.343  0.2858 -2.1070  1.0971
 8847TIP3   OH248031   5.121   4.102   1.930 -0.9796  0.0012 -0.1738
 8847TIP3    H148032   5.178   4.170   1.965 -2.7983  1.6431 -0.2284
 8847TIP3    H248033   5.142   4.097   1.837  0.4994 -0.9321  0.1797
 8848TIP3   OH248034   0.897   3.212  16.663 -0.3746  0.0052 -0.4214
 8848TIP3    H148035   0.973   3.270  16.670 -0.1960 -0.1505 -0.9891
 8848TIP3    H248036   0.909   3.148  16.733 -0.4183  0.4704  0.0167
 8849TIP3   OH248037   1.012   4.649  10.985  0.2535  0.0644  0.0984
 8849TIP3    H148038   1.023   4.729  10.933 -1.5659  0.6417  0.5213
 8849TIP3    H248039   0.932   4.609  10.950 -0.7490  0.2164  2.0782
 8850TIP3   OH248040   6.608   0.300  10.490 -0.1630  0.2617 -0.2610
 8850TIP3    H148041   6.536   0.356  10.520 -1.0447 -0.4183 -1.0612
 8850TIP3    H248042   6.575   0.259  10.410  1.2582  0.2232 -0.8690
 8851TIP3   OH248043   4.091   4.712   0.990 -0.3778  0.0701  0.2302
 8851TIP3    H148044   4.075   4.804   0.966 -2.1965 -0.2380  0.1644
 8851TIP3    H248045   4.006   4.669   0.980  0.2734 -1.4697  1.0102
 8852TIP3   OH248046   4.352   1.408  15.760  0.5641  0.1113  0.2837
 8852TIP3    H148047   4.354   1.345  15.688  0.2536  1.2381 -0.7557
 8852TIP3    H248048   4.394   1.363  15.833  1.4663 -0.8480 -0.7847
 8853TIP3   OH248049   2.119   0.153  14.722 -0.2617 -0.1310 -0.3136
 8853TIP3    H148050   2.057   0.186  14.787  0.2107 -1.1818  0.7082
 8853TIP3    H248051   2.065   0.112  14.655 -0.7924  1.5513 -0.9589
 8854TIP3   OH248052   5.855   4.812  13.981 -0.1453 -0.3539  0.8048
 8854TIP3    H148053   5.843   4.720  13.956 -1.7217 -0.0444  0.3146
 8854TIP3    H248054   5.940   4.836  13.944 -1.0895 -0.7465 -1.7565
 8855TIP3   OH248055   4.379   0.001   0.321 -0.1276 -0.0544 -0.5103
 8855TIP3    H148056   4.446   0.067   0.338 -0.2789  0.1118 -0.5579
 8855TIP3    H248057   4.421  -0.082   0.341  0.1245  0.0428 -0.6335
 8856TIP3   OH248058   3.833   4.742   1.668 -0.3520  0.1388  0.4276
 8856TIP3    H148059   3.855   4.788   1.587 -0.0182 -1.6611 -0.5482
 8856TIP3    H248060   3.917   4.726   1.710 -0.4931  0.6789  0.9335
 8857TIP3   OH248061   3.855   1.860   2.700 -0.1246 -0.5978  0.2015
 8857TIP3    H148062   3.822   1.935   2.650 -1.1903 -1.3186 -0.2082
 8857TIP3    H248063   3.950   1.873   2.702 -0.1589  0.0114 -1.0768
 8858TIP3   OH248064   6.145   6.288  11.130  0.3795 -0.4530 -0.2043
 8858TIP3    H148065   6.055   6.303  11.159  0.3219 -1.1513 -0.0031
 8858TIP3    H248066   6.200   6.323  11.200  0.3511  2.7710 -1.6487
 8859TIP3   OH248067   1.594   4.479   2.069 -0.3240 -0.5629 -0.7050
 8859TIP3    H148068   1.668   4.464   2.128 -0.4042  1.5963  0.0199
 8859TIP3    H248069   1.583   4.395   2.023  0.3878 -2.0158  1.5898
 8860TIP3   OH248070   2.077   1.138  12.079 -0.0728 -0.5483 -0.6810
 8860TIP3    H148071   2.051   1.085  12.004  0.4899 -0.1337 -1.1818
 8860TIP3    H248072   2.161   1.102  12.106 -1.7801 -2.9711  1.9782
 8861TIP3   OH248073   6.527   5.397  16.587 -0.2025  0.1659 -0.0656
 8861TIP3    H148074   6.538   5.492  16.590  1.6320 -0.0225  0.4417
 8861TIP3    H248075   6.446   5.384  16.538 -0.9499  2.0029  0.5799
 8862TIP3   OH248076   6.803   0.607   2.166  0.0493 -0.3827  0.5308
 8862TIP3    H148077   6.824   0.527   2.117  0.9569 -0.4518  1.0071
 8862TIP3    H248078   6.734   0.649   2.115  1.6207  0.0460 -1.3687
 8863TIP3   OH248079   2.263   2.759  11.181  0.1098 -0.0938 -0.1147
 8863TIP3    H148080   2.198   2.765  11.111 -0.1301  0.3997  0.1527
 8863TIP3    H248081   2.300   2.671  11.171  0.8806  0.3612 -1.5707
 8864TIP3   OH248082   6.657   2.611  13.299  0.1768 -0.5850 -0.8661
 8864TIP3    H148083   6.585   2.650  13.348 -0.7762 -2.7208 -0.4282
 8864TIP3    H248084   6.707   2.685  13.265  0.4723  1.0453  2.6759
 8865TIP3   OH248085   2.167   2.339   2.877 -0.1203 -0.0139 -0.0388
 8865TIP3    H148086   2.172   2.275   2.806 -0.8430  0.5305 -0.5930
 8865TIP3    H248087   2.114   2.411   2.841  2.3335  1.8594 -0.1717
 8866TIP3   OH248088   2.352   1.655  11.865  0.1569  0.6737 -0.4648
 8866TIP3    H148089   2.435   1.668  11.820  1.9797 -0.4080  2.2889
 8866TIP3    H248090   2.319   1.571  11.832  1.2933  0.0448 -0.0524
 8867TIP3   OH248091   0.959   4.210  13.682  0.2368 -0.2444 -0.5549
 8867TIP3    H148092   1.029   4.156  13.645  0.6783 -0.8344  1.0887
 8867TIP3    H248093   0.986   4.227  13.772  0.5466  3.4874 -1.1901
 8868TIP3   OH248094   1.865   5.568  16.968  0.2519 -0.0693 -0.2850
 8868TIP3    H148095   1.800   5.536  16.904 -1.7079  0.7365  1.2018
 8868TIP3    H248096   1.876   5.496  17.029  1.1271 -0.3564 -0.7591
 8869TIP3   OH248097   0.922   0.161   1.974  0.1466  0.1907 -0.0438
 8869TIP3    H148098   0.904   0.254   1.987  1.1167  0.1588  1.9598
 8869TIP3    H248099   0.988   0.140   2.040  0.1650 -1.8698 -0.6387
 8870TIP3   OH248100   4.438   4.511  12.526 -0.1029  0.1556  0.4131
 8870TIP3    H148101   4.517   4.458  12.538 -0.8202 -0.9724  0.3187
 8870TIP3    H248102   4.385   4.462  12.463 -1.1632  0.5560  0.9574
 8871TIP3   OH248103   3.230   3.250   5.260 -0.2337 -0.1668 -0.5962
 8871TIP3    H148104   3.267   3.239   5.347 -2.6684  0.1665  0.5714
 8871TIP3    H248105   3.207   3.343   5.255  0.8786  0.0634 -2.0687
 8872TIP3   OH248106   6.047   2.376   4.786 -0.5246  0.1676  0.2428
 8872TIP3    H148107   6.136   2.375   4.751 -0.3874  0.8773  0.5571
 8872TIP3    H248108   6.029   2.285   4.809  1.3556  0.4203  3.2296
 8873TIP3   OH248109   5.035   2.008  12.928 -0.0672  0.1297  0.5057
 8873TIP3    H148110   4.975   1.996  13.002 -0.5535 -0.2828  0.0431
 8873TIP3    H248111   5.002   1.950  12.860  0.8422 -0.0861  0.2318
 8874TIP3   OH248112   3.409   5.756  16.221  0.3381  0.4246  0.3442
 8874TIP3    H148113   3.394   5.662  16.233 -1.4050  0.7098  0.7936
 8874TIP3    H248114   3.487   5.776  16.272  0.9013 -0.8384 -0.0137
 8875TIP3   OH248115   0.324   5.958  14.396 -0.3401  0.9606 -0.6340
 8875TIP3    H148116   0.247   5.979  14.342  0.9668  3.2151 -1.8068
 8875TIP3    H248117   0.313   6.010  14.475  0.1168  1.5849 -0.9689
 8876TIP3   OH248118   3.176   5.187   0.968  0.2415 -0.2961 -0.3181
 8876TIP3    H148119   3.223   5.270   0.968  1.7945 -1.1317  0.4938
 8876TIP3    H248120   3.088   5.209   0.938  0.5287  1.6837  0.1631
 8877TIP3   OH248121   6.757   0.997  17.007  0.1307 -0.1474  0.0901
 8877TIP3    H148122   6.804   1.071  16.969 -0.7146 -0.2707 -1.2584
 8877TIP3    H248123   6.670   1.000  16.967 -0.1873 -1.4041  0.6182
 8878TIP3   OH248124   0.076   2.018  11.849 -0.2785 -0.1030  0.1463
 8878TIP3    H148125   0.123   1.939  11.825  3.8649  2.3305 -0.7905
 8878TIP3    H248126   0.040   2.051  11.767  1.3150  0.8332 -0.2137
 8879TIP3   OH248127   5.217   0.776  12.867 -0.0525 -0.1345 -0.4163
 8879TIP3    H148128   5.169   0.827  12.932  2.0521  0.3499  0.8422
 8879TIP3    H248129   5.160   0.776  12.790 -1.1725  2.0987  0.3271
 8880TIP3   OH248130   3.515   4.013   5.448 -0.4070 -0.6615  0.5833
 8880TIP3    H148131   3.426   3.988   5.473 -0.2804 -3.0278 -1.0004
 8880TIP3    H248132   3.503   4.094   5.397 -1.5873 -0.6376  0.8637
 8881TIP3   OH248133   0.935   0.151   2.385 -0.5350  0.4328  0.2085
 8881TIP3    H148134   0.925   0.081   2.449  1.5066 -1.4996 -1.4189
 8881TIP3    H248135   0.859   0.144   2.328 -0.6721 -0.0211  0.4473
 8882TIP3   OH248136   4.916   2.438  14.093 -0.1042  0.1856  0.0041
 8882TIP3    H148137   4.859   2.425  14.169 -0.3758 -0.0626 -0.2368
 8882TIP3    H248138   4.860   2.481  14.029  0.1037  0.3303 -0.0800
 8883TIP3   OH248139   5.833   2.945   1.614  0.2256 -0.1382  0.0327
 8883TIP3    H148140   5.814   2.940   1.707  0.2497  1.4330  0.1555
 8883TIP3    H248141   5.852   2.855   1.588 -1.4069 -0.8631  1.1750
 8884TIP3   OH248142   3.354   4.639  17.029 -0.0624  0.4605 -0.2227
 8884TIP3    H148143   3.341   4.581  16.954 -1.7321 -0.0416  0.4221
 8884TIP3    H248144   3.341   4.583  17.106  0.0120  1.3252  0.4330
 8885TIP3   OH248145   1.868   4.419   4.488 -0.2589  0.2865  0.1493
 8885TIP3    H148146   1.914   4.495   4.454 -0.4709  0.1593 -0.4480
 8885TIP3    H248147   1.860   4.435   4.582  1.0271  0.2878  0.2767
 8886TIP3   OH248148   0.261   2.553   3.031 -0.1683 -0.3011 -0.4545
 8886TIP3    H148149   0.186   2.525   3.084 -1.1857  0.5787 -1.3812
 8886TIP3    H248150   0.295   2.473   2.992  0.0338 -0.8442  0.7901
 8887TIP3   OH248151   6.634   6.221  13.174 -0.0066  0.8211 -0.4059
 8887TIP3    H148152   6.670   6.282  13.110  2.1014  1.1543  1.0322
 8887TIP3    H248153   6.698   6.150  13.179 -2.4469 -1.7095 -2.1415
 8888TIP3   OH248154   3.821   3.396  14.655  0.5036  0.3852 -0.8021
 8888TIP3    H148155   3.765   3.468  14.683  1.0990 -0.0855  1.8331
 8888TIP3    H248156   3.894   3.439  14.610 -0.0331  1.2752 -0.8448
 8889TIP3   OH248157   0.375   4.886   0.449 -0.9346  0.5306  0.7431
 8889TIP3    H148158   0.443   4.820   0.442  0.3358  1.9235 -1.1815
 8889TIP3    H248159   0.419   4.963   0.485 -1.7357  1.1424  0.4456
 8890TIP3   OH248160   5.512   0.658   1.895 -0.5979 -0.9671  0.1712
 8890TIP3    H148161   5.573   0.584   1.889  1.0787  0.3813 -0.2121
 8890TIP3    H248162   5.486   0.675   1.805  0.5128  0.0645  0.0235
 8891TIP3   OH248163   6.507   5.575  14.281  0.2016 -0.2968 -0.1392
 8891TIP3    H148164   6.473   5.555  14.194  1.5120  1.0709 -1.0229
 8891TIP3    H248165   6.523   5.489  14.321 -0.4615 -0.9503 -1.2311
 8892TIP3   OH248166   4.962   4.352  16.695 -0.1170  0.6437 -0.0974
 8892TIP3    H148167   4.962   4.257  16.691 -0.6297  0.4948  2.2317
 8892TIP3    H248168   4.870   4.376  16.694 -0.0455  1.4220 -3.9973
 8893TIP3   OH248169   1.710   1.187  13.156 -0.2213 -0.0676  0.2873
 8893TIP3    H148170   1.713   1.159  13.247  0.8079 -1.9048 -0.2648
 8893TIP3    H248171   1.634   1.144  13.119 -0.2870  0.1839  0.1236
 8894TIP3   OH248172   6.019   3.320   1.345 -0.4597  0.2251  0.0408
 8894TIP3    H148173   6.021   3.280   1.258 -1.0472 -0.4959  0.3496
 8894TIP3    H248174   5.931   3.301   1.378 -0.4695  1.0835  0.5198
 8895TIP3   OH248175   1.439   2.949   6.141  0.2608 -0.3651 -0.6234
 8895TIP3    H148176   1.353   2.937   6.101  0.6581 -0.8341 -1.3703
 8895TIP3    H248177   1.499   2.958   6.066  1.3135 -3.1418 -0.2529
 8896TIP3   OH248178   0.829   5.665   3.690  0.5164  0.0193  0.0093
 8896TIP3    H148179   0.807   5.606   3.763  0.3978 -0.6695 -0.5697
 8896TIP3    H248180   0.782   5.746   3.709  0.4578 -0.1703  0.6798
 8897TIP3   OH248181   4.813   4.719   3.117  0.3037 -0.1195  0.1689
 8897TIP3    H148182   4.842   4.636   3.080  0.2356 -0.1070  0.0843
 8897TIP3    H248183   4.892   4.772   3.123  0.3212 -0.1334  0.0697
 8898TIP3   OH248184   2.197   5.396   4.746 -0.1269 -0.4091 -0.0576
 8898TIP3    H148185   2.180   5.352   4.663  0.1545 -0.2902 -0.1809
 8898TIP3    H248186   2.201   5.324   4.810 -0.8612 -0.4533 -0.0578
 8899TIP3   OH248187   2.144   2.709  16.084 -0.1329  0.7447  0.2642
 8899TIP3    H148188   2.180   2.762  16.013 -1.5072  0.5982 -0.5689
 8899TIP3    H248189   2.104   2.773  16.143  0.2831  0.8056  0.4819
 8900TIP3   OH248190   2.416   1.975   3.876 -0.7253 -0.6059 -0.1363
 8900TIP3    H148191   2.452   2.055   3.839  0.0464 -1.3695 -1.0690
 8900TIP3    H248192   2.322   1.992   3.883 -0.9448 -0.4553 -2.5899
 8901TIP3   OH248193   0.466   6.479  17.290  0.3037 -0.7469  0.3528
 8901TIP3    H148194   0.553   6.517  17.305  0.1048  0.0003 -0.3185
 8901TIP3    H248195   0.437   6.452  17.377  1.2927 -1.1989  0.5613
 8902TIP3   OH248196   3.405   3.156  12.347 -0.6183 -0.2863 -0.4530
 8902TIP3    H148197   3.397   3.223  12.278  0.5936 -0.6914 -1.0089
 8902TIP3    H248198   3.412   3.206  12.428  2.5829  0.4271 -1.0440
 8903TIP3   OH248199   4.342   6.808  15.462 -0.2475  0.0491  0.1589
 8903TIP3    H148200   4.299   6.800  15.377  1.1470 -1.4720 -0.4540
 8903TIP3    H248201   4.418   6.864  15.445  1.3819 -2.1503 -0.2167
 8904TIP3   OH248202   5.521   1.083  12.757 -0.3040  0.1673 -0.8077
 8904TIP3    H148203   5.495   1.009  12.812  0.4430 -0.8294 -1.7600
 8904TIP3    H248204   5.464   1.155  12.785 -2.3248 -1.2333 -1.0892
 8905TIP3   OH248205   2.647   6.380  15.368 -0.0406 -0.7181  0.4528
 8905TIP3    H148206   2.729   6.362  15.322  0.5378  4.5012 -1.1961
 8905TIP3    H248207   2.581   6.383  15.299 -0.1494  2.0886  0.5806
 8906TIP3   OH248208   5.558   6.575  15.348  0.5803  0.4388 -0.2847
 8906TIP3    H148209   5.486   6.542  15.293  1.6689  0.7720 -1.9953
 8906TIP3    H248210   5.547   6.670  15.346 -0.9266  0.4115  2.3635
 8907TIP3   OH248211   0.066   1.479   6.118  0.6992  0.0018  0.0655
 8907TIP3    H148212   0.100   1.477   6.207  2.1160 -0.6020 -0.4605
 8907TIP3    H248213   0.011   1.558   6.115 -0.2816 -0.5612  1.7670
 8908TIP3   OH248214   1.409   4.341  14.130 -0.3867  0.0747  0.0069
 8908TIP3    H148215   1.421   4.283  14.055 -1.2149 -0.6922  0.4554
 8908TIP3    H248216   1.431   4.287  14.206  0.6272  0.8993  0.3196
 8909TIP3   OH248217   5.579   0.986   3.789  0.0636  0.8104 -0.0512
 8909TIP3    H148218   5.525   1.057   3.753 -2.0113 -1.4336 -1.7222
 8909TIP3    H248219   5.549   0.978   3.880 -2.2802 -0.0821 -0.8120
 8910TIP3   OH248220   2.882   1.964   4.574 -0.0077  0.1212 -0.0567
 8910TIP3    H148221   2.796   1.975   4.534 -0.7372 -1.6323  0.8987
 8910TIP3    H248222   2.917   2.052   4.580 -2.0057  0.9643  0.0636
 8911TIP3   OH248223   0.845   6.437  16.743  0.1347 -0.0452  0.6080
 8911TIP3    H148224   0.940   6.443  16.734  0.1851 -0.9516  0.4515
 8911TIP3    H248225   0.814   6.527  16.728  0.8310 -0.0440 -0.9849
 8912TIP3   OH248226   6.138   5.880  14.012  0.3721  0.1036 -0.3793
 8912TIP3    H148227   6.095   5.905  14.094 -0.4996 -1.5289 -0.2962
 8912TIP3    H248228   6.134   5.785  14.011 -0.2188  0.0905 -2.6043
 8913TIP3   OH248229   5.348   4.324  15.251  0.2250  0.4151  0.5061
 8913TIP3    H148230   5.287   4.334  15.324 -0.2370  2.4944 -0.1118
 8913TIP3    H248231   5.429   4.294  15.292 -0.4899 -0.0696  1.6333
 8914TIP3   OH248232   3.530   1.965  15.933 -0.3780  0.6468 -0.0053
 8914TIP3    H148233   3.531   1.869  15.931 -1.3914  0.5986  1.0090
 8914TIP3    H248234   3.622   1.989  15.949 -0.4899 -0.2747  2.5685
 8915TIP3   OH248235   4.563   6.759   6.573  0.2709 -0.4550 -0.4285
 8915TIP3    H148236   4.488   6.772   6.631 -1.2197  0.2089 -2.4037
 8915TIP3    H248237   4.615   6.839   6.583 -1.7920  1.2859 -2.4543
 8916TIP3   OH248238   4.870   0.671  14.939 -0.4542 -0.4008  0.0787
 8916TIP3    H148239   4.817   0.713  14.871 -1.5355 -0.2039  1.0201
 8916TIP3    H248240   4.931   0.740  14.967 -0.0494 -0.4603 -0.6161
 8917TIP3   OH248241   3.313   2.986  13.505 -0.6427 -0.1368  0.1065
 8917TIP3    H148242   3.349   2.904  13.538  0.0638 -0.7264 -1.9587
 8917TIP3    H248243   3.298   2.970  13.412  0.9657  2.5060 -0.7263
 8918TIP3   OH248244   3.442   2.408   6.339 -0.0445  0.6322  0.2395
 8918TIP3    H148245   3.379   2.384   6.407  0.1776  0.2141  0.2987
 8918TIP3    H248246   3.514   2.450   6.387 -0.2628  1.0920  0.1737
 8919TIP3   OH248247   3.584   3.406  15.942 -0.6276 -0.5027  0.5004
 8919TIP3    H148248   3.543   3.486  15.977 -2.3781  0.6517 -3.5827
 8919TIP3    H248249   3.678   3.423  15.947 -0.9456  1.8445 -0.1002
 8920TIP3   OH248250   6.632   5.149   4.255 -0.2345 -0.0332  0.0119
 8920TIP3    H148251   6.683   5.079   4.214 -0.0972 -0.5366  1.0076
 8920TIP3    H248252   6.670   5.229   4.221  0.4320 -0.4289 -0.1943
 8921TIP3   OH248253   1.362   2.490   1.705  0.2999 -0.3522 -0.3613
 8921TIP3    H148254   1.386   2.454   1.620  0.3137  2.5726 -1.7097
 8921TIP3    H248255   1.441   2.478   1.759  1.5354  0.7778 -1.8403
 8922TIP3   OH248256   1.350   6.660   2.351 -0.2357 -0.6009  0.2465
 8922TIP3    H148257   1.350   6.678   2.257 -0.6274  0.2442  0.3983
 8922TIP3    H248258   1.258   6.646   2.372 -1.0476  4.4235  1.3972
 8923TIP3   OH248259   2.785   1.334  13.697 -0.4514 -0.3053  0.2166
 8923TIP3    H148260   2.855   1.308  13.757  0.0073  0.7327  0.1484
 8923TIP3    H248261   2.768   1.256  13.645 -0.8571 -1.2415  1.6713
 8924TIP3   OH248262   6.236   2.439   5.237 -0.0254  0.2335  0.3299
 8924TIP3    H148263   6.223   2.373   5.169 -0.3886  0.2518  0.3767
 8924TIP3    H248264   6.152   2.486   5.241  0.4915  1.2545 -0.2958
 8925TIP3   OH248265   4.654   4.087   5.766 -0.1165 -0.1050 -0.2134
 8925TIP3    H148266   4.576   4.043   5.732  0.4329 -0.3994 -1.1169
 8925TIP3    H248267   4.658   4.061   5.858 -0.6101 -0.7793 -0.3758
 8926TIP3   OH248268   2.617   2.663  12.239  0.2111 -0.2236  0.2886
 8926TIP3    H148269   2.564   2.616  12.304  0.4278  3.1628  3.2068
 8926TIP3    H248270   2.682   2.599  12.210 -0.8260 -2.3164  2.2802
 8927TIP3   OH248271   2.038   6.080   3.812  0.3714  0.2364 -0.2932
 8927TIP3    H148272   2.093   6.111   3.740  0.2814  0.0218 -0.4559
 8927TIP3    H248273   2.064   5.989   3.825 -0.8987 -0.3157 -1.3132
 8928TIP3   OH248274   6.598   6.356  14.951 -0.1886  0.4897  0.3048
 8928TIP3    H148275   6.546   6.290  14.906  1.6685 -1.1324  0.4562
 8928TIP3    H248276   6.627   6.313  15.032  0.6136  1.6804  0.6796
 8929TIP3   OH248277   5.895   4.626   1.371 -1.1662  0.0647  0.2222
 8929TIP3    H148278   5.912   4.715   1.402 -0.9075 -0.0059  0.2766
 8929TIP3    H248279   5.816   4.635   1.317 -2.4103 -0.0215  1.9291
 8930TIP3   OH248280   1.022   2.453  14.735  0.5540 -0.5713  0.7211
 8930TIP3    H148281   1.031   2.368  14.693 -1.3844 -1.0957  1.2836
 8930TIP3    H248282   0.980   2.508  14.669  0.3141 -0.5125  0.9237
 8931TIP3   OH248283   2.440   6.298  15.217 -0.1830 -0.2087  1.0183
 8931TIP3    H148284   2.383   6.226  15.192 -1.6436  0.9160  0.9277
 8931TIP3    H248285   2.449   6.350  15.137  1.8669 -0.8918  0.7432
 8932TIP3   OH248286   2.425   3.644   6.179  0.1751  0.6932  0.3588
 8932TIP3    H148287   2.385   3.728   6.157 -2.1598  0.2068  2.3274
 8932TIP3    H248288   2.437   3.601   6.095 -0.5190  2.1847 -0.5491
 8933TIP3   OH248289   6.504   3.713  16.687  0.5295 -0.1914  0.4598
 8933TIP3    H148290   6.428   3.666  16.654 -0.2974  1.3631  0.0389
 8933TIP3    H248291   6.472   3.757  16.766  0.1838  2.4354 -0.9911
 8934TIP3   OH248292   3.022   1.750  12.845  0.0515 -0.2803 -0.1675
 8934TIP3    H148293   3.103   1.700  12.834  0.0271 -0.0648 -1.5234
 8934TIP3    H248294   2.971   1.699  12.908  1.2981 -0.3219  0.8573
 8935TIP3   OH248295   5.021   1.933   4.303  0.2304 -0.2939 -0.5355
 8935TIP3    H148296   4.985   1.913   4.216 -1.3439 -1.4430  0.3401
 8935TIP3    H248297   4.951   1.980   4.348  0.2620 -1.4188  0.7587
 8936TIP3   OH248298   6.773   5.692   1.578 -0.0497  0.3818  0.9609
 8936TIP3    H148299   6.730   5.701   1.663 -2.1559 -0.2839  0.0278
 8936TIP3    H248300   6.707   5.719   1.515  1.1410 -0.0759 -0.5257
 8937TIP3   OH248301   4.262   5.189  16.061 -0.4240  0.9666  0.1022
 8937TIP3    H148302   4.197   5.191  15.990 -1.5371 -1.8211  0.9503
 8937TIP3    H248303   4.211   5.204  16.141 -0.4514 -2.7977  0.9485
 8938TIP3   OH248304   4.982   2.692  14.317 -0.3216  0.2147  1.0248
 8938TIP3    H148305   5.000   2.598  14.325 -1.7818 -0.1079  0.7455
 8938TIP3    H248306   5.010   2.715  14.229 -0.6030 -0.1180  0.8480
 8939TIP3   OH248307   0.938   1.924  14.579  0.1194  0.1067 -0.2279
 8939TIP3    H148308   0.955   1.885  14.665  1.6494  0.7328 -0.2148
 8939TIP3    H248309   0.962   1.856  14.516  1.0119  0.3597 -0.1753
 8940TIP3   OH248310   5.296   6.714   1.166  0.2160  0.2226  0.1492
 8940TIP3    H148311   5.249   6.673   1.239  0.8034 -1.2253 -0.2536
 8940TIP3    H248312   5.387   6.718   1.196  0.1732  1.2119  0.1606
 8941TIP3   OH248313   1.411   2.795   4.284 -0.4266  0.0036  0.1078
 8941TIP3    H148314   1.378   2.856   4.218  1.3252  1.0908  0.1930
 8941TIP3    H248315   1.405   2.709   4.241  1.9754  0.8073 -2.1133
 8942TIP3   OH248316   4.674   6.689  12.857  0.3857 -0.0491  0.0126
 8942TIP3    H148317   4.612   6.697  12.929 -1.2070 -1.0337 -1.1957
 8942TIP3    H248318   4.672   6.774  12.814 -0.6804 -0.2767 -0.4197
 8943TIP3   OH248319   1.107   6.581  13.722 -0.3988 -0.6596 -0.6936
 8943TIP3    H148320   1.105   6.485  13.716  1.3681 -0.6500 -3.2697
 8943TIP3    H248321   1.037   6.610  13.665  0.0674 -0.4558 -1.1751
 8944TIP3   OH248322   2.491   5.447   5.995  0.5305  0.0956 -0.4126
 8944TIP3    H148323   2.474   5.481   5.907  0.1288 -0.5819 -0.6038
 8944TIP3    H248324   2.485   5.352   5.986 -1.8468  0.0487  0.7979
 8945TIP3   OH248325   2.101   4.489   1.595 -0.7232  0.5808  0.4879
 8945TIP3    H148326   2.131   4.472   1.506 -0.9442  1.8163  0.1471
 8945TIP3    H248327   2.113   4.407   1.641  0.0510  0.1166 -0.5040
 8946TIP3   OH248328   2.833   0.815   4.034 -1.0615  0.0541  0.4509
 8946TIP3    H148329   2.876   0.834   4.117 -2.1028  1.1925  0.7746
 8946TIP3    H248330   2.889   0.751   3.991  0.6370  1.0605  1.0766
 8947TIP3   OH248331   2.287   2.365   4.299 -0.2051 -0.0567  0.2679
 8947TIP3    H148332   2.246   2.336   4.217  1.3265  1.9637 -1.3503
 8947TIP3    H248333   2.213   2.378   4.359 -1.5553 -0.1993 -1.2761
 8948TIP3   OH248334   6.438   5.848  11.541 -0.1202  0.8116  0.0842
 8948TIP3    H148335   6.457   5.840  11.448 -0.3402  0.4704  0.0653
 8948TIP3    H248336   6.506   5.796  11.584 -1.2723 -0.8484 -0.0103
 8949TIP3   OH248337   2.104   0.640   1.905 -0.1395 -0.3603 -0.1692
 8949TIP3    H148338   2.198   0.643   1.887  0.1619  0.0396  1.3080
 8949TIP3    H248339   2.082   0.729   1.932 -0.7490 -0.6632  0.3490
 8950TIP3   OH248340   3.708   5.623   4.773 -0.8772 -0.3214 -0.0485
 8950TIP3    H148341   3.764   5.553   4.741 -0.5972 -0.2706  0.3195
 8950TIP3    H248342   3.691   5.678   4.697  1.0704  0.6829  0.1701
 8951TIP3   OH248343   6.556   0.647  14.240  0.1916  0.0677 -0.0263
 8951TIP3    H148344   6.575   0.713  14.173  0.4179 -1.5607 -1.6364
 8951TIP3    H248345   6.614   0.575  14.219  0.0481 -0.6192  1.7851
 8952TIP3   OH248346   0.810   3.934  17.197 -0.2931  0.6806  0.3290
 8952TIP3    H148347   0.852   4.019  17.185  1.0618  0.0267  0.2729
 8952TIP3    H248348   0.723   3.955  17.231  0.6975  2.0270  2.2171
 8953TIP3   OH248349   1.336   5.164   6.219 -0.4860  0.1664 -0.0688
 8953TIP3    H148350   1.252   5.170   6.265 -0.1051 -1.3328  0.8976
 8953TIP3    H248351   1.396   5.128   6.284  0.6650  0.2455 -1.0539
 8954TIP3   OH248352   1.404   1.197  15.718  0.4041 -0.3447 -0.0569
 8954TIP3    H148353   1.314   1.218  15.742  1.1731  1.6424  1.2940
 8954TIP3    H248354   1.433   1.271  15.665  1.2913 -0.9169 -0.4047
 8955TIP3   OH248355   0.186   2.738   0.438 -0.0353  0.3285  0.0842
 8955TIP3    H148356   0.240   2.664   0.409  1.0407  1.8561 -2.1565
 8955TIP3    H248357   0.096   2.709   0.426  0.3791 -0.5107 -1.1369
 8956TIP3   OH248358   5.998   1.724  11.746 -0.5329 -0.0028  0.6062
 8956TIP3    H148359   5.967   1.634  11.749  0.2139 -0.4102 -1.9958
 8956TIP3    H248360   6.069   1.727  11.810  1.3238 -2.0892 -1.2152
 8957TIP3   OH248361   3.087   5.134  15.860  0.3599  0.4689 -0.1673
 8957TIP3    H148362   3.029   5.068  15.824 -1.7991 -1.2818  5.5235
 8957TIP3    H248363   3.037   5.215  15.856 -1.7296 -0.5474  2.3713
 8958TIP3   OH248364   3.079   5.312  16.892  0.4634 -0.8613 -0.5920
 8958TIP3    H148365   3.109   5.356  16.972  0.9563 -1.4896 -0.4238
 8958TIP3    H248366   3.160   5.291  16.845  0.1895 -0.7811 -1.1105
 8959TIP3   OH248367   5.434   6.437  12.147  0.7906 -0.2290  0.4139
 8959TIP3    H148368   5.345   6.443  12.111  1.1139 -3.7769 -1.4368
 8959TIP3    H248369   5.480   6.512  12.109 -0.5831 -0.2678 -1.5148
 8960TIP3   OH248370   1.469   1.159  13.027  0.0880 -0.0925  0.2268
 8960TIP3    H148371   1.469   1.238  12.972 -0.3659 -1.4251 -1.8323
 8960TIP3    H248372   1.431   1.092  12.971  0.4566 -1.7887  1.9164
 8961TIP3   OH248373   2.808   0.135   2.273  0.6040 -0.5113  0.1655
 8961TIP3    H148374   2.823   0.075   2.201  2.8199 -1.0124  0.9525
 8961TIP3    H248375   2.863   0.102   2.344 -0.4345  0.7467  1.6321
 8962TIP3   OH248376   5.366   5.033   1.537  0.3146 -0.3031 -0.4053
 8962TIP3    H148377   5.350   5.091   1.463  0.8037  0.0526 -0.2361
 8962TIP3    H248378   5.441   5.071   1.582 -0.2719 -0.2516  0.5537
 8963TIP3   OH248379   1.961   2.609   1.776  0.0345 -0.0391 -0.1024
 8963TIP3    H148380   2.028   2.661   1.822  0.6960 -0.6338 -0.3683
 8963TIP3    H248381   2.011   2.538   1.735 -0.8315 -0.7485  0.0630
 8964TIP3   OH248382   6.233   5.192   3.912  0.4093 -0.1434  0.0735
 8964TIP3    H148383   6.291   5.198   3.988  0.7359  1.0398 -0.2396
 8964TIP3    H248384   6.276   5.130   3.853  0.6417 -0.3393  0.4478
 8965TIP3   OH248385   3.366   4.552   4.107  0.0990  0.1758  0.3549
 8965TIP3    H148386   3.303   4.598   4.052  0.2087 -1.2349 -1.0144
 8965TIP3    H248387   3.441   4.612   4.114  0.6748 -0.1279 -2.2616
 8966TIP3   OH248388   6.536   5.345   6.158  0.2016 -0.3373  0.5318
 8966TIP3    H148389   6.533   5.265   6.106  0.4907  0.4922 -0.7877
 8966TIP3    H248390   6.533   5.314   6.249 -4.5074 -1.6926  0.1484
 8967TIP3   OH248391   5.033   0.547  13.373 -0.4406 -0.1952  0.2487
 8967TIP3    H148392   4.998   0.521  13.458 -1.2414  0.6816  0.2090
 8967TIP3    H248393   5.120   0.509  13.370 -1.8762 -3.7672 -0.2694
 8968TIP3   OH248394   4.869   3.230  16.095 -0.2759 -0.3829  0.0280
 8968TIP3    H148395   4.919   3.148  16.092 -0.0917 -0.2454 -0.7678
 8968TIP3    H248396   4.781   3.205  16.067 -0.1407 -0.2559 -0.5195
 8969TIP3   OH248397   6.687   2.370   1.539 -0.0537  0.4342  0.5643
 8969TIP3    H148398   6.611   2.373   1.481  0.2770  0.8783  0.1516
 8969TIP3    H248399   6.696   2.277   1.561 -0.0908  0.2402 -0.2170
 8970TIP3   OH248400   6.117   3.067  13.848 -0.1087 -0.1241 -0.5429
 8970TIP3    H148401   6.082   3.027  13.928  0.2768 -2.6167 -1.5307
 8970TIP3    H248402   6.201   3.104  13.875 -0.4875  0.0795  0.4245
 8971TIP3   OH248403   1.927   4.922   1.645  0.7172 -0.0751 -0.4129
 8971TIP3    H148404   1.880   4.843   1.617 -0.2671  0.1853  0.4295
 8971TIP3    H248405   2.019   4.899   1.639  0.4372 -1.3837  0.0881
 8972TIP3   OH248406   3.287   0.981   5.352 -0.3240  0.5869  0.0986
 8972TIP3    H148407   3.201   0.973   5.310  0.3395 -1.2935 -0.9822
 8972TIP3    H248408   3.339   1.032   5.291  0.1673 -0.7853 -0.6632
 8973TIP3   OH248409   2.679   0.991   3.445  0.1262 -1.1663  0.2085
 8973TIP3    H148410   2.748   0.942   3.489 -0.0342 -1.6364 -0.0554
 8973TIP3    H248411   2.603   0.981   3.503 -0.1348 -1.9356 -0.2436
 8974TIP3   OH248412   2.020   4.637   4.809  0.1882 -0.1404  0.5852
 8974TIP3    H148413   2.072   4.579   4.755 -0.4611 -0.8587  0.7182
 8974TIP3    H248414   2.080   4.668   4.877  1.3347  1.6700 -1.1493
 8975TIP3   OH248415   3.432   3.176  16.717  0.3064 -0.2122 -0.4535
 8975TIP3    H148416   3.490   3.101  16.709 -0.8125 -1.4840  2.0602
 8975TIP3    H248417   3.488   3.245  16.754  0.4795 -1.1584  1.1544
 8976TIP3   OH248418   3.639   0.606   1.992 -0.1623 -0.0533 -0.6468
 8976TIP3    H148419   3.712   0.619   2.052 -1.3967  2.6551  0.4238
 8976TIP3    H248420   3.571   0.566   2.045  0.0037 -1.1831 -1.2589
 8977TIP3   OH248421   6.266   6.286   0.840  0.0225  0.5249  0.0041
 8977TIP3    H148422   6.351   6.244   0.853  0.1485  1.3584  2.5211
 8977TIP3    H248423   6.283   6.379   0.849 -1.1266  0.7139  0.5089
 8978TIP3   OH248424   5.873   1.639   2.750  0.4303 -0.1939  0.3844
 8978TIP3    H148425   5.862   1.664   2.658 -1.9772 -0.0153  0.6492
 8978TIP3    H248426   5.843   1.548   2.754  1.2694 -0.4579  0.8731
 8979TIP3   OH248427   4.946   1.500  11.527  0.7030  0.3820  0.0029
 8979TIP3    H148428   4.926   1.410  11.552  0.3576  0.1883 -0.9235
 8979TIP3    H248429   4.874   1.552  11.562  0.3609  0.1521 -0.3546
 8980TIP3   OH248430   1.990   4.136  13.283  0.4035 -0.0447  0.2323
 8980TIP3    H148431   1.993   4.200  13.212 -2.0426 -0.2685 -0.1290
 8980TIP3    H248432   2.042   4.177  13.353 -0.2900  1.9179 -0.3301
 8981TIP3   OH248433   4.579   5.365  16.780  0.3199  0.1388 -0.3555
 8981TIP3    H148434   4.523   5.440  16.799  2.7310  2.0472 -0.3321
 8981TIP3    H248435   4.597   5.372  16.686 -0.3008 -1.0737 -0.5814
 8982TIP3   OH248436   1.684   2.154  11.782  0.2874  0.2207 -0.9932
 8982TIP3    H148437   1.704   2.107  11.862  1.1654  2.6959  0.3624
 8982TIP3    H248438   1.612   2.212  11.806 -1.0066 -0.5854 -2.6871
 8983TIP3   OH248439   0.503   1.724   5.666 -0.1083  0.3886  0.4438
 8983TIP3    H148440   0.473   1.774   5.742 -2.6592 -1.1090  0.5819
 8983TIP3    H248441   0.453   1.642   5.671 -0.2771  0.1495 -2.7325
 8984TIP3   OH248442   0.288   4.570   1.859  0.4295 -0.5429  0.6270
 8984TIP3    H148443   0.342   4.500   1.824  0.0480 -0.0754 -0.9719
 8984TIP3    H248444   0.223   4.587   1.791  2.0839  3.1368 -0.2683
 8985TIP3   OH248445   3.060   1.105   0.732  0.6358  0.2631 -0.0833
 8985TIP3    H148446   3.082   1.029   0.678  0.8066 -0.7877  1.4035
 8985TIP3    H248447   3.009   1.069   0.805  0.2191  1.6595  0.3442
 8986TIP3   OH248448   1.509   5.908   5.040 -0.1638 -0.6648  0.1494
 8986TIP3    H148449   1.442   5.961   5.085  0.6341 -0.8270  1.5737
 8986TIP3    H248450   1.553   5.970   4.982 -0.6081 -0.2313  0.2661
 8987TIP3   OH248451   4.893   1.836   1.138  0.4715  0.1100  0.4621
 8987TIP3    H148452   4.957   1.899   1.106  1.4279  0.3116  2.5511
 8987TIP3    H248453   4.809   1.879   1.129  0.9571  1.0781  0.4753
 8988TIP3   OH248454   0.636   5.065  17.073  0.2763 -0.2548 -0.4594
 8988TIP3    H148455   0.625   5.130  17.003 -0.7820 -2.6428 -2.6475
 8988TIP3    H248456   0.549   5.028  17.084  1.3051 -3.1188 -1.2053
 8989TIP3   OH248457   0.350   5.589   1.257  0.6918  0.2100 -0.6054
 8989TIP3    H148458   0.379   5.497   1.252  0.4234  0.1447 -1.0145
 8989TIP3    H248459   0.255   5.584   1.254  0.6770  0.5776 -2.5247
 8990TIP3   OH248460   1.869   6.746  16.481 -0.3444 -0.4102  0.0442
 8990TIP3    H148461   1.914   6.672  16.442  0.1147 -0.0224 -0.1701
 8990TIP3    H248462   1.921   6.822  16.456 -0.6585 -0.0416  0.4881
 8991TIP3   OH248463   1.141   0.411   2.368 -0.0931 -0.3806  0.8626
 8991TIP3    H148464   1.209   0.440   2.429 -0.3985  1.7750  0.2610
 8991TIP3    H248465   1.095   0.342   2.415 -0.0329  0.8890  2.9129
 8992TIP3   OH248466   3.184   5.687   0.720  0.6213 -0.4127  0.4417
 8992TIP3    H148467   3.258   5.724   0.673  0.9278 -1.1253  0.3455
 8992TIP3    H248468   3.199   5.592   0.717 -1.4407 -0.7436 -1.5103
 8993TIP3   OH248469   6.147   0.808   5.495  1.0449  0.2315 -0.1761
 8993TIP3    H148470   6.067   0.859   5.489 -0.2102 -1.7072 -0.6431
 8993TIP3    H248471   6.191   0.821   5.411  0.1644 -0.3207 -0.7348
 8994TIP3   OH248472   0.840   4.181  14.503 -0.1723 -0.0881  0.1528
 8994TIP3    H148473   0.782   4.225  14.565 -0.0503 -0.9883  0.9338
 8994TIP3    H248474   0.889   4.118  14.557  0.0860 -0.7458 -0.8285
 8995TIP3   OH248475   1.847   3.981   3.837  0.0725 -0.8884  0.1128
 8995TIP3    H148476   1.768   4.018   3.875  0.3119 -1.2117  0.9665
 8995TIP3    H248477   1.836   3.989   3.743 -2.0857 -3.1177  0.0712
 8996TIP3   OH248478   3.623   4.157  13.783  0.0103  0.2563 -0.1145
 8996TIP3    H148479   3.610   4.209  13.862  0.8441  0.7061 -0.2632
 8996TIP3    H248480   3.535   4.140  13.751 -0.2930  2.6166 -0.7206
 8997TIP3   OH248481   4.947   4.594   1.338  0.1482  0.3816  0.2206
 8997TIP3    H148482   4.867   4.580   1.389  0.1762 -0.3859  0.0634
 8997TIP3    H248483   5.018   4.565   1.395  0.4093  1.8546  0.6883
 8998TIP3   OH248484   1.794   6.691   1.948  0.1648  0.0239 -0.3348
 8998TIP3    H148485   1.705   6.666   1.925  0.6038 -0.3769 -1.7351
 8998TIP3    H248486   1.829   6.616   1.995 -0.9281  1.0695  2.3608
 8999TIP3   OH248487   0.450   3.715  16.147  0.1554 -0.5769  0.5871
 8999TIP3    H148488   0.474   3.705  16.239  1.0395  0.0222  0.4322
 8999TIP3    H248489   0.375   3.774  16.148  2.0397  2.0099  0.7795
 9000TIP3   OH248490   5.980   3.438   1.736  0.0939  0.2274 -0.4186
 9000TIP3    H148491   5.988   3.348   1.704  1.4342 -0.5623  1.8679
 9000TIP3    H248492   5.889   3.446   1.765 -0.5212  0.2391 -2.2561
 9001TIP3   OH248493   0.044   2.331  12.503  0.3883 -0.4452  0.4804
 9001TIP3    H148494  -0.017   2.306  12.434 -0.6268 -0.8195  1.4898
 9001TIP3    H248495   0.113   2.264  12.500  0.0251 -0.8127  0.2534
 9002TIP3   OH248496   2.782   3.184  16.719 -0.0239 -0.0544  0.3024
 9002TIP3    H148497   2.775   3.116  16.653 -0.1242  0.0285  0.2273
 9002TIP3    H248498   2.697   3.228  16.717  1.0143  2.1082 -1.8474
 9003TIP3   OH248499   1.297   5.177  15.470 -0.1542  0.2842  0.2392
 9003TIP3    H148500   1.247   5.161  15.390  0.9130 -1.9538 -0.0532
 9003TIP3    H248501   1.278   5.103  15.526  1.0311  0.5724  1.0587
 9004TIP3   OH248502   2.723   6.314   2.433 -0.0389 -0.1937  0.3476
 9004TIP3    H148503   2.774   6.365   2.496 -0.6654  3.7483 -1.9775
 9004TIP3    H248504   2.644   6.366   2.419 -1.9343 -3.0667 -0.6393
 9005TIP3   OH248505   3.050   4.297  16.024 -0.0197 -0.2182  0.0733
 9005TIP3    H148506   3.057   4.202  16.038 -1.3738 -0.1003  1.8178
 9005TIP3    H248507   3.008   4.305  15.938 -0.6828 -1.2106  0.2936
 9006TIP3   OH248508   5.504   6.626   4.139 -0.9441 -0.0398 -0.4479
 9006TIP3    H148509   5.567   6.695   4.122 -2.5778  1.6868  0.1814
 9006TIP3    H248510   5.521   6.599   4.229  0.3721 -1.2854 -1.0116
 9007TIP3   OH248511   1.196   6.730  11.069  0.2616  0.0109 -0.8283
 9007TIP3    H148512   1.160   6.642  11.055  1.2714 -0.6958  0.7942
 9007TIP3    H248513   1.204   6.766  10.981 -3.0673 -0.2844 -1.4121
 9008TIP3   OH248514   5.188   2.608   5.909 -0.2374 -0.3371  0.4677
 9008TIP3    H148515   5.256   2.575   5.967  0.6017  1.7495  0.7478
 9008TIP3    H248516   5.136   2.667   5.963  0.3172  1.3416 -0.7457
 9009TIP3   OH248517   3.413   6.379   3.338 -0.3457 -0.1136  0.3020
 9009TIP3    H148518   3.427   6.426   3.420 -2.4208  2.3866 -0.6184
 9009TIP3    H248519   3.437   6.443   3.270 -3.2946 -0.2406 -1.0231
 9010TIP3   OH248520   1.833   5.937   1.642  0.1774 -0.2738 -0.0102
 9010TIP3    H148521   1.750   5.945   1.689 -0.3682 -2.5482 -0.4343
 9010TIP3    H248522   1.894   5.993   1.690 -1.1260 -0.0878  1.4962
 9011TIP3   OH248523   2.606   3.557  14.103 -0.3847 -0.4621 -0.2616
 9011TIP3    H148524   2.570   3.636  14.063  0.2498 -0.4789 -0.8765
 9011TIP3    H248525   2.531   3.513  14.143 -0.5866  1.0424  1.1323
 9012TIP3   OH248526   1.219   2.611  11.790 -0.7352 -0.2249 -0.0679
 9012TIP3    H148527   1.216   2.613  11.695 -0.3028 -2.6315 -0.1844
 9012TIP3    H248528   1.153   2.547  11.815  0.7483 -1.3781  1.0930
 9013TIP3   OH248529   1.036   4.055   3.037  0.2194  0.4060  0.7648
 9013TIP3    H148530   0.953   4.089   3.068 -2.1785 -2.0795 -2.2001
 9013TIP3    H248531   1.032   3.961   3.056  1.4160 -0.0864 -1.1052
 9014TIP3   OH248532   1.043   4.616  15.869 -0.2659 -0.3754  0.6022
 9014TIP3    H148533   1.054   4.710  15.884  0.5556 -0.4745  0.7087
 9014TIP3    H248534   1.021   4.580  15.955  2.5568 -0.6841  1.3229
 9015TIP3   OH248535   1.026   1.615  13.301  0.5059  0.1847 -0.8578
 9015TIP3    H148536   1.122   1.606  13.297  0.6495  1.4369 -0.8052
 9015TIP3    H248537   0.993   1.529  13.276  1.6389  0.1888 -2.5861
 9016TIP3   OH248538   5.768   2.026   5.236 -0.3313 -0.1629 -0.3878
 9016TIP3    H148539   5.800   1.958   5.294  1.3731  0.5219 -0.4725
 9016TIP3    H248540   5.813   2.012   5.154 -0.2534  0.8116 -0.5313
 9017TIP3   OH248541   3.278   3.198   4.954  0.1960 -0.5132  0.1361
 9017TIP3    H148542   3.220   3.209   4.879  1.4343 -1.3173 -0.9981
 9017TIP3    H248543   3.354   3.254   4.933 -0.3994  1.0420  1.8934
 9018TIP3   OH248544   3.157   1.936   5.883  0.0273  0.2883  0.1601
 9018TIP3    H148545   3.141   1.994   5.957 -1.1838 -2.2487  2.0176
 9018TIP3    H248546   3.070   1.908   5.854  0.5583 -0.4908 -0.7826
 9019TIP3   OH248547   2.799   3.231  11.685  0.0893  0.1593 -0.2062
 9019TIP3    H148548   2.892   3.232  11.666  0.1375 -0.6181 -0.0352
 9019TIP3    H248549   2.760   3.283  11.614  0.5848 -0.0269 -0.6209
 9020TIP3   OH248550   0.181   4.988  13.505  0.0315 -0.3395 -0.3420
 9020TIP3    H148551   0.172   4.910  13.450 -0.2186 -0.8525  0.4183
 9020TIP3    H248552   0.134   5.056  13.456 -2.3780 -1.3692  0.3643
 9021TIP3   OH248553   4.584   5.680   5.853  0.1581 -0.1062  0.6448
 9021TIP3    H148554   4.499   5.637   5.844  0.0851  0.1552 -0.0086
 9021TIP3    H248555   4.647   5.608   5.859  0.2039 -0.4037 -1.9980
 9022TIP3   OH248556   5.628   5.525  13.068 -1.0908 -0.4548  0.1035
 9022TIP3    H148557   5.568   5.526  12.993  0.5611  0.2521 -1.2543
 9022TIP3    H248558   5.582   5.474  13.134 -2.6302 -1.0466 -1.3580
 9023TIP3   OH248559   5.917   4.144   2.088  0.0894 -0.1987 -0.3857
 9023TIP3    H148560   5.961   4.216   2.042 -0.0082 -0.2178 -0.5090
 9023TIP3    H248561   5.989   4.095   2.129  0.0227  1.8714  2.5601
 9024TIP3   OH248562   4.518   1.912   0.039  0.3100  0.4832  0.5780
 9024TIP3    H148563   4.526   1.979   0.108 -1.6084 -0.4126  1.7461
 9024TIP3    H248564   4.489   1.960  -0.038 -0.8411  1.0670  1.3411
 9025TIP3   OH248565   2.958   4.385  11.394  0.2683  0.0315  0.1188
 9025TIP3    H148566   2.913   4.387  11.310  1.1042  1.2990 -0.3223
 9025TIP3    H248567   2.895   4.424  11.455  0.5904  1.4832 -0.4286
 9026TIP3   OH248568   5.183   5.467   6.055 -0.8691  0.3098 -0.1652
 9026TIP3    H148569   5.211   5.526   6.125  0.2189  0.6977 -0.9028
 9026TIP3    H248570   5.211   5.380   6.085 -1.7361  0.2623  0.5459
 9027TIP3   OH248571   4.684   2.007   0.410 -0.0743  0.2923 -0.3270
 9027TIP3    H148572   4.741   2.069   0.456  0.3908  2.2849 -3.3130
 9027TIP3    H248573   4.597   2.049   0.414 -0.6058 -0.8420  0.8965
 9028TIP3   OH248574   0.605   1.911   5.485  0.5165  0.6742  0.5231
 9028TIP3    H148575   0.572   1.862   5.560 -2.0075  0.3296 -0.7159
 9028TIP3    H248576   0.556   1.876   5.410  3.8397  0.0611 -1.5817
 9029TIP3   OH248577   6.141   6.761  14.420 -0.0858  0.2167  0.2965
 9029TIP3    H148578   6.099   6.694  14.474 -1.3291  0.2961 -0.5174
 9029TIP3    H248579   6.068   6.811  14.384  0.6917  0.2298 -1.3520
 9030TIP3   OH248580   2.537   6.284  12.645 -0.3763 -0.3788  0.7577
 9030TIP3    H148581   2.577   6.201  12.620 -1.1720  0.0602 -2.3950
 9030TIP3    H248582   2.464   6.259  12.703  0.0056 -1.7595  0.6889
 9031TIP3   OH248583   2.241   3.190  12.173 -0.5202  0.0751  0.2059
 9031TIP3    H148584   2.284   3.250  12.233  0.0375 -1.0389  0.9699
 9031TIP3    H248585   2.266   3.103  12.205 -0.3417 -0.5536 -1.5501
 9032TIP3   OH248586   1.043   2.262   4.824 -0.5715  0.0724 -0.4088
 9032TIP3    H148587   1.049   2.250   4.918 -0.6870  0.4047 -0.3596
 9032TIP3    H248588   0.953   2.290   4.808 -1.2184 -2.0933 -0.8515
 9033TIP3   OH248589   3.201   4.013  14.002  0.4191 -0.1217 -0.0526
 9033TIP3    H148590   3.211   4.108  13.992 -0.7658 -0.1627 -2.4125
 9033TIP3    H248591   3.290   3.978  13.993  0.7333  0.7048 -0.2206
 9034TIP3   OH248592   1.546   4.490   2.501 -0.2256 -0.1919 -0.0243
 9034TIP3    H148593   1.641   4.499   2.506 -0.0890 -1.5663  0.2427
 9034TIP3    H248594   1.526   4.499   2.408  0.0494  1.0031  0.0163
 9035TIP3   OH248595   3.259   1.744  12.595 -0.1718 -0.6793 -0.1110
 9035TIP3    H148596   3.230   1.824  12.553 -0.1331 -1.0560 -0.8768
 9035TIP3    H248597   3.187   1.682  12.580 -0.6842 -0.5012  1.4041
 9036TIP3   OH248598   3.415   0.528   0.898 -0.8185  0.3892  0.1382
 9036TIP3    H148599   3.392   0.518   0.990 -0.5067  0.9237  0.2765
 9036TIP3    H248600   3.480   0.598   0.897 -1.6014  1.1231 -0.6063
 9037TIP3   OH248601   6.401   6.735  15.834 -0.9307  0.3561  0.0723
 9037TIP3    H148602   6.328   6.790  15.865 -0.1819  0.6772  1.3232
 9037TIP3    H248603   6.416   6.765  15.745  0.8571  3.8353  1.3309
 9038TIP3   OH248604   2.662   3.905   2.051  0.0949  0.2191 -0.2936
 9038TIP3    H148605   2.572   3.936   2.062  0.1006  0.5809 -1.2058
 9038TIP3    H248606   2.688   3.936   1.964  0.5617 -1.1974 -0.6944
 9039TIP3   OH248607   4.003   6.667  14.794 -0.1400 -0.6638 -0.2396
 9039TIP3    H148608   4.009   6.734  14.726 -3.0296 -0.8117 -0.7755
 9039TIP3    H248609   3.912   6.637  14.790  0.8090 -4.1075  0.4785
 9040TIP3   OH248610   3.774   4.469  13.826  0.4637  0.5491 -0.3140
 9040TIP3    H148611   3.774   4.373  13.820  0.7091  0.5188  0.1129
 9040TIP3    H248612   3.787   4.487  13.919  2.0663  1.0038 -0.5862
 9041TIP3   OH248613   4.374   5.389   3.808 -0.3121  0.2401  0.2274
 9041TIP3    H148614   4.351   5.480   3.789 -0.4905 -0.4398 -3.4468
 9041TIP3    H248615   4.438   5.395   3.879  1.4318  3.4524 -1.4150
 9042TIP3   OH248616   2.699   0.723  15.463  0.3374 -0.0808  0.0854
 9042TIP3    H148617   2.739   0.682  15.540  1.1867  0.2496 -0.1653
 9042TIP3    H248618   2.633   0.661  15.433  1.8344 -1.4501 -0.5052
 9043TIP3   OH248619   0.931   3.786   2.649  0.0746  0.0447 -0.4827
 9043TIP3    H148620   0.860   3.746   2.697 -0.8197  2.1126  0.0469
 9043TIP3    H248621   0.928   3.879   2.674  2.4761  0.3461 -1.0273
 9044TIP3   OH248622   5.010   1.494  15.927 -0.1479 -0.1316 -0.1328
 9044TIP3    H148623   5.000   1.420  15.868  0.7009 -0.5905  0.2722
 9044TIP3    H248624   4.960   1.470  16.005 -1.2182  0.4474 -0.6236
 9045TIP3   OH248625   5.173   6.637  15.433  0.3095  0.2604  0.0664
 9045TIP3    H148626   5.224   6.583  15.371  0.6923 -0.1737  0.7370
 9045TIP3    H248627   5.084   6.602  15.427  0.2239  0.5675 -0.6121
 9046TIP3   OH248628   4.309   2.718   1.420  0.0956  0.2918 -0.9942
 9046TIP3    H148629   4.376   2.677   1.365 -0.2804  1.1796 -2.1677
 9046TIP3    H248630   4.226   2.683   1.385 -0.2540  2.2273 -2.2485
 9047TIP3   OH248631   1.808   4.325   0.353 -0.0114  0.3027  0.5334
 9047TIP3    H148632   1.783   4.417   0.365  0.1361  0.4462 -0.1870
 9047TIP3    H248633   1.883   4.328   0.294 -0.5843 -0.3211 -0.2601
 9048TIP3   OH248634   4.524   6.270  16.841 -0.3275 -0.1640 -0.0413
 9048TIP3    H148635   4.530   6.360  16.809 -1.9886 -0.0548 -0.1062
 9048TIP3    H248636   4.445   6.235  16.800 -0.8202 -0.9985  1.5386
 9049TIP3   OH248637   3.087   3.037   5.680 -0.1255  0.0857  0.1521
 9049TIP3    H148638   3.132   2.959   5.710  0.3154  0.2636 -0.0457
 9049TIP3    H248639   3.151   3.107   5.689 -0.3683  0.3438 -0.1051
 9050TIP3   OH248640   5.841   2.581  17.280  0.1623 -0.2463 -0.1289
 9050TIP3    H148641   5.852   2.571  17.374 -0.2077 -1.4785 -0.2040
 9050TIP3    H248642   5.893   2.658  17.258  1.8186 -1.0715  0.7711
 9051TIP3   OH248643   2.728   5.053   0.857  0.4505 -0.0921 -0.4403
 9051TIP3    H148644   2.654   4.992   0.849  0.7520 -0.7447  1.1874
 9051TIP3    H248645   2.689   5.139   0.844 -0.3398 -0.5077 -0.9538
 9052TIP3   OH248646   2.163   3.760   4.831  0.0246 -0.0582  0.1422
 9052TIP3    H148647   2.096   3.827   4.821  0.1368  0.0789  0.2898
 9052TIP3    H248648   2.116   3.677   4.826 -0.0282  0.0161 -0.7076
 9053TIP3   OH248649   6.704   1.371  13.240  0.6227 -0.0182  0.5403
 9053TIP3    H148650   6.774   1.424  13.279 -0.2680  0.9044  0.9123
 9053TIP3    H248651   6.689   1.301  13.304  1.7909 -0.7368  0.0556
 9054TIP3   OH248652   2.920   2.839   5.875 -0.3358  0.3003  0.5622
 9054TIP3    H148653   3.003   2.878   5.902  0.4654 -0.2203 -1.0455
 9054TIP3    H248654   2.904   2.770   5.940  1.4779 -0.8382 -0.1221
 9055TIP3   OH248655   5.949   3.056  14.520 -0.1478  0.0008 -0.3349
 9055TIP3    H148656   6.021   3.014  14.567  0.0352  0.6322 -0.0336
 9055TIP3    H248657   5.971   3.149  14.522 -0.2687  0.0731 -1.4417
 9056TIP3   OH248658   2.184   5.901   5.264 -0.3942 -0.1478 -0.6210
 9056TIP3    H148659   2.151   5.974   5.317 -2.1952 -0.0668 -1.7590
 9056TIP3    H248660   2.108   5.873   5.213  0.8423 -1.3501 -1.8747
 9057TIP3   OH248661   2.681   1.280   1.752  0.0969 -0.0372  0.3336
 9057TIP3    H148662   2.626   1.358   1.753  0.1291 -0.0149  1.3642
 9057TIP3    H248663   2.736   1.291   1.674  0.5359  1.2772  0.8035
 9058TIP3   OH248664   6.747   2.908  16.848 -0.0118  0.1619 -0.5430
 9058TIP3    H148665   6.778   2.893  16.938  2.5447  0.8529 -1.2160
 9058TIP3    H248666   6.685   2.980  16.855  0.7496  0.7400  0.5943
 9059TIP3   OH248667   2.098   1.436  12.230  0.0427  0.1757 -0.3695
 9059TIP3    H148668   2.100   1.347  12.196  0.2448  0.6991 -1.8080
 9059TIP3    H248669   2.162   1.437  12.300 -1.0228 -1.1814  0.6753
 9060TIP3   OH248670   1.155   4.527  12.686  0.1416 -0.5537 -0.4043
 9060TIP3    H148671   1.213   4.561  12.618 -0.3134 -1.4798 -1.2806
 9060TIP3    H248672   1.081   4.588  12.687 -0.3963 -1.1517 -1.5630
 9061TIP3   OH248673   5.458   0.658  16.908  0.0136  0.0662 -0.2712
 9061TIP3    H148674   5.410   0.607  16.974  0.6535 -0.9019 -0.5514
 9061TIP3    H248675   5.533   0.694  16.956 -0.0579  0.1807 -0.2440
 9062TIP3   OH248676   1.919   4.128  11.071 -0.4289  0.0665 -0.0230
 9062TIP3    H148677   1.907   4.220  11.050  2.4890  0.7219  0.6785
 9062TIP3    H248678   1.926   4.084  10.986  3.7140  1.4905 -0.6510
 9063TIP3   OH248679   3.784   1.429  12.809  0.1410 -0.0799 -0.3983
 9063TIP3    H148680   3.793   1.354  12.868  1.4369  0.9504  0.8082
 9063TIP3    H248681   3.858   1.422  12.749  0.0196 -0.0049 -0.5580
 9064TIP3   OH248682   4.491   6.140  14.532 -0.0369 -0.2043  0.8828
 9064TIP3    H148683   4.501   6.231  14.503 -0.4622 -0.6938 -0.9756
 9064TIP3    H248684   4.542   6.089  14.468 -1.8626 -1.4576  0.3495
 9065TIP3   OH248685   4.639   0.379  16.012 -0.1389  0.5348 -0.1910
 9065TIP3    H148686   4.732   0.398  15.999 -0.1310  0.5404 -0.1279
 9065TIP3    H248687   4.618   0.421  16.095 -0.0647  0.0704  0.0644
 9066TIP3   OH248688   1.241   5.695  17.234 -0.2219 -0.2599  0.2091
 9066TIP3    H148689   1.181   5.749  17.285 -1.0041 -1.7818  0.9734
 9066TIP3    H248690   1.250   5.741  17.151  1.0137  2.2503  1.6180
 9067TIP3   OH248691   4.232   0.325   1.135  0.0500  0.3566  0.0601
 9067TIP3    H148692   4.244   0.262   1.206  1.1114 -1.6556 -1.7861
 9067TIP3    H248693   4.158   0.291   1.085 -0.1106  1.2428 -0.3205
 9068TIP3   OH248694   1.191   5.364  16.410  0.4023  1.1448  0.1787
 9068TIP3    H148695   1.277   5.323  16.400  0.8995  2.1992 -0.1094
 9068TIP3    H248696   1.187   5.427  16.337 -0.7678  0.8458 -0.0231
 9069TIP3   OH248697   5.458   5.218  12.702 -0.5389  0.3544 -0.1185
 9069TIP3    H148698   5.410   5.161  12.763  0.7876 -0.7367 -0.0468
 9069TIP3    H248699   5.509   5.275  12.758  3.5081 -2.9840  0.0819
 9070TIP3   OH248700   3.089   6.776  12.141 -0.3298  0.0179  0.2454
 9070TIP3    H148701   3.036   6.706  12.102  0.0394 -0.1080 -0.0374
 9070TIP3    H248702   3.125   6.823  12.067 -0.6072  0.5403  0.4352
 9071TIP3   OH248703   1.639   2.831   4.566  0.5605 -0.1553 -0.1720
 9071TIP3    H148704   1.683   2.813   4.649  1.0197  0.0903 -0.3555
 9071TIP3    H248705   1.643   2.748   4.519  0.3665 -0.2744  0.0192
 9072TIP3   OH248706   1.531   6.003  12.955 -0.0693 -0.0610 -0.0817
 9072TIP3    H148707   1.570   6.083  12.920  0.1337 -0.2897 -0.3875
 9072TIP3    H248708   1.468   5.976  12.889  0.0642 -0.3052 -0.1106
 9073TIP3   OH248709   0.282   6.425   4.133  0.0807 -0.2586 -0.1407
 9073TIP3    H148710   0.193   6.403   4.158  0.0517  1.3482  1.3323
 9073TIP3    H248711   0.273   6.470   4.049 -0.4193 -0.5018 -0.2216
 9074TIP3   OH248712   4.304   5.149  14.271 -0.0384 -0.2256  0.0819
 9074TIP3    H148713   4.228   5.177  14.220 -1.5517  0.2019  2.4219
 9074TIP3    H248714   4.342   5.230  14.304  1.1926 -0.4668 -0.7054
 9075TIP3   OH248715   1.386   0.344   4.501 -0.4635 -0.3529  0.2471
 9075TIP3    H148716   1.409   0.333   4.593  0.3008  1.1495  0.2784
 9075TIP3    H248717   1.291   0.352   4.500 -0.3643  1.5012  1.1789
 9076TIP3   OH248718   6.478   3.930  15.887  0.0952  0.9013  0.0847
 9076TIP3    H148719   6.396   3.892  15.917 -0.1468  1.0860 -0.3399
 9076TIP3    H248720   6.485   3.906  15.795  0.7983  0.4066  0.2590
 9077TIP3   OH248721   1.655   2.890  16.539 -1.1974  0.0819  0.3546
 9077TIP3    H148722   1.587   2.823  16.544 -1.5794  0.5470  1.7673
 9077TIP3    H248723   1.608   2.973  16.551 -0.7943  0.6876 -1.8070
 9078TIP3   OH248724   6.292   0.918   4.920 -0.4359 -0.1757  0.3512
 9078TIP3    H148725   6.335   0.914   5.005  0.6247 -1.3143 -0.2039
 9078TIP3    H248726   6.230   0.845   4.921 -0.1731 -0.4110  0.0426
 9079TIP3   OH248727   6.385   6.742   3.112  0.3333 -0.3059 -0.1707
 9079TIP3    H148728   6.434   6.662   3.132 -1.9008 -1.5354  0.7181
 9079TIP3    H248729   6.400   6.799   3.187 -0.3902 -1.0899  0.5881
 9080TIP3   OH248730   4.561   1.486  13.361 -0.3789 -0.2324 -0.3593
 9080TIP3    H148731   4.515   1.568  13.345  1.4662  0.6645 -1.3836
 9080TIP3    H248732   4.579   1.486  13.455 -1.6098 -0.1670 -0.1084
 9081TIP3   OH248733   4.919   4.475   2.240  0.9731 -0.2837  0.0233
 9081TIP3    H148734   5.010   4.504   2.235  0.8869  0.0285  0.3225
 9081TIP3    H248735   4.868   4.548   2.205  0.7673 -0.1046  0.6818
 9082TIP3   OH248736   5.339   1.990  13.805  0.4106 -0.1151  0.8463
 9082TIP3    H148737   5.382   2.074  13.795 -0.0263  0.2878  2.2010
 9082TIP3    H248738   5.354   1.945  13.721  0.1592  1.5122 -0.1038
 9083TIP3   OH248739   2.610   0.889   0.526  0.3355 -0.1362 -0.0639
 9083TIP3    H148740   2.675   0.960   0.526 -1.4715  1.6009 -0.7239
 9083TIP3    H248741   2.531   0.929   0.561 -0.6994 -1.9084 -0.2845
 9084TIP3   OH248742   1.609   5.581  12.982 -0.0776  0.5483 -0.0337
 9084TIP3    H148743   1.547   5.572  12.910  1.3749 -0.9709 -1.1963
 9084TIP3    H248744   1.606   5.496  13.027 -1.8779  1.8678  2.5784
 9085TIP3   OH248745   3.943   4.042   5.181  0.4831  0.0343 -0.1095
 9085TIP3    H148746   3.975   4.113   5.237  3.0537 -0.0618 -1.3003
 9085TIP3    H248747   3.940   3.965   5.239  2.1997  0.1428  0.1898
 9086TIP3   OH248748   1.254   1.612  15.700 -0.2019 -0.0756  0.0288
 9086TIP3    H148749   1.245   1.699  15.738  0.0963  0.6575 -1.4707
 9086TIP3    H248750   1.173   1.599  15.650 -1.0848 -1.4794  1.7283
 9087TIP3   OH248751   1.397   0.940  12.811  0.0566  0.6000 -0.0664
 9087TIP3    H148752   1.412   0.846  12.800  0.8307  0.8253 -1.0027
 9087TIP3    H248753   1.312   0.945  12.855 -0.5656 -0.5066 -1.0863
 9088TIP3   OH248754   2.869   1.827   2.264 -0.5195 -0.5295  0.4004
 9088TIP3    H148755   2.805   1.805   2.197  0.8207  0.3652 -1.2430
 9088TIP3    H248756   2.817   1.836   2.345 -2.1225 -1.9717 -0.4014
 9089TIP3   OH248757   2.345   2.371  15.445 -0.6069  0.1461 -0.0237
 9089TIP3    H148758   2.299   2.449  15.478  0.4921  0.7847  0.0521
 9089TIP3    H248759   2.343   2.309  15.518  0.7076  1.0747  0.8454
 9090TIP3   OH248760   4.564   3.976  12.917 -0.2776  0.1540 -0.1364
 9090TIP3    H148761   4.630   4.034  12.955 -0.3046  1.1405 -1.5209
 9090TIP3    H248762   4.555   3.905  12.981 -0.3829  1.7481  1.7333
 9091TIP3   OH248763   1.500   0.778   6.313  0.2325 -0.6012 -0.0354
 9091TIP3    H148764   1.489   0.812   6.401 -1.1489 -0.3223 -0.2974
 9091TIP3    H248765   1.439   0.705   6.307  0.6496 -0.9116 -0.6122
 9092TIP3   OH248766   0.240   3.005  11.558  0.1434 -0.0697 -0.1993
 9092TIP3    H148767   0.201   3.047  11.481 -1.5294 -0.6363  0.2952
 9092TIP3    H248768   0.285   3.077  11.604 -0.5000  0.6658 -0.6929
 9093TIP3   OH248769   4.108   4.932  11.438 -0.5680  0.0095  0.1335
 9093TIP3    H148770   4.167   5.006  11.457 -0.9829  0.3514  0.1023
 9093TIP3    H248771   4.147   4.890  11.362 -1.6760  1.7232 -1.4780
 9094TIP3   OH248772   5.002   5.575   4.866 -0.4226 -0.0078  0.0291
 9094TIP3    H148773   5.044   5.616   4.790 -1.8620 -0.5773 -1.1189
 9094TIP3    H248774   4.971   5.490   4.833 -3.1092  0.6756  0.5493
 9095TIP3   OH248775   5.807   0.908  14.276 -0.0412  0.0697 -0.2833
 9095TIP3    H148776   5.726   0.953  14.251  0.4526  1.4522  0.5059
 9095TIP3    H248777   5.844   0.962  14.346  0.2266 -1.9764  1.2164
 9096TIP3   OH248778   5.770   1.006   4.050 -0.6178 -0.5278  0.1081
 9096TIP3    H148779   5.792   1.019   3.957 -1.4756  0.2037 -0.0018
 9096TIP3    H248780   5.675   1.014   4.053 -0.9072 -3.2781  0.6320
 9097TIP3   OH248781   6.261   1.668  15.888 -0.2029  0.6560  0.1758
 9097TIP3    H148782   6.311   1.602  15.935  1.3293  1.8617  0.3266
 9097TIP3    H248783   6.178   1.674  15.936  0.0240 -0.4345  0.7306
 9098TIP3   OH248784   5.784   0.338  13.269 -0.6791  0.1226  0.4337
 9098TIP3    H148785   5.741   0.398  13.330  0.3867 -0.0995  1.4302
 9098TIP3    H248786   5.735   0.256  13.279  0.4838 -0.4034  2.2528
 9099TIP3   OH248787   5.893   1.898  12.545  0.6070 -0.2360  0.0555
 9099TIP3    H148788   5.836   1.955  12.598  1.4813 -0.4586  1.2904
 9099TIP3    H248789   5.833   1.839  12.501 -0.2268  0.6722 -0.0753
 9100TIP3   OH248790   1.160   0.719   1.356 -0.4926 -0.4277 -0.1386
 9100TIP3    H148791   1.213   0.757   1.426  0.3543 -1.0675 -0.4220
 9100TIP3    H248792   1.216   0.653   1.317 -0.9397 -0.0472 -1.4640
 9101TIP3   OH248793   6.800   3.035   3.925 -0.0626  0.0692  0.6830
 9101TIP3    H148794   6.867   3.071   3.867  0.0026  1.7553  1.7657
 9101TIP3    H248795   6.754   3.111   3.959 -1.1794 -0.9738  1.5653
 9102TIP3   OH248796   1.101   3.488   1.845  0.2421 -0.6829 -0.1703
 9102TIP3    H148797   1.185   3.499   1.800 -0.2243 -0.2875 -0.9565
 9102TIP3    H248798   1.095   3.393   1.861  0.9245 -0.6906  0.0770
 9103TIP3   OH248799   2.165   2.918   3.095 -0.5626  0.1439  0.0446
 9103TIP3    H148800   2.091   2.955   3.142  0.2482  1.6831  0.1682
 9103TIP3    H248801   2.130   2.894   3.009 -1.0395  1.6068 -0.1975
 9104TIP3   OH248802   0.207   2.167   1.396  0.5622  0.6677 -0.1177
 9104TIP3    H148803   0.204   2.254   1.435  1.3117  0.4463  0.4751
 9104TIP3    H248804   0.284   2.169   1.338  0.4384  0.4766 -0.2936
 9105TIP3   OH248805   2.924   2.643   3.705  0.3376 -0.0846  0.3722
 9105TIP3    H148806   2.860   2.628   3.775  1.9837 -1.8756  1.6135
 9105TIP3    H248807   2.988   2.704   3.744 -0.2164  1.1785 -0.6269
 9106TIP3   OH248808   1.338   0.059  12.396 -0.0770 -0.4348  0.6812
 9106TIP3    H148809   1.409  -0.003  12.406  1.3281  1.1114  0.7611
 9106TIP3    H248810   1.369   0.121  12.330 -0.9853  0.7312  1.2974
 9107TIP3   OH248811   4.658   0.196  11.431  0.3223 -0.6086 -0.3317
 9107TIP3    H148812   4.700   0.235  11.508 -0.0280 -0.4552 -0.2139
 9107TIP3    H248813   4.567   0.182  11.458  0.3238 -1.0464 -0.5415
 9108TIP3   OH248814   4.717   5.803   5.104 -0.5659  0.1945  0.7921
 9108TIP3    H148815   4.761   5.831   5.184  1.9309 -0.1896 -0.3661
 9108TIP3    H248816   4.641   5.862   5.097  1.4997  3.1457  1.2221
 9109TIP3   OH248817   2.803   2.526   0.966 -0.0380  0.3618 -0.3881
 9109TIP3    H148818   2.815   2.584   0.891  1.3786 -1.9672 -2.1063
 9109TIP3    H248819   2.889   2.523   1.008 -0.5683  0.8679  0.7683
 9110TIP3   OH248820   4.854   5.657   3.034  0.1358  0.3633 -0.5035
 9110TIP3    H148821   4.892   5.715   3.101  0.1713  0.5083 -0.6485
 9110TIP3    H248822   4.768   5.635   3.069  1.1963 -1.8415  0.9529
 9111TIP3   OH248823   5.794   6.135   6.514 -0.0436 -0.2927  0.3790
 9111TIP3    H148824   5.824   6.186   6.439 -0.4691  1.2039  1.1873
 9111TIP3    H248825   5.875   6.102   6.554  0.3072  0.5209  0.3619
 9112TIP3   OH248826   6.152   2.145   5.575  0.5458  0.1503  0.3456
 9112TIP3    H148827   6.095   2.088   5.627  0.1708 -1.0423 -1.2938
 9112TIP3    H248828   6.103   2.162   5.495  1.2153  1.7203  0.2325
 9113TIP3   OH248829   0.217   5.640   0.520 -0.1245 -0.1613  0.3399
 9113TIP3    H148830   0.124   5.624   0.533 -0.3083 -0.8927 -1.6122
 9113TIP3    H248831   0.222   5.718   0.465  0.3590 -0.7192 -0.4323
 9114TIP3   OH248832   3.237   3.942  12.637 -0.7553  0.2036 -0.7786
 9114TIP3    H148833   3.222   4.012  12.573 -1.2868  0.8357  0.0217
 9114TIP3    H248834   3.222   3.984  12.722 -0.2567 -0.6767 -0.2493
 9115TIP3   OH248835   1.446   1.435  15.578 -1.0046  0.1362 -0.0325
 9115TIP3    H148836   1.527   1.485  15.574 -1.3152  0.5771 -1.8829
 9115TIP3    H248837   1.378   1.501  15.593 -1.3132  0.1965 -1.5218
 9116TIP3   OH248838   3.342   3.579  17.071 -0.0885 -0.1654 -0.3596
 9116TIP3    H148839   3.267   3.622  17.028  0.0253 -0.3725 -0.7741
 9116TIP3    H248840   3.309   3.555  17.157  0.0842  1.4763  0.2055
 9117TIP3   OH248841   3.792   5.552   1.637  0.1397  0.5414 -0.1467
 9117TIP3    H148842   3.819   5.611   1.566 -1.2912  3.5100  1.5540
 9117TIP3    H248843   3.866   5.554   1.698 -0.2003  1.3009  0.2663
 9118TIP3   OH248844   0.124   0.934  12.952 -0.6298 -0.3142 -0.4822
 9118TIP3    H148845   0.205   0.976  12.980 -1.3742  0.1371  1.0889
 9118TIP3    H248846   0.095   0.883  13.028 -1.7254 -0.6171 -1.0721
 9119TIP3   OH248847   3.839   3.868   3.642 -0.6089 -0.8227 -0.1707
 9119TIP3    H148848   3.768   3.805   3.641 -1.7882  0.4685 -0.9846
 9119TIP3    H248849   3.824   3.923   3.565  0.3144  0.5099  0.5628
 9120TIP3   OH248850   0.302   4.565   0.106  0.2004  0.5974 -0.1966
 9120TIP3    H148851   0.322   4.565   0.012 -1.7737 -0.8353 -0.6781
 9120TIP3    H248852   0.266   4.652   0.122 -0.3356  0.5352 -0.9921
 9121TIP3   OH248853   6.335   6.176   5.281 -0.2471  0.1246 -0.0931
 9121TIP3    H148854   6.270   6.126   5.330 -0.5546 -0.1487 -0.7747
 9121TIP3    H248855   6.295   6.192   5.196  1.1751 -1.4968 -1.1505
 9122TIP3   OH248856   0.116   4.484  11.355  0.1049  0.7657  0.2926
 9122TIP3    H148857   0.083   4.565  11.317 -0.4270  2.0250  3.2139
 9122TIP3    H248858   0.206   4.504  11.380  0.8916 -0.4653 -1.3686
 9123TIP3   OH248859   3.771   4.182  15.677 -0.2476  0.0362  0.0326
 9123TIP3    H148860   3.859   4.156  15.649 -0.3156 -1.6731  1.1759
 9123TIP3    H248861   3.776   4.277  15.689  1.8550 -0.1686  1.3178
 9124TIP3   OH248862   1.522   4.813  17.260  0.6542  0.2826 -0.9169
 9124TIP3    H148863   1.502   4.854  17.344 -0.2302 -1.6990 -0.0980
 9124TIP3    H248864   1.454   4.748  17.248  1.7806 -0.7053 -2.3093
 9125TIP3   OH248865   3.422   2.377   1.169 -0.0496 -0.0027  0.0982
 9125TIP3    H148866   3.461   2.403   1.086  1.1272 -1.6854  0.0779
 9125TIP3    H248867   3.368   2.452   1.195  0.3056  0.9220 -1.6984
 9126TIP3   OH248868   4.139   1.702   6.048  0.2408 -0.0663  0.5781
 9126TIP3    H148869   4.179   1.785   6.021 -0.1801 -0.6048 -1.8838
 9126TIP3    H248870   4.110   1.718   6.138  1.7654  1.8520  0.8049
 9127TIP3   OH248871   3.395   0.348  16.028 -0.3225 -0.1191 -0.5256
 9127TIP3    H148872   3.377   0.442  16.033 -0.2539 -0.0708 -1.0810
 9127TIP3    H248873   3.477   0.343  15.978  0.9204 -0.3585  1.4314
 9128TIP3   OH248874   0.211   4.267  13.538  0.0092 -0.4815 -0.4612
 9128TIP3    H148875   0.171   4.181  13.522  1.5359 -1.3202  0.0093
 9128TIP3    H248876   0.148   4.312  13.595 -1.5489 -0.6539 -1.9565
 9129TIP3   OH248877   0.450   6.190  16.409  0.3474  0.3369  0.0218
 9129TIP3    H148878   0.455   6.221  16.319 -1.6073  1.2012  0.1438
 9129TIP3    H248879   0.501   6.254  16.459 -0.4635  1.2156 -0.2244
 9130TIP3   OH248880   5.875   4.866  12.874  0.1954  0.1592 -0.1786
 9130TIP3    H148881   5.882   4.878  12.968  0.3452  2.0166 -0.3979
 9130TIP3    H248882   5.782   4.880  12.854  0.1181 -0.4720 -0.2856
 9131TIP3   OH248883   6.293   3.370  17.234  0.3419 -0.3043 -0.0754
 9131TIP3    H148884   6.225   3.309  17.263  0.4577 -0.2333  0.3520
 9131TIP3    H248885   6.337   3.397  17.315  0.8021 -0.2601 -0.3368
 9132TIP3   OH248886   0.261   0.120  11.871 -0.0836 -0.0250 -0.0730
 9132TIP3    H148887   0.307   0.105  11.789 -0.7369 -0.6963 -0.3311
 9132TIP3    H248888   0.172   0.145  11.845  0.0454  0.9856  0.4183
 9133TIP3   OH248889   4.410   6.598   5.000  0.3349 -0.2322 -0.4038
 9133TIP3    H148890   4.347   6.667   4.979 -0.5897 -0.0873  2.3776
 9133TIP3    H248891   4.383   6.524   4.946 -0.7966  0.5412 -0.9387
 9134TIP3   OH248892   0.470   3.025  13.494 -0.1303 -0.3816 -0.1437
 9134TIP3    H148893   0.563   3.005  13.491  0.4344  0.3382  4.3763
 9134TIP3    H248894   0.429   2.944  13.526 -0.2290  0.5254  2.3024
 9135TIP3   OH248895   6.710   3.419   0.727 -0.0979  0.1554  0.6777
 9135TIP3    H148896   6.624   3.453   0.752  0.2365  0.0688  2.0595
 9135TIP3    H248897   6.693   3.364   0.650 -1.2382  0.3357  0.7804
 9136TIP3   OH248898   4.381   1.259   4.377  0.4899 -0.4200 -0.2887
 9136TIP3    H148899   4.322   1.198   4.333  0.3377 -0.6486  0.2216
 9136TIP3    H248900   4.379   1.232   4.469 -1.1600  1.5948  0.3343
 9137TIP3   OH248901   4.685   0.280   4.719 -0.2149  0.0925 -0.0765
 9137TIP3    H148902   4.655   0.217   4.654 -1.5452  0.2105  0.3843
 9137TIP3    H248903   4.763   0.240   4.758  0.4355 -0.1036 -1.5149
 9138TIP3   OH248904   6.556   1.870   5.798 -0.4931 -0.2865  0.3200
 9138TIP3    H148905   6.604   1.932   5.854 -0.6979  0.8511 -0.7281
 9138TIP3    H248906   6.510   1.925   5.736  0.0850 -1.5452 -1.2859
 9139TIP3   OH248907   3.944   4.008   5.507 -0.0537 -0.0564  0.3832
 9139TIP3    H148908   4.009   3.939   5.494 -0.7249 -0.5414 -0.4740
 9139TIP3    H248909   3.860   3.966   5.486 -0.4496  1.0759 -0.3639
 9140TIP3   OH248910   4.721   4.075  15.641 -0.0582 -0.6656 -0.4573
 9140TIP3    H148911   4.790   4.012  15.662 -0.7270 -0.6460  2.1603
 9140TIP3    H248912   4.646   4.048  15.695 -0.3656  2.3135  0.8223
 9141TIP3   OH248913   1.969   2.934  13.323 -1.0250 -0.2702 -0.1170
 9141TIP3    H148914   1.979   2.995  13.250  1.2057 -0.7510 -0.2705
 9141TIP3    H248915   1.883   2.955  13.360 -1.5173  1.0459 -1.8858
 9142TIP3   OH248916   5.862   3.491  14.797 -0.2305  0.4991 -0.3821
 9142TIP3    H148917   5.894   3.581  14.805 -1.8797  1.0572  0.6074
 9142TIP3    H248918   5.800   3.495  14.724 -0.6202  0.2727 -0.0648
 9143TIP3   OH248919   1.155   3.213  12.362  0.1014 -0.2117  0.8893
 9143TIP3    H148920   1.112   3.259  12.434 -1.1424 -1.1510  0.7716
 9143TIP3    H248921   1.097   3.140  12.342  1.6769 -1.4331  0.6000
 9144TIP3   OH248922   2.662   3.566  14.960 -0.3094  0.5068 -0.3735
 9144TIP3    H148923   2.661   3.612  14.876 -1.2757 -0.5606 -0.9808
 9144TIP3    H248924   2.726   3.495  14.947 -0.1576  0.5890 -0.0685
 9145TIP3   OH248925   0.357   3.643   6.194  0.0305  0.2465 -0.0317
 9145TIP3    H148926   0.286   3.707   6.199  0.3557  0.7242 -1.1574
 9145TIP3    H248927   0.336   3.590   6.116  0.2197 -0.4648  0.3912
 9146TIP3   OH248928   3.066   4.966  13.027 -0.3661 -0.2600 -0.1338
 9146TIP3    H148929   2.984   4.922  13.048 -0.3858  1.3506  4.1474
 9146TIP3    H248930   3.042   5.034  12.965 -2.3030  0.0384  0.8702
 9147TIP3   OH248931   2.458   0.708  11.744 -0.3269  0.4530  0.0659
 9147TIP3    H148932   2.370   0.714  11.779 -0.1907 -0.4845  0.6109
 9147TIP3    H248933   2.456   0.760  11.664 -0.7186  2.4519  1.3066
 9148TIP3   OH248934   5.822   4.918  16.270 -0.2995 -0.0990  0.1436
 9148TIP3    H148935   5.842   4.976  16.197  0.7046 -1.4380 -0.6961
 9148TIP3    H248936   5.903   4.868  16.284 -0.8673 -0.7229  1.3640
 9149TIP3   OH248937   1.190   1.450   2.338  0.1304 -0.1532  0.3486
 9149TIP3    H148938   1.172   1.357   2.327 -2.4221  0.5121 -2.5693
 9149TIP3    H248939   1.284   1.454   2.358  0.1104 -3.3374  1.5400
 9150TIP3   OH248940   0.725   4.757  15.207  0.2447 -0.3052 -0.3313
 9150TIP3    H148941   0.703   4.840  15.248  0.9132 -0.8645  1.2270
 9150TIP3    H248942   0.641   4.720  15.180 -0.0493  0.8624 -1.0670
 9151TIP3   OH248943   2.855   3.758  11.431 -0.5978  0.1977  0.2221
 9151TIP3    H148944   2.908   3.737  11.354 -0.2231  0.9221  0.2702
 9151TIP3    H248945   2.790   3.820  11.400 -0.4983  0.4287  0.4650
 9152TIP3   OH248946   4.796   0.873  16.819 -0.7494 -0.6980  0.4740
 9152TIP3    H148947   4.702   0.891  16.818 -0.4708  1.0011  1.0538
 9152TIP3    H248948   4.823   0.891  16.910  0.4829  1.0858 -0.1753
 9153TIP3   OH248949   4.982   4.355   5.094  0.3575  0.1578 -0.6912
 9153TIP3    H148950   4.917   4.361   5.024 -0.5365 -0.7992  0.0097
 9153TIP3    H248951   4.971   4.437   5.143 -0.2550  0.0570 -0.6467
 9154TIP3   OH248952   5.584   6.823   3.770  0.3090  0.2827 -0.0356
 9154TIP3    H148953   5.651   6.887   3.795  0.5784  0.5090 -1.2893
 9154TIP3    H248954   5.627   6.738   3.781 -0.2114  0.2361  2.1311
 9155TIP3   OH248955   0.936   6.298   5.976 -0.4120  0.1383 -0.1291
 9155TIP3    H148956   0.963   6.237   6.044 -0.4988  0.1875 -0.0501
 9155TIP3    H248957   0.979   6.266   5.897 -0.0406  0.2774  0.0152
 9156TIP3   OH248958   6.274   5.812   0.448 -0.3164 -0.1408 -0.1046
 9156TIP3    H148959   6.242   5.728   0.414 -0.0807 -0.2129 -0.1522
 9156TIP3    H248960   6.337   5.841   0.382  0.6131 -0.5867  0.5763
 9157TIP3   OH248961   5.486   2.903   1.893  0.1125  0.0387 -0.6309
 9157TIP3    H148962   5.447   2.985   1.922 -1.5947 -1.5751  2.1208
 9157TIP3    H248963   5.570   2.928   1.855 -0.5559  3.0578 -0.3432
 9158TIP3   OH248964   3.688   2.104  15.485  0.3188 -0.0549 -0.4281
 9158TIP3    H148965   3.666   2.030  15.429  1.6170  0.1664 -1.2699
 9158TIP3    H248966   3.749   2.156  15.433  1.2641  0.3655  1.0438
 9159TIP3   OH248967   1.460   2.386   1.469  0.7848 -0.4798  0.0522
 9159TIP3    H148968   1.452   2.457   1.406  1.5855  0.6218  1.1399
 9159TIP3    H248969   1.392   2.324   1.444 -0.5124  1.0659 -0.4220
 9160TIP3   OH248970   3.954   5.774   3.350 -0.5024  0.2131 -0.0732
 9160TIP3    H148971   3.881   5.736   3.397 -0.2329  0.1637  0.3104
 9160TIP3    H248972   3.938   5.751   3.258 -1.8030  1.5649 -0.2154
 9161TIP3   OH248973   2.700   4.733  12.551  0.1304  0.2075 -0.0749
 9161TIP3    H148974   2.734   4.782  12.625  0.5318 -0.2207  0.0293
 9161TIP3    H248975   2.631   4.678  12.587  0.6728 -0.3740  0.0712
 9162TIP3   OH248976   5.887   5.811   5.656 -0.5210  0.0531  0.3523
 9162TIP3    H148977   5.887   5.880   5.590 -1.5917  0.1643  0.4621
 9162TIP3    H248978   5.967   5.826   5.706  0.4732 -0.1928 -1.0749
 9163TIP3   OH248979   5.113   3.341  12.705  0.0428  0.8630 -0.3156
 9163TIP3    H148980   5.186   3.293  12.667  0.9542  1.9727 -0.0180
 9163TIP3    H248981   5.139   3.433  12.698 -2.5095  1.5465 -2.7857
 9164TIP3   OH248982   3.851   4.924  12.457  0.2136 -0.0069 -0.0665
 9164TIP3    H148983   3.932   4.952  12.500  0.2370  0.3865 -0.3659
 9164TIP3    H248984   3.877   4.902  12.368 -0.2327  1.4322 -0.5755
 9165TIP3   OH248985   5.981   1.844   6.173  0.4629  0.1850 -0.0293
 9165TIP3    H148986   5.907   1.788   6.148  1.8753 -1.3006 -1.0640
 9165TIP3    H248987   5.941   1.913   6.226 -1.6373 -0.6644 -0.3849
 9166TIP3   OH248988   5.139   3.302   5.063 -0.4056  0.0465 -0.3350
 9166TIP3    H148989   5.177   3.339   4.983  1.1116  1.9933  1.1721
 9166TIP3    H248990   5.188   3.221   5.077  0.5437  0.5713 -0.5036
 9167TIP3   OH248991   1.831   3.907  16.618  0.2908 -0.0492  0.0989
 9167TIP3    H148992   1.821   3.979  16.555  1.9575  0.0143 -0.1447
 9167TIP3    H248993   1.916   3.869  16.597  0.1563 -1.0722  1.2843
 9168TIP3   OH248994   2.968   2.901  16.419  0.2817  0.1750 -0.1174
 9168TIP3    H148995   3.000   2.942  16.339  1.1946 -1.2306 -0.5013
 9168TIP3    H248996   2.892   2.954  16.444  1.6097  2.3015 -0.3516
 9169TIP3   OH248997   2.135   5.856   0.932  0.0659 -0.2604  0.6852
 9169TIP3    H148998   2.172   5.909   1.003  2.2935 -2.7681  1.5507
 9169TIP3    H248999   2.208   5.840   0.873 -0.9832 -0.8728 -0.4948
 9170TIP3   OH249000   6.624   3.981   3.947 -0.1590  0.1967 -0.2521
 9170TIP3    H149001   6.629   3.966   3.853  0.7800 -1.6481  0.0545
 9170TIP3    H249002   6.714   3.999   3.973 -0.4868  1.2035  0.2393
 9171TIP3   OH249003   6.365   2.741   0.028  0.5358 -0.2732 -0.2608
 9171TIP3    H149004   6.348   2.780  -0.058 -0.2542 -0.7825 -0.3425
 9171TIP3    H249005   6.315   2.659   0.028 -2.3054  1.2760  1.9176
 9172TIP3   OH249006   5.522   4.047  16.085 -0.2348  0.3276  0.4587
 9172TIP3    H149007   5.594   4.077  16.141  0.7078 -0.1359 -0.4622
 9172TIP3    H249008   5.515   3.953  16.105  0.0880  0.1653 -0.1514
 9173TIP3   OH249009   4.052   5.450  16.464 -0.4690 -0.0433 -0.0287
 9173TIP3    H149010   4.142   5.478  16.447 -0.2032 -0.7873  0.1344
 9173TIP3    H249011   4.049   5.359  16.435 -1.2452  0.0579 -0.2797
 9174TIP3   OH249012   1.312   2.203  15.630 -0.0597 -0.4294 -0.2606
 9174TIP3    H149013   1.324   2.128  15.689  0.5434  0.7698  1.1997
 9174TIP3    H249014   1.368   2.183  15.555  1.0715 -0.8778  0.6715
 9175TIP3   OH249015   1.105   6.777  15.480 -0.6997  0.1647 -0.2436
 9175TIP3    H149016   1.107   6.830  15.400  0.2784 -0.5457 -0.7139
 9175TIP3    H249017   1.089   6.840  15.550  1.6765  1.2977 -0.6429
 9176TIP3   OH249018   2.500   4.977   4.988  0.1992 -0.6563  0.1355
 9176TIP3    H149019   2.534   5.065   4.976 -0.9117 -0.3907 -1.2970
 9176TIP3    H249020   2.459   4.979   5.075 -1.2836  0.7561 -0.5498
 9177TIP3   OH249021   3.058   0.278   4.906 -0.3355  0.0872  0.3383
 9177TIP3    H149022   3.090   0.218   4.973  2.0512 -0.0662 -0.8226
 9177TIP3    H249023   3.131   0.339   4.892 -0.4845 -0.2113 -2.4407
 9178TIP3   OH249024   3.068   5.368  17.210 -0.5580  1.0922  0.4613
 9178TIP3    H149025   2.976   5.385  17.226 -1.3209 -0.3128 -1.9610
 9178TIP3    H249026   3.110   5.379  17.296 -3.0296  1.2078  1.7332
 9179TIP3   OH249027   1.470   4.148   1.184 -0.1939  0.3083  0.4604
 9179TIP3    H149028   1.545   4.118   1.236 -0.0609 -2.2661 -0.9972
 9179TIP3    H249029   1.509   4.195   1.111  0.1455 -1.4487 -0.5625
 9180TIP3   OH249030   2.200   3.601   4.312  0.0939 -0.1891 -0.4017
 9180TIP3    H149031   2.128   3.664   4.320  0.9060  0.9605 -1.6129
 9180TIP3    H249032   2.178   3.532   4.373 -2.5051 -0.3420 -1.3651
 9181TIP3   OH249033   5.884   5.955   3.511  0.2891 -0.0463 -0.3864
 9181TIP3    H149034   5.838   5.945   3.428  2.1850 -0.6958 -1.4196
 9181TIP3    H249035   5.931   6.038   3.503  0.1813  0.0838  0.2123
 9182TIP3   OH249036   3.258   5.414   0.753  0.1177  0.6057  0.0905
 9182TIP3    H149037   3.314   5.400   0.829 -2.9544 -3.6759  1.9397
 9182TIP3    H249038   3.294   5.357   0.685 -0.7827 -0.6193  0.6150
 9183TIP3   OH249039   4.665   2.140  14.479 -0.5134  0.3604 -0.4362
 9183TIP3    H149040   4.591   2.142  14.540 -0.2136  0.8369 -0.0821
 9183TIP3    H249041   4.631   2.094  14.402 -0.9011 -0.2268  0.0766
 9184TIP3   OH249042   5.837   4.336   4.086  0.1364 -0.0304  0.5792
 9184TIP3    H149043   5.752   4.302   4.112 -0.2825  0.5658  0.0143
 9184TIP3    H249044   5.900   4.270   4.116 -0.6186 -1.0745 -0.1034
 9185TIP3   OH249045   2.673   4.027  14.778 -0.1803 -0.6694 -0.3547
 9185TIP3    H149046   2.760   4.055  14.807 -1.3116  1.5475  1.2140
 9185TIP3    H249047   2.682   4.016  14.683  1.2883  1.9379 -0.6167
 9186TIP3   OH249048   1.949   4.177   2.793  0.0689  0.4011 -0.1804
 9186TIP3    H149049   1.906   4.125   2.860 -1.8881  0.3030 -1.4531
 9186TIP3    H249050   1.984   4.113   2.732  0.0469  0.5314 -0.3300
 9187TIP3   OH249051   3.489   1.395  14.545 -0.0872  0.2825  0.1955
 9187TIP3    H149052   3.580   1.370  14.525  0.5239  1.6271  1.1495
 9187TIP3    H249053   3.445   1.393  14.460  1.0713  0.5106 -0.4401
 9188TIP3   OH249054   2.517   1.927   5.481  0.5230  0.1665  0.1930
 9188TIP3    H149055   2.516   1.940   5.576  1.8734 -0.5646  0.3399
 9188TIP3    H249056   2.606   1.950   5.454  0.1897  0.2658 -0.8894
 9189TIP3   OH249057   1.660   3.122   0.283 -0.3075  0.2087 -0.5083
 9189TIP3    H149058   1.673   3.088   0.371 -0.4737 -0.7546 -0.8480
 9189TIP3    H249059   1.565   3.121   0.270 -0.3379  1.0801 -0.4233
 9190TIP3   OH249060   0.480   2.847   6.523  0.2705 -0.7308 -0.1673
 9190TIP3    H149061   0.428   2.796   6.460  0.9575  1.4312 -2.6873
 9190TIP3    H249062   0.419   2.912   6.557 -0.1660 -2.0501  1.7335
 9191TIP3   OH249063   3.736   3.265  13.938 -0.0243 -0.4611  0.5917
 9191TIP3    H149064   3.655   3.272  13.989 -0.2152 -2.1267  0.5600
 9191TIP3    H249065   3.707   3.269  13.847  0.2066  1.3632  0.5519
 9192TIP3   OH249066   2.215   0.702   5.955 -0.1224  0.4666  0.6634
 9192TIP3    H149067   2.239   0.758   6.029  1.3171  1.5585 -0.5701
 9192TIP3    H249068   2.275   0.628   5.960  0.6354  1.0365  0.0286
 9193TIP3   OH249069   6.617   4.140  11.621  0.2178  0.2452  0.4106
 9193TIP3    H149070   6.683   4.149  11.690  0.6064  0.6862 -0.0090
 9193TIP3    H249071   6.640   4.208  11.557 -0.7307  0.4952  0.3232
 9194TIP3   OH249072   5.533   0.235   3.093 -0.3190 -0.1220  0.0847
 9194TIP3    H149073   5.578   0.166   3.143  0.1434  0.3847  0.3847
 9194TIP3    H249074   5.440   0.222   3.111 -0.3719 -1.5821 -1.0390
 9195TIP3   OH249075   0.258   0.919  12.324  0.3480 -0.0602  0.2687
 9195TIP3    H149076   0.329   0.873  12.369  0.4480 -1.1608 -0.9480
 9195TIP3    H249077   0.300   0.963  12.250  0.4730  3.1877  2.1039
 9196TIP3   OH249078   2.203   1.615  12.497  0.1415 -0.1226  0.1463
 9196TIP3    H149079   2.260   1.567  12.437  0.4546  1.9747 -1.3331
 9196TIP3    H249080   2.257   1.628  12.575 -0.0477 -2.3161  0.7266
 9197TIP3   OH249081   2.970   6.594   0.818 -0.4027  0.6763 -0.3370
 9197TIP3    H149082   3.040   6.531   0.806 -0.1602  1.1265 -1.3776
 9197TIP3    H249083   2.953   6.628   0.730 -1.6687  0.8419 -0.0426
 9198TIP3   OH249084   2.474   3.459   5.558  0.2813 -0.3141 -0.3624
 9198TIP3    H149085   2.478   3.396   5.486  1.2247  1.5507 -2.0287
 9198TIP3    H249086   2.565   3.477   5.580  0.0443  0.6361 -0.0863
 9199TIP3   OH249087   0.130   2.742  16.183 -0.3534  0.3208  0.9024
 9199TIP3    H149088   0.144   2.819  16.127  0.1345  0.2448  0.9133
 9199TIP3    H249089   0.216   2.727  16.224 -0.1232 -0.9335  0.0113
 9200TIP3   OH249090   5.009   5.554  15.500  0.2859 -0.0794 -0.7979
 9200TIP3    H149091   5.089   5.537  15.551 -0.0070  1.7968  0.3903
 9200TIP3    H249092   5.036   5.620  15.436 -0.3920  0.9359 -0.0675
 9201TIP3   OH249093   6.142   1.580   5.280  0.4605  0.1060 -0.3185
 9201TIP3    H149094   6.217   1.605   5.226  0.6870 -1.3899 -0.7515
 9201TIP3    H249095   6.166   1.493   5.314 -0.4112  0.2825  0.8020
 9202TIP3   OH249096   2.853   4.819   6.502 -0.5947 -0.3153 -0.3914
 9202TIP3    H149097   2.762   4.842   6.519 -0.1971  2.2010 -1.1980
 9202TIP3    H249098   2.902   4.859   6.573  0.1514  1.6412 -1.9000
 9203TIP3   OH249099   1.891   5.316  16.167 -0.4784  0.6282 -0.0401
 9203TIP3    H149100   1.943   5.373  16.222 -0.8384  1.7613 -0.8285
 9203TIP3    H249101   1.874   5.367  16.088 -0.3380 -0.7830 -1.0318
 9204TIP3   OH249102   0.998   5.380  12.802 -0.1826  0.6500  0.0139
 9204TIP3    H149103   0.923   5.348  12.751  0.5399  0.1698 -0.7841
 9204TIP3    H249104   1.048   5.433  12.739  0.5211  0.3729  0.3291
 9205TIP3   OH249105   5.238   6.302   1.871  0.3231 -0.0706 -0.2240
 9205TIP3    H149106   5.332   6.305   1.851  0.2084  0.3014 -0.7392
 9205TIP3    H249107   5.231   6.242   1.944  1.1192  0.8620  0.6538
 9206TIP3   OH249108   5.996   5.433  14.541 -0.0550  0.0971 -0.1181
 9206TIP3    H149109   5.920   5.429  14.599  0.3159 -0.7657  0.3207
 9206TIP3    H249110   6.037   5.347  14.549  1.3647  0.7724  0.1961
 9207TIP3   OH249111   3.749   0.154   4.902 -0.2771  0.3845  0.1633
 9207TIP3    H149112   3.780   0.090   4.837 -0.0918  0.2667  0.3643
 9207TIP3    H249113   3.665   0.120   4.931 -0.8173  0.9379 -0.7099
 9208TIP3   OH249114   0.680   6.712   0.261 -0.3500 -0.6304  0.3084
 9208TIP3    H149115   0.596   6.684   0.296  0.9766 -3.7389  1.3116
 9208TIP3    H249116   0.690   6.663   0.180  0.5281 -0.3286  0.2174
 9209TIP3   OH249117   0.318   0.324   1.327 -0.4748 -0.7403  0.1558
 9209TIP3    H149118   0.250   0.312   1.261 -0.2434 -1.2180  0.0045
 9209TIP3    H249119   0.339   0.418   1.322 -0.2312 -0.8352 -0.6730
 9210TIP3   OH249120   2.669   2.640  14.492 -0.0716  0.4636 -0.9901
 9210TIP3    H149121   2.636   2.551  14.505 -0.1066  0.3605 -1.7491
 9210TIP3    H249122   2.742   2.630  14.431 -0.3454  1.0010 -1.4129
 9211TIP3   OH249123   4.855   5.256   1.198  0.2094 -0.3249 -0.0097
 9211TIP3    H149124   4.946   5.232   1.181 -0.1728 -2.6220  0.8871
 9211TIP3    H249125   4.804   5.196   1.143 -0.7755 -0.2876  0.8303
 9212TIP3   OH249126   2.728   0.500  13.895  0.4229 -0.5157  0.3388
 9212TIP3    H149127   2.809   0.520  13.849  0.4098  0.2969  0.6469
 9212TIP3    H249128   2.659   0.537  13.840  0.5136  2.2416  1.8506
 9213TIP3   OH249129   0.553   1.676   6.005  0.1627 -0.1726  0.2508
 9213TIP3    H149130   0.558   1.582   6.021  1.3984 -0.5367 -1.8997
 9213TIP3    H249131   0.475   1.705   6.053 -0.2396 -2.2702  0.9450
 9214TIP3   OH249132   0.323   1.749   4.996 -0.3310 -0.5462 -0.4540
 9214TIP3    H149133   0.375   1.676   4.961 -0.1727 -0.1672 -1.0111
 9214TIP3    H249134   0.375   1.827   4.975  0.8902 -0.4220  2.5279
 9215TIP3   OH249135   3.665   1.616   5.385  0.1755  0.6464 -0.2757
 9215TIP3    H149136   3.718   1.581   5.456 -0.0496 -0.9354 -0.8523
 9215TIP3    H249137   3.578   1.579   5.399  0.1357  0.2905 -1.3787
 9216TIP3   OH249138   3.347   1.200   2.713 -0.1095  0.5495 -0.3570
 9216TIP3    H149139   3.386   1.186   2.627 -0.0974 -1.7352 -0.0309
 9216TIP3    H249140   3.413   1.168   2.775 -0.7506  0.7086  0.4217
 9217TIP3   OH249141   6.820   4.860   4.748 -0.3853  0.3685  0.6020
 9217TIP3    H149142   6.747   4.807   4.714  0.1449 -0.5192  0.8128
 9217TIP3    H249143   6.887   4.855   4.679 -0.6131  1.4271  0.2745
 9218TIP3   OH249144   3.099   5.574   1.813  0.3674 -0.1809  0.0223
 9218TIP3    H149145   3.031   5.639   1.832 -0.2529 -0.7145 -0.3493
 9218TIP3    H249146   3.111   5.579   1.718  0.5421 -0.3945  0.0329
 9219TIP3   OH249147   3.013   4.243   5.257  0.3678  0.1510  0.0191
 9219TIP3    H149148   2.950   4.313   5.277 -1.0485 -0.6794 -1.3271
 9219TIP3    H249149   3.057   4.226   5.340  0.1197  2.0137  0.5777
 9220TIP3   OH249150   0.870   0.199   3.919  0.5933 -0.5899  0.6463
 9220TIP3    H149151   0.783   0.165   3.901  0.2624 -0.0344  1.1245
 9220TIP3    H249152   0.930   0.129   3.893  0.0283 -0.8270 -0.0553
 9221TIP3   OH249153   5.078   1.994   6.104  0.7281 -0.2867 -0.4692
 9221TIP3    H149154   5.111   2.059   6.165 -0.7932  0.1020 -0.0239
 9221TIP3    H249155   5.024   2.044   6.042  2.6269 -0.5798 -2.5115
 9222TIP3   OH249156   5.965   4.173  11.930 -0.1647 -0.1843  0.5220
 9222TIP3    H149157   6.007   4.088  11.933  0.9872  0.1893 -2.1424
 9222TIP3    H249158   6.028   4.233  11.971 -0.0841 -0.2983  0.5622
 9223TIP3   OH249159   0.630   1.026  13.008 -0.3101  0.3001  0.1031
 9223TIP3    H149160   0.567   0.957  13.028 -1.2772  1.9359  3.4659
 9223TIP3    H249161   0.714   0.980  12.996 -1.3490 -1.5939 -0.2600
 9224TIP3   OH249162   1.888   4.666   1.568  0.1053  0.2108  0.4080
 9224TIP3    H149163   1.823   4.631   1.507 -0.0974  0.2346  0.6082
 9224TIP3    H249164   1.964   4.608   1.559  0.0335  0.1463  0.2187
 9225TIP3   OH249165   6.756   2.715   3.386 -0.0534  0.2570 -0.2201
 9225TIP3    H149166   6.770   2.628   3.348 -0.5497 -1.2564  2.7401
 9225TIP3    H249167   6.844   2.752   3.394  0.2196 -0.1993 -1.0403
 9226TIP3   OH249168   5.454   6.545   2.327 -0.4326 -0.0252 -0.0429
 9226TIP3    H149169   5.503   6.474   2.370 -0.0019 -1.5699 -2.8194
 9226TIP3    H249170   5.521   6.595   2.280 -1.1689 -0.6118 -1.8086
 9227TIP3   OH249171   3.315   4.088   1.887  0.0937 -0.3277 -0.0902
 9227TIP3    H149172   3.333   4.176   1.919  0.6887  0.1108 -1.5961
 9227TIP3    H249173   3.267   4.046   1.959  0.4042  0.9869  0.9099
 9228TIP3   OH249174   0.550   4.529   5.232  0.0804 -0.3395 -0.1823
 9228TIP3    H149175   0.463   4.505   5.263 -0.3384 -0.7455 -1.5923
 9228TIP3    H249176   0.607   4.521   5.309 -1.4526  1.9726  1.3292
 9229TIP3   OH249177   5.401   3.799   4.698 -0.6985 -0.5478 -0.2638
 9229TIP3    H149178   5.474   3.737   4.706 -1.7136 -1.6042  1.4785
 9229TIP3    H249179   5.439   3.875   4.654  1.0507 -1.6666 -0.8198
 9230TIP3   OH249180   0.266   5.244  15.664 -0.0013 -0.0768  0.4514
 9230TIP3    H149181   0.245   5.336  15.652  1.5022  0.1401 -1.0190
 9230TIP3    H249182   0.184   5.198  15.644 -0.4349  0.8935 -0.0855
 9231TIP3   OH249183   0.768   3.239   5.246  0.4648  0.7635 -0.0506
 9231TIP3    H149184   0.843   3.180   5.241  0.8265  1.0733  1.3161
 9231TIP3    H249185   0.740   3.236   5.337 -1.2636  0.5882 -0.5483
 9232TIP3   OH249186   0.523   1.291  14.816  0.2990  0.5118  0.3595
 9232TIP3    H149187   0.474   1.373  14.809  0.3069  0.4184 -1.1435
 9232TIP3    H249188   0.461   1.224  14.790  1.0387  0.3364 -1.0415
 9233TIP3   OH249189   1.791   0.259   0.924  0.5875  0.0813 -0.5844
 9233TIP3    H149190   1.724   0.212   0.873 -2.7439 -0.1355  3.4756
 9233TIP3    H249191   1.849   0.190   0.956 -1.1287 -0.7116  0.9907
 9234TIP3   OH249192   1.045   2.802   1.592  0.0865 -0.4097 -0.3596
 9234TIP3    H149193   1.090   2.736   1.540  0.8216 -1.1510  1.1640
 9234TIP3    H249194   1.111   2.835   1.652 -0.6161  0.7809 -0.1949
 9235TIP3   OH249195   0.049   4.165   4.742 -0.0467 -0.6130  0.0672
 9235TIP3    H149196   0.124   4.149   4.685 -1.5213  0.5198 -2.3435
 9235TIP3    H249197   0.040   4.261   4.744 -1.3634 -0.7235  0.3912
 9236TIP3   OH249198   3.606   6.144   3.569 -0.3155  0.4181 -0.4641
 9236TIP3    H149199   3.601   6.170   3.476  1.2937 -0.4014 -0.8235
 9236TIP3    H249200   3.688   6.095   3.575 -1.1980 -0.9649  1.0628
 9237TIP3   OH249201   2.087   4.370   6.756  0.5903  0.0599  0.2072
 9237TIP3    H149202   2.108   4.445   6.701  2.8736 -1.0743 -0.5585
 9237TIP3    H249203   1.995   4.351   6.736 -0.1060  2.6430  0.5049
 9238TIP3   OH249204   5.437   5.521   5.656  0.3067 -0.2345  0.4176
 9238TIP3    H149205   5.501   5.584   5.623  0.6510 -1.2482 -0.9600
 9238TIP3    H249206   5.490   5.446   5.684 -0.2361 -0.8507 -0.1879
 9239TIP3   OH249207   1.703   6.322   1.741 -0.2159 -0.4158  0.3038
 9239TIP3    H149208   1.733   6.302   1.830  0.9278 -1.8656 -0.3625
 9239TIP3    H249209   1.781   6.355   1.696 -0.1904 -1.8492 -0.7707
 9240TIP3   OH249210   3.615   2.008  13.364 -0.0252 -0.3247 -0.6724
 9240TIP3    H149211   3.538   2.060  13.387 -0.1065 -0.5244 -0.4863
 9240TIP3    H249212   3.619   1.940  13.431  0.9906  0.3619 -0.0133
 9241TIP3   OH249213   6.620   1.363  11.504  0.2442  0.1254  0.4551
 9241TIP3    H149214   6.653   1.275  11.490  2.6772  1.1943 -1.2577
 9241TIP3    H249215   6.532   1.362  11.466 -0.3373 -1.8713  1.7230
 9242TIP3   OH249216   1.799   2.889   1.760  0.2283 -0.0485  0.2937
 9242TIP3    H149217   1.874   2.857   1.710  0.4905 -0.8094  1.1268
 9242TIP3    H249218   1.750   2.944   1.699 -0.4101 -2.2916 -1.3419
 9243TIP3   OH249219   4.525   0.815   0.246 -1.1269  0.4110  0.7872
 9243TIP3    H149220   4.601   0.773   0.204 -3.4316 -3.8159  0.2937
 9243TIP3    H249221   4.559   0.848   0.329  1.8317  1.5179 -0.7135
 9244TIP3   OH249222   1.749   0.322   5.329  0.6726 -0.4557 -0.3166
 9244TIP3    H149223   1.841   0.325   5.305  0.3868  1.2189 -1.3486
 9244TIP3    H249224   1.707   0.269   5.261  0.6198  0.2119 -0.8110
 9245TIP3   OH249225   6.024   4.546   0.645 -0.7901 -0.5829 -0.4004
 9245TIP3    H149226   6.028   4.450   0.655  0.6127 -0.5242 -0.1227
 9245TIP3    H249227   5.931   4.566   0.640 -1.0987 -1.9958 -0.7614
 9246TIP3   OH249228   0.837   4.826  15.558  0.3284  0.0579  0.6377
 9246TIP3    H149229   0.808   4.910  15.595  1.9870  0.0785  2.0153
 9246TIP3    H249230   0.757   4.775  15.548 -0.5138  1.1644  1.4605
 9247TIP3   OH249231   4.796   1.172   0.454  0.4471  0.2985 -0.6988
 9247TIP3    H149232   4.765   1.240   0.394  1.6244 -0.7179 -2.5791
 9247TIP3    H249233   4.873   1.210   0.496 -1.0728  1.4602  1.1593
 9248TIP3   OH249234   0.086   3.914  15.000  0.2229 -0.3457 -0.5587
 9248TIP3    H149235   0.153   3.946  14.939  0.6710 -2.1354 -1.0601
 9248TIP3    H249236   0.005   3.956  14.971  0.4499 -1.0466 -2.3346
 9249TIP3   OH249237   0.706   2.236   4.078 -0.5103  0.8850  0.0800
 9249TIP3    H149238   0.651   2.242   4.156  0.4465  1.1603  0.7528
 9249TIP3    H249239   0.786   2.284   4.101  0.4932 -0.4676 -0.4465
 9250TIP3   OH249240   1.011   1.367  11.540 -0.1620  0.0053  0.4192
 9250TIP3    H149241   1.080   1.433  11.554  0.7571 -1.0534  1.0867
 9250TIP3    H249242   0.939   1.397  11.595  0.7012 -0.1684  1.7059
 9251TIP3   OH249243   6.017   1.954   1.935 -0.1696  0.4019  0.6339
 9251TIP3    H149244   5.958   1.995   1.872 -0.5364  0.1321  0.7978
 9251TIP3    H249245   5.959   1.917   2.001  0.0771 -1.3284 -0.0659
 9252TIP3   OH249246   2.312   6.382   2.645  0.3221  0.4965 -0.4882
 9252TIP3    H149247   2.405   6.395   2.663 -0.0539  0.4163  1.7481
 9252TIP3    H249248   2.311   6.314   2.577  1.8831 -1.4534  1.2945
 9253TIP3   OH249249   3.071   3.390   4.613  0.2766  0.2040 -0.1650
 9253TIP3    H149250   3.120   3.314   4.644  0.3757  0.4899  0.3876
 9253TIP3    H249251   2.979   3.363   4.619  0.3080  0.1583  0.1067
 9254TIP3   OH249252   6.407   4.396   1.504 -0.1757  0.0230  0.0657
 9254TIP3    H149253   6.328   4.399   1.452 -0.1368  3.6104 -0.0353
 9254TIP3    H249254   6.378   4.370   1.591 -0.9395 -1.4901 -0.6026
 9255TIP3   OH249255   1.466   2.066  15.417 -0.2293  0.2226  0.3656
 9255TIP3    H149256   1.492   1.978  15.392 -1.3936 -0.3952  1.2211
 9255TIP3    H249257   1.401   2.091  15.352 -0.2127  0.2737  0.3688
 9256TIP3   OH249258   5.406   6.756   0.133  0.2730  0.4592 -0.3326
 9256TIP3    H149259   5.347   6.757   0.058  1.2237 -1.2741 -1.1691
 9256TIP3    H249260   5.475   6.818   0.111 -0.3906  1.3216 -0.0430
 9257TIP3   OH249261   0.241   3.157   4.312 -0.7557  0.0320 -0.1604
 9257TIP3    H149262   0.252   3.131   4.403 -1.0036  0.1212 -0.1051
 9257TIP3    H249263   0.320   3.207   4.291 -0.5402 -0.2812 -0.0985
 9258TIP3   OH249264   5.619   4.916  11.512 -0.1047  0.4691  0.2076
 9258TIP3    H149265   5.708   4.882  11.520 -0.2484 -0.1579 -0.7227
 9258TIP3    H249266   5.630   5.011  11.508  0.4081  0.4870  1.4761
 9259TIP3   OH249267   1.502   0.498   5.321 -0.3075  0.9665 -0.1938
 9259TIP3    H149268   1.579   0.446   5.342  0.0267  1.8969  1.0262
 9259TIP3    H249269   1.467   0.525   5.406 -3.5112 -1.4987 -0.5524
 9260TIP3   OH249270   4.745   5.005   3.470 -0.5005 -0.3966  0.3484
 9260TIP3    H149271   4.653   5.016   3.444 -0.1351  1.3212 -0.3601
 9260TIP3    H249272   4.775   5.094   3.489  1.0184 -0.9381  0.6020
 9261TIP3   OH249273   6.001   4.956   2.667 -0.7571 -0.0454 -0.0663
 9261TIP3    H149274   5.941   4.882   2.663 -0.0447 -0.6230 -0.3760
 9261TIP3    H249275   5.951   5.025   2.710 -1.5992 -0.5433 -0.2193
 9262TIP3   OH249276   5.222   2.470   0.272 -0.4866  0.8481 -0.2185
 9262TIP3    H149277   5.278   2.393   0.259  0.6285  1.0725  2.4713
 9262TIP3    H249278   5.233   2.492   0.365 -0.8801  4.1503 -0.8048
 9263TIP3   OH249279   4.103   5.939  11.695  0.4568 -0.1860 -0.0528
 9263TIP3    H149280   4.061   5.944  11.609  0.4118  0.8623  0.0251
 9263TIP3    H249281   4.176   6.000  11.690  1.1586 -0.9871  0.2765
 9264TIP3   OH249282   2.107   5.106   2.537 -0.4546 -0.5294  0.3763
 9264TIP3    H149283   2.086   5.185   2.486  0.4281 -0.8701 -0.5512
 9264TIP3    H249284   2.153   5.139   2.614 -0.6398 -0.0882  0.3026
 9265TIP3   OH249285   0.088   6.059   5.608  0.0375 -0.3898 -0.7308
 9265TIP3    H149286   0.063   6.031   5.520 -1.3623 -0.3807 -0.3588
 9265TIP3    H249287   0.006   6.088   5.648  0.5986 -0.6687  0.6763
 9266TIP3   OH249288   0.058   4.880  14.117  0.4169  0.6379  0.1935
 9266TIP3    H149289   0.009   4.937  14.058  0.8159  1.0223  0.2212
 9266TIP3    H249290   0.000   4.806  14.133 -0.2682  1.2162  0.4573
 9267TIP3   OH249291   1.586   0.092  16.257 -0.0514  0.1340  0.5282
 9267TIP3    H149292   1.549   0.166  16.305  0.0935  0.0087  0.8354
 9267TIP3    H249293   1.569   0.016  16.313  0.7316  0.0846  0.7064
 9268TIP3   OH249294   6.245   6.359   3.514 -0.9906  0.4760 -0.2147
 9268TIP3    H149295   6.231   6.417   3.589  0.3314  1.4883 -0.7089
 9268TIP3    H249296   6.291   6.283   3.549 -2.3578 -0.1136  0.3659
 9269TIP3   OH249297   6.160   0.881  16.862 -0.1970 -0.0830 -0.1694
 9269TIP3    H149298   6.242   0.931  16.863  0.6968 -1.5154  0.0593
 9269TIP3    H249299   6.117   0.903  16.944  0.5992 -0.3490  0.3246
 9270TIP3   OH249300   3.840   6.811  15.744 -0.3289 -0.4449 -0.6252
 9270TIP3    H149301   3.807   6.732  15.787 -0.7314 -0.3070 -0.6687
 9270TIP3    H249302   3.829   6.880  15.811 -0.8989 -0.2416 -0.9210
 9271TIP3   OH249303   0.051   1.911   4.958 -0.1508  0.0083 -0.0297
 9271TIP3    H149304   0.022   1.918   4.867 -0.4513 -0.8128 -0.0093
 9271TIP3    H249305  -0.028   1.887   5.006  0.1345 -0.1758  0.3509
 9272TIP3   OH249306   1.185   1.880   5.241 -0.6236 -0.7816  0.0938
 9272TIP3    H149307   1.169   1.969   5.273 -1.8418 -0.4362 -1.3521
 9272TIP3    H249308   1.184   1.826   5.321  0.2876  0.4862  1.0091
 9273TIP3   OH249309   3.132   4.738  17.276  0.3312 -0.4248 -0.2596
 9273TIP3    H149310   3.183   4.717  17.354  0.2910 -1.8193 -0.5767
 9273TIP3    H249311   3.196   4.768  17.212  0.6356 -1.1817 -0.3208
 9274TIP3   OH249312   0.824   6.702  16.785  0.3215  0.2653  0.5369
 9274TIP3    H149313   0.888   6.707  16.856 -0.2521  2.9205  0.9695
 9274TIP3    H249314   0.866   6.747  16.712 -0.5816  1.0350  0.4708
 9275TIP3   OH249315   2.533   4.170  14.539 -0.6719  0.3052  0.1515
 9275TIP3    H149316   2.544   4.224  14.617  0.6226  0.5600 -0.1949
 9275TIP3    H249317   2.461   4.212  14.491 -0.9909  0.5643  0.8395
 9276TIP3   OH249318   1.561   2.738  13.327 -0.2902  0.1848  0.0101
 9276TIP3    H149319   1.513   2.778  13.255 -1.5932 -0.5816  0.4182
 9276TIP3    H249320   1.624   2.805  13.354 -1.3820  1.3819 -0.3045
 9277TIP3   OH249321   3.028   1.128   3.491 -0.5310  0.2625 -0.2449
 9277TIP3    H149322   3.082   1.087   3.423 -1.2171 -0.6810 -0.2359
 9277TIP3    H249323   2.946   1.080   3.489 -0.6626  0.3865  1.0840
 9278TIP3   OH249324   2.757   4.453  14.455 -0.4124  0.2650  0.4102
 9278TIP3    H149325   2.728   4.538  14.487 -2.8419 -1.1744  2.3925
 9278TIP3    H249326   2.839   4.435  14.501  0.3118  1.5995 -0.2902
 9279TIP3   OH249327   0.721   3.376   3.615  0.5436  0.0326 -0.3279
 9279TIP3    H149328   0.638   3.331   3.631  0.3710  0.1671 -0.8265
 9279TIP3    H249329   0.746   3.350   3.526  0.7742  0.3990 -0.3729
 9280TIP3   OH249330   3.629   1.116  12.677  0.1613  0.4235  0.2297
 9280TIP3    H149331   3.713   1.119  12.721  0.0799 -0.1592  0.4382
 9280TIP3    H249332   3.650   1.094  12.586  0.1252 -1.8787  0.7154
 9281TIP3   OH249333   1.741   2.565  11.801  0.7294 -0.5560  0.5446
 9281TIP3    H149334   1.789   2.509  11.862  0.6454 -1.5435 -0.2567
 9281TIP3    H249335   1.809   2.619  11.760  1.2153 -1.9128 -0.5455
 9282TIP3   OH249336   3.868   0.602   5.291 -0.0122  0.3174  0.5958
 9282TIP3    H149337   3.807   0.611   5.364  0.7933  0.8769  1.2140
 9282TIP3    H249338   3.871   0.507   5.274  0.9038  0.0177  2.2711
 9283TIP3   OH249339   2.259   2.911  12.287 -0.0682  0.0434  0.4385
 9283TIP3    H149340   2.340   2.909  12.338 -0.0434  1.0026  0.4469
 9283TIP3    H249341   2.286   2.886  12.199  0.1843  0.0421  0.5149
 9284TIP3   OH249342   2.948   6.377  14.191  0.2856 -0.0613 -0.2254
 9284TIP3    H149343   2.870   6.401  14.240 -0.3047 -2.1933 -0.0300
 9284TIP3    H249344   2.982   6.300  14.237  1.6459 -0.0688 -1.1973
 9285TIP3   OH249345   1.415   1.586  17.279  0.7119 -0.2085  0.2468
 9285TIP3    H149346   1.501   1.574  17.238  0.4422 -2.5057  0.2092
 9285TIP3    H249347   1.353   1.561  17.210  0.2432 -4.0816  1.8203
 9286TIP3   OH249348   6.410   0.478   2.573 -0.1019 -0.9514 -0.3176
 9286TIP3    H149349   6.426   0.499   2.665 -3.4017  3.9094 -0.4208
 9286TIP3    H249350   6.489   0.507   2.527 -0.5226  2.3080  0.7122
 9287TIP3   OH249351   1.799   2.168   5.675  1.0647  0.4754  0.0539
 9287TIP3    H149352   1.706   2.184   5.689  1.3161  1.7119  0.3974
 9287TIP3    H249353   1.818   2.089   5.726  0.0485 -0.2424 -0.6525
 9288TIP3   OH249354   1.193   5.370   2.714 -0.1269  0.1193  0.1018
 9288TIP3    H149355   1.124   5.322   2.760  0.0027  0.2028  0.3871
 9288TIP3    H249356   1.169   5.365   2.622 -0.5429  0.1967  0.2060
 9289TIP3   OH249357   6.086   5.347  13.822 -0.0253  0.3107 -0.3809
 9289TIP3    H149358   5.992   5.332  13.828 -0.4392  1.9145 -1.7986
 9289TIP3    H249359   6.126   5.266  13.851 -1.8988 -1.9527 -3.4511
 9290TIP3   OH249360   5.914   5.682  13.771 -0.0262 -0.3307 -0.2545
 9290TIP3    H149361   5.959   5.661  13.853  1.1286 -0.6232 -0.9437
 9290TIP3    H249362   5.984   5.698  13.708 -0.8388 -1.8863 -1.6464
 9291TIP3   OH249363   4.742   2.178  14.123 -0.0865  0.0771  0.5451
 9291TIP3    H149364   4.830   2.204  14.098 -0.7828  0.5336 -1.6536
 9291TIP3    H249365   4.689   2.256  14.108 -1.1353 -0.6845  0.1356
 9292TIP3   OH249366   0.507   4.196   0.215 -0.6391  0.7900  0.2730
 9292TIP3    H149367   0.472   4.116   0.254  3.8144 -2.7294 -1.9265
 9292TIP3    H249368   0.474   4.194   0.125  0.2938  0.7927 -0.0783
 9293TIP3   OH249369   6.186   5.411   2.727  0.6976 -0.2652  0.0415
 9293TIP3    H149370   6.188   5.357   2.805  0.4662  0.1701  0.3571
 9293TIP3    H249371   6.242   5.486   2.748  1.1193 -0.4399 -0.4351
 9294TIP3   OH249372   2.270   5.112   0.616 -0.2145  0.0952 -0.1710
 9294TIP3    H149373   2.254   5.177   0.547 -0.6441 -0.3114 -0.4581
 9294TIP3    H249374   2.275   5.028   0.570  2.1731  0.1015 -0.0309
 9295TIP3   OH249375   3.807   2.375   6.455 -0.2635  0.4648  0.5528
 9295TIP3    H149376   3.740   2.437   6.484  0.0837  0.5220  1.2553
 9295TIP3    H249377   3.757   2.304   6.414 -0.5669  2.0711 -2.0525
 9296TIP3   OH249378   3.530   5.114  14.991  0.0805 -0.3955  0.0853
 9296TIP3    H149379   3.604   5.154  14.946  0.7395 -1.4150  0.2423
 9296TIP3    H249380   3.561   5.027  15.016 -1.5991 -1.3700 -1.0528
 9297TIP3   OH249381   3.127   1.234   4.722  0.1520  0.2396  0.4105
 9297TIP3    H149382   3.199   1.258   4.780  0.3612 -1.0210  0.6945
 9297TIP3    H249383   3.061   1.195   4.779  0.0934 -0.4434 -0.1022
 9298TIP3   OH249384   6.055   1.234   4.834  0.1841 -0.4946 -0.0073
 9298TIP3    H149385   6.129   1.253   4.891  0.3612  0.2693 -0.4748
 9298TIP3    H249386   6.061   1.299   4.765 -1.1957 -0.1084  0.2015
 9299TIP3   OH249387   1.438   6.257   4.279  0.0408 -0.2209 -0.1479
 9299TIP3    H149388   1.399   6.214   4.355  0.2880  2.4577  1.6138
 9299TIP3    H249389   1.364   6.284   4.225 -0.2497 -0.3100  0.2029
 9300TIP3   OH249390   4.599   3.695   4.112  0.5564  0.0226 -0.2882
 9300TIP3    H149391   4.549   3.675   4.191 -1.8487  1.0631 -1.4350
 9300TIP3    H249392   4.609   3.611   4.067 -1.0331 -0.0766 -0.4875
 9301TIP3   OH249393   6.319   6.039  17.126 -0.1652 -0.1729 -0.0578
 9301TIP3    H149394   6.231   6.010  17.103  1.0151 -3.3609 -1.0405
 9301TIP3    H249395   6.347   6.093  17.052 -0.6225 -0.7527 -0.6619
 9302TIP3   OH249396   4.181   1.555   2.616 -0.1787 -0.2523  0.9408
 9302TIP3    H149397   4.094   1.552   2.577 -0.1859 -1.8272  1.0278
 9302TIP3    H249398   4.219   1.638   2.585 -1.5476  0.2632  0.5946
 9303TIP3   OH249399   6.790   1.910   3.227  0.3761 -0.0127  0.1102
 9303TIP3    H149400   6.779   1.827   3.182  1.0790 -0.0602  0.0253
 9303TIP3    H249401   6.838   1.965   3.166 -1.4060  0.9907 -0.4668
 9304TIP3   OH249402   6.046   0.600   2.525  0.2354 -0.2667 -0.4943
 9304TIP3    H149403   5.963   0.575   2.484 -0.3287 -0.6440  0.8480
 9304TIP3    H249404   6.060   0.534   2.593  0.5475  1.0108  0.7171
 9305TIP3   OH249405   6.469   0.662   2.808  0.1240  0.0133 -0.8414
 9305TIP3    H149406   6.397   0.651   2.870  1.2832 -1.1088  0.3630
 9305TIP3    H249407   6.533   0.715   2.854  1.4026 -1.5914 -0.6528
 9306TIP3   OH249408   3.042   6.606   0.160  0.4059  0.1427  0.2880
 9306TIP3    H149409   3.045   6.517   0.124 -0.0540  1.1688 -2.5257
 9306TIP3    H249410   2.949   6.623   0.173  0.4215  0.5304 -0.0893
 9307TIP3   OH249411   1.572   1.335  15.002 -0.1444  0.1519 -0.1869
 9307TIP3    H149412   1.570   1.320  15.096  0.1650 -0.3769 -0.2560
 9307TIP3    H249413   1.574   1.247  14.964  1.7252  0.3492 -0.6342
 9308TIP3   OH249414   5.614   4.862  16.808  0.1798 -0.1919 -0.1818
 9308TIP3    H149415   5.671   4.939  16.814  1.5653 -1.3094  2.7854
 9308TIP3    H249416   5.543   4.880  16.869  1.6204 -2.0057  2.1937
 9309TIP3   OH249417   3.078   2.721  14.352  0.0676 -0.0389  0.2606
 9309TIP3    H149418   3.061   2.802  14.304  0.2945 -1.3339 -2.1972
 9309TIP3    H249419   2.997   2.671  14.343  0.2325 -0.4409  0.9810
 9310TIP3   OH249420   1.740   3.322   0.103  0.2523 -0.4886 -0.0753
 9310TIP3    H149421   1.691   3.399   0.132  2.0379  0.9793 -0.7671
 9310TIP3    H249422   1.696   3.248   0.144 -1.4959  0.8993  0.6561
 9311TIP3   OH249423   2.561   0.322   0.723 -0.2732 -0.4229  0.4790
 9311TIP3    H149424   2.536   0.413   0.707 -1.2514 -0.3131  2.2993
 9311TIP3    H249425   2.528   0.274   0.648 -0.8954  0.5469  0.1167
 9312TIP3   OH249426   1.445   5.034  14.922 -0.5232  0.2988 -0.3216
 9312TIP3    H149427   1.392   4.954  14.920 -0.2663  0.1371 -1.1876
 9312TIP3    H249428   1.493   5.029  15.005  0.3982 -1.0475 -0.9100
 9313TIP3   OH249429   1.123   6.597   3.667  0.0767 -0.3408 -0.0149
 9313TIP3    H149430   1.163   6.624   3.585  1.5971 -1.0352  0.4515
 9313TIP3    H249431   1.057   6.532   3.643  0.3882 -0.4058 -0.6859
 9314TIP3   OH249432   5.172   0.503  12.942 -1.0247 -0.5633  0.7202
 9314TIP3    H149433   5.115   0.519  13.018 -1.3768  2.4148 -0.0603
 9314TIP3    H249434   5.205   0.589  12.918  0.1588 -1.6110 -1.7194
 9315TIP3   OH249435   6.035   5.859  15.701 -0.3612 -0.5049 -0.6360
 9315TIP3    H149436   6.026   5.871  15.796  2.1141 -1.1579 -0.2376
 9315TIP3    H249437   5.994   5.774  15.684 -0.6770 -0.4607 -0.1393
 9316TIP3   OH249438   6.807   3.771  11.550 -0.9749  0.6216 -0.0014
 9316TIP3    H149439   6.785   3.724  11.470  0.3865  0.0511 -0.0716
 9316TIP3    H249440   6.817   3.862  11.522  0.5601  0.2610 -0.7263
 9317TIP3   OH249441   4.553   5.830  13.940 -0.3255  0.0884  0.1058
 9317TIP3    H149442   4.479   5.770  13.952  0.2804 -0.7826 -0.4212
 9317TIP3    H249443   4.523   5.913  13.978 -2.1120  0.1724 -1.3773
 9318TIP3   OH249444   4.156   2.450   0.439 -0.3359  0.1419  0.2389
 9318TIP3    H149445   4.087   2.396   0.476  1.2619 -1.6725  0.7017
 9318TIP3    H249446   4.226   2.447   0.504  0.4211  1.4551 -0.4794
 9319TIP3   OH249447   3.326   0.852   5.577  0.7802  0.3368 -0.0995
 9319TIP3    H149448   3.411   0.810   5.563 -0.2831 -1.3705 -1.9111
 9319TIP3    H249449   3.304   0.891   5.492 -0.2684  0.7227  0.3302
 9320TIP3   OH249450   0.387   2.600  15.490  0.4185 -0.4222 -0.5642
 9320TIP3    H149451   0.438   2.672  15.528 -0.6483 -0.9994  2.1806
 9320TIP3    H249452   0.388   2.617  15.396  0.2392  3.1575 -0.0500
 9321TIP3   OH249453   1.352   4.849  11.689 -0.2771  0.2080 -0.2412
 9321TIP3    H149454   1.428   4.901  11.714 -1.9435  1.6719  2.1637
 9321TIP3    H249455   1.286   4.914  11.666 -1.7630 -0.8882  0.7742
 9322TIP3   OH249456   1.746   3.556  15.912 -0.4232  0.2687 -0.4789
 9322TIP3    H149457   1.679   3.490  15.895  0.9887 -0.8967 -1.7351
 9322TIP3    H249458   1.730   3.584  16.003 -0.7087 -2.2200  0.2979
 9323TIP3   OH249459   2.675   0.786  14.241  0.1574 -0.3083 -0.1354
 9323TIP3    H149460   2.623   0.812  14.164 -1.1257 -0.5874  0.6026
 9323TIP3    H249461   2.723   0.865  14.266  0.6292 -0.2297 -1.2479
 9324TIP3   OH249462   5.670   0.706  13.947  0.4133  0.4678  0.3926
 9324TIP3    H149463   5.624   0.633  13.906 -0.7380  1.0241  0.6708
 9324TIP3    H249464   5.712   0.751  13.873 -0.3131  0.5324  0.0127
 9325TIP3   OH249465   1.825   2.142   4.511 -0.0121  0.0461 -0.2821
 9325TIP3    H149466   1.786   2.198   4.578  0.1703  1.5650 -1.3950
 9325TIP3    H249467   1.796   2.054   4.534 -2.0767  0.8215  0.3420
 9326TIP3   OH249468   2.637   2.562  15.633 -0.3414 -0.0329  0.1662
 9326TIP3    H149469   2.722   2.604  15.618  0.7920 -2.3685 -0.3836
 9326TIP3    H249470   2.574   2.633  15.624  1.4522  1.5622 -0.6604
 9327TIP3   OH249471   2.065   0.192   3.107 -0.4037  0.0910 -0.1101
 9327TIP3    H149472   2.092   0.101   3.094 -1.0815  0.0191 -1.1119
 9327TIP3    H249473   2.114   0.241   3.040  1.3821  0.7723  1.5820
 9328TIP3   OH249474   5.069   5.494  11.254  0.8542  0.4215  0.3149
 9328TIP3    H149475   5.001   5.501  11.186  0.9780  2.1188  0.3296
 9328TIP3    H249476   5.091   5.401  11.256 -2.0797 -0.3635  0.9247
 9329TIP3   OH249477   6.340   0.834  14.379  0.2565 -0.3863 -0.4105
 9329TIP3    H149478   6.322   0.823  14.472  1.8697 -0.7838 -0.1156
 9329TIP3    H249479   6.279   0.902  14.350 -0.2081 -0.2093  0.9530
 9330TIP3   OH249480   1.356   2.144  11.399 -0.4155  0.6314  0.0462
 9330TIP3    H149481   1.297   2.096  11.342  1.9854 -2.1787 -0.3314
 9330TIP3    H249482   1.356   2.093  11.481  1.3969  0.5360  0.0213
 9331TIP3   OH249483   6.456   2.029  12.340  0.3678  0.0038  0.1804
 9331TIP3    H149484   6.504   1.947  12.328  0.4359  0.2629 -1.4684
 9331TIP3    H249485   6.502   2.074  12.411  0.6264 -1.1502  0.7677
 9332TIP3   OH249486   2.247   2.274   3.371  0.3630 -0.3096 -0.2748
 9332TIP3    H149487   2.296   2.194   3.391 -0.8340 -0.8574  0.6215
 9332TIP3    H249488   2.170   2.244   3.323 -0.0977  0.3018  0.0693
 9333TIP3   OH249489   0.581   1.157  16.311 -0.5182  0.0598  0.1062
 9333TIP3    H149490   0.547   1.216  16.243 -1.1656  1.7912  1.8276
 9333TIP3    H249491   0.669   1.133  16.280 -0.2993  1.8159 -0.7615
 9334TIP3   OH249492   6.240   0.732  12.838  0.1502 -0.3902  0.2916
 9334TIP3    H149493   6.198   0.708  12.755  0.3343  2.0251 -0.5668
 9334TIP3    H249494   6.181   0.795  12.878  1.6079  0.9921  0.3669
 9335TIP3   OH249495   6.552   4.549  15.107 -0.2539 -0.6248 -0.0993
 9335TIP3    H149496   6.626   4.520  15.053 -1.6029 -0.5966 -2.0766
 9335TIP3    H249497   6.592   4.583  15.186  1.9380  0.4505 -1.5767
 9336TIP3   OH249498   4.892   4.861  11.403 -0.2249  0.0896 -0.1826
 9336TIP3    H149499   4.984   4.880  11.381 -0.5478  0.9564 -0.8368
 9336TIP3    H249500   4.897   4.819  11.489  0.7671  0.4299 -0.0514
 9337TIP3   OH249501   3.631   4.223  10.336 -0.0023 -0.4951  0.1951
 9337TIP3    H149502   3.687   4.287  10.381  0.6906 -0.6371 -0.4393
 9337TIP3    H249503   3.681   4.199  10.258 -1.1695 -0.2769 -0.6368
 9338TIP3   OH249504   3.098   6.754   1.888  0.6528 -0.0763 -0.1546
 9338TIP3    H149505   3.180   6.722   1.850  0.7372 -1.0086  0.7833
 9338TIP3    H249506   3.055   6.676   1.923 -0.7213  0.3782 -0.7598
 9339TIP3   OH249507   0.593   0.281   2.605 -0.4165  0.1534  0.2369
 9339TIP3    H149508   0.525   0.302   2.669 -0.8046 -0.4035  0.0130
 9339TIP3    H249509   0.547   0.239   2.533  0.2222 -0.7739  0.3403
 9340TIP3   OH249510   0.406   4.220   1.246  0.5665 -0.5217  0.4611
 9340TIP3    H149511   0.479   4.224   1.308  0.3774  0.7170  0.6344
 9340TIP3    H249512   0.331   4.192   1.299  0.4240  0.4532  0.7926
 9341TIP3   OH249513   3.349   0.975  16.955  0.2481  0.3894 -0.1228
 9341TIP3    H149514   3.347   0.885  16.987 -0.3308  0.4836  0.1137
 9341TIP3    H249515   3.273   0.981  16.896 -1.6695  1.6049  2.3002
 9342TIP3   OH249516   2.928   2.275  11.203 -0.3482 -0.3333 -0.3123
 9342TIP3    H149517   2.994   2.206  11.194 -1.4879 -1.3710 -0.9696
 9342TIP3    H249518   2.866   2.240  11.267 -1.4051 -0.3035 -1.3004
 9343TIP3   OH249519   2.454   4.965   5.268  0.1828 -0.7906  0.3126
 9343TIP3    H149520   2.545   4.951   5.293 -0.0008 -2.2372  0.2603
 9343TIP3    H249521   2.406   4.895   5.312 -0.9857  0.2304  0.7270
 9344TIP3   OH249522   3.518   4.648  13.062 -0.0080 -0.3370  0.1301
 9344TIP3    H149523   3.550   4.676  12.976  1.5037 -0.4473  0.6248
 9344TIP3    H249524   3.427   4.678  13.065  0.7051  2.1037 -0.4427
 9345TIP3   OH249525   0.070   2.760  11.553 -0.1413  0.0568  0.2964
 9345TIP3    H149526   0.134   2.690  11.567  0.9777  0.6457 -1.5176
 9345TIP3    H249527   0.121   2.841  11.565 -0.2585  0.5443 -2.0544
 9346TIP3   OH249528   0.394   2.317   3.665 -0.0084  0.2180 -0.1572
 9346TIP3    H149529   0.459   2.319   3.735 -1.1509 -1.4458  1.0349
 9346TIP3    H249530   0.396   2.227   3.633 -1.5015  0.1986 -0.2736
 9347TIP3   OH249531   2.710   6.420   1.278  0.0350  0.1296  0.0397
 9347TIP3    H149532   2.733   6.487   1.213  3.7547  0.2027  1.2041
 9347TIP3    H249533   2.739   6.338   1.240  2.5934  0.2101  1.5388
 9348TIP3   OH249534   4.536   1.892   5.047 -0.2614  0.2213  0.4002
 9348TIP3    H149535   4.511   1.884   4.955  0.0475 -0.5323  0.3726
 9348TIP3    H249536   4.618   1.843   5.053 -0.3602  0.1389  1.1090
 9349TIP3   OH249537   0.119   4.470   2.309 -0.4106  0.0930 -0.0973
 9349TIP3    H149538   0.055   4.541   2.303 -0.4176  0.1057  0.1236
 9349TIP3    H249539   0.089   4.405   2.246  0.2968  0.8336 -1.2405
 9350TIP3   OH249540   2.546   3.692   2.902 -0.4529  0.0632  0.5218
 9350TIP3    H149541   2.564   3.740   2.821  0.7967  0.0137  0.7611
 9350TIP3    H249542   2.631   3.662   2.932 -0.9070  0.0227  1.8309
 9351TIP3   OH249543   3.234   5.012  16.686 -0.3338  0.2765  0.1221
 9351TIP3    H149544   3.245   5.100  16.724  0.0149  0.6034 -0.7299
 9351TIP3    H249545   3.208   5.028  16.595  1.6265 -0.4937 -0.6144
 9352TIP3   OH249546   2.991   4.027  11.741  0.1061  0.1144  0.2473
 9352TIP3    H149547   2.994   4.005  11.834 -1.8319 -1.2969  0.0330
 9352TIP3    H249548   2.902   4.061  11.727  1.0811  2.4997 -0.6819
 9353TIP3   OH249549   0.062   3.074  14.974 -0.3591  0.1843 -0.5303
 9353TIP3    H149550   0.115   3.094  14.897  0.9338 -1.5851 -0.1662
 9353TIP3    H249551   0.021   2.989  14.954 -0.4760 -0.0129  0.4948
 9354TIP3   OH249552   6.108   5.674   4.532 -0.4594  0.0587 -0.3209
 9354TIP3    H149553   6.021   5.695   4.565  0.0462 -0.7128  1.6772
 9354TIP3    H249554   6.117   5.579   4.546  1.1902  0.3518  0.8232
 9355TIP3   OH249555   4.504   2.578   0.406 -0.5685 -0.0499  0.0341
 9355TIP3    H149556   4.547   2.506   0.451 -0.2583  0.9137  1.3417
 9355TIP3    H249557   4.543   2.579   0.318  2.4577  1.0371  1.2617
 9356TIP3   OH249558   4.735   5.147  12.107 -0.4930 -0.3482 -0.2852
 9356TIP3    H149559   4.829   5.135  12.123 -0.5480 -1.9675 -0.9624
 9356TIP3    H249560   4.696   5.064  12.134 -1.8401  0.5552  0.6522
 9357TIP3   OH249561   4.388   3.376  16.319  0.1955  0.4820  0.3786
 9357TIP3    H149562   4.302   3.416  16.329  0.3094  0.6806  0.5712
 9357TIP3    H249563   4.371   3.293  16.273 -0.0393  0.7541 -0.0269
 9358TIP3   OH249564   4.903   4.330   3.422  0.2188 -0.1998  0.3832
 9358TIP3    H149565   4.968   4.276   3.377  2.1020  0.8122  1.7722
 9358TIP3    H249566   4.896   4.409   3.368  0.6258 -0.0481  0.5461
 9359TIP3   OH249567   1.661   3.419   4.859 -0.4971 -0.2798 -0.2763
 9359TIP3    H149568   1.649   3.490   4.923  0.2200  0.5804 -1.0689
 9359TIP3    H249569   1.670   3.340   4.912  0.9654  0.5316  0.7463
 9360TIP3   OH249570   1.271   6.822  14.637  0.0132  0.2583 -0.0283
 9360TIP3    H149571   1.309   6.741  14.604  1.0513  0.7826 -0.1643
 9360TIP3    H249572   1.258   6.807  14.731  1.0118  0.2363  0.1095
 9361TIP3   OH249573   4.430   4.508   0.957 -0.2143 -0.1202  0.3893
 9361TIP3    H149574   4.340   4.541   0.953 -0.3921 -0.4636 -4.4931
 9361TIP3    H249575   4.421   4.413   0.961 -0.1074 -0.1671 -0.3603
 9362TIP3   OH249576   5.944   5.948   6.250  0.1131  0.0202  0.0638
 9362TIP3    H149577   5.924   6.041   6.238  0.8554  0.0214 -1.4552
 9362TIP3    H249578   6.040   5.943   6.246  0.0768 -0.8078  0.0095
 9363TIP3   OH249579   0.044   2.845   5.355  0.3163  0.4240  0.9973
 9363TIP3    H149580   0.051   2.908   5.284  1.0434  0.2223  0.8851
 9363TIP3    H249581  -0.038   2.867   5.399 -0.2072  0.4744  0.0234
 9364TIP3   OH249582   1.366   3.807   5.366  0.0285 -0.3063 -0.1024
 9364TIP3    H149583   1.340   3.717   5.386  0.9651 -0.5625  0.0312
 9364TIP3    H249584   1.286   3.848   5.333 -1.2336 -0.2902  2.7000
 9365TIP3   OH249585   6.801   5.082  15.353 -0.1684  0.4358  0.0193
 9365TIP3    H149586   6.827   5.006  15.301 -0.5747  0.6056 -0.4423
 9365TIP3    H249587   6.728   5.121  15.304 -0.0858  1.0161  0.3467
 9366TIP3   OH249588   4.655   5.521   5.578 -0.0425  0.0093 -0.0015
 9366TIP3    H149589   4.635   5.614   5.570 -2.0391 -0.2410  1.3686
 9366TIP3    H249590   4.679   5.508   5.669 -0.9841 -0.9784  0.1406
 9367TIP3   OH249591   4.930   1.379   0.151 -0.2615  0.4045  0.1213
 9367TIP3    H149592   4.991   1.387   0.079 -1.2588  0.4938 -0.7341
 9367TIP3    H249593   4.881   1.298   0.133 -0.3722  0.3046  0.8151
 9368TIP3   OH249594   6.206   6.481  17.036 -0.3551 -0.3780  0.6192
 9368TIP3    H149595   6.140   6.425  16.995 -0.8006  1.5774 -1.5158
 9368TIP3    H249596   6.288   6.433  17.024 -1.0465 -1.8582  1.4457
 9369TIP3   OH249597   2.220   6.533  13.566  0.2155  0.3012 -0.5633
 9369TIP3    H149598   2.243   6.616  13.525 -1.2999  1.5780  0.9919
 9369TIP3    H249599   2.172   6.486  13.498 -0.3104  1.4034 -0.9899
 9370TIP3   OH249600   3.368   1.163  15.639  0.3888 -0.5696  0.6820
 9370TIP3    H149601   3.298   1.209  15.685 -0.2954  0.4728 -1.2836
 9370TIP3    H249602   3.341   1.071  15.640 -0.0564 -0.4442  1.5173
 9371TIP3   OH249603   2.631   5.264   5.053 -0.2626 -0.6652 -0.5275
 9371TIP3    H149604   2.583   5.345   5.032  0.1220 -0.2876  0.0137
 9371TIP3    H249605   2.684   5.247   4.975 -0.4205 -0.4487 -0.6843
 9372TIP3   OH249606   0.349   2.334   2.897 -0.3597  0.9932  0.4028
 9372TIP3    H149607   0.387   2.254   2.933 -1.0262  0.1601 -0.7005
 9372TIP3    H249608   0.307   2.307   2.816 -1.9934  2.1559  0.8048
 9373TIP3   OH249609   6.202   3.663  15.666 -0.5015 -0.3630  0.1518
 9373TIP3    H149610   6.253   3.673  15.746 -0.3715  2.3146 -0.1461
 9373TIP3    H249611   6.111   3.662  15.696 -0.5478  2.2078  0.3721
 9374TIP3   OH249612   4.769   2.982   1.764  0.3232  0.6104 -0.1579
 9374TIP3    H149613   4.701   2.914   1.768  0.0683  0.9032  0.7623
 9374TIP3    H249614   4.723   3.059   1.730  0.7741  0.1498 -1.8734
 9375TIP3   OH249615   3.457   4.923   3.332  0.0735  0.1406 -0.7575
 9375TIP3    H149616   3.483   4.831   3.318  2.0236  0.6880 -1.0846
 9375TIP3    H249617   3.363   4.919   3.351  0.3120 -2.0237  0.2589
 9376TIP3   OH249618   5.187   5.281   1.121 -0.0598  0.2973 -0.1611
 9376TIP3    H149619   5.205   5.375   1.115 -1.8912  0.6113 -1.0430
 9376TIP3    H249620   5.187   5.251   1.031 -3.6813  0.3350 -0.3030
 9377TIP3   OH249621   2.304   4.182   0.869  0.6845 -0.5797  0.0103
 9377TIP3    H149622   2.289   4.205   0.961  1.0225 -0.5701  0.0614
 9377TIP3    H249623   2.236   4.116   0.850  0.7189 -0.7039  0.3113
 9378TIP3   OH249624   0.659   0.277  12.766 -0.6487  0.7529 -0.6304
 9378TIP3    H149625   0.570   0.286  12.800 -1.0406 -0.4550 -1.2628
 9378TIP3    H249626   0.683   0.187  12.788  0.0274  0.7468 -1.3752
 9379TIP3   OH249627   4.640   0.800   4.814 -0.7381 -0.2118  0.1471
 9379TIP3    H149628   4.608   0.874   4.865 -0.4762 -0.4970  0.7267
 9379TIP3    H249629   4.724   0.829   4.779 -0.4711 -0.3690  0.6654
 9380TIP3   OH249630   3.762   3.761   1.882  0.7923 -0.0600  0.0316
 9380TIP3    H149631   3.801   3.843   1.913  1.3772 -0.4762  0.4275
 9380TIP3    H249632   3.668   3.776   1.884  0.8756  0.4091  0.6570
 9381TIP3   OH249633   4.069   4.722   1.880 -0.7290  0.6954 -0.3283
 9381TIP3    H149634   4.151   4.748   1.922 -0.5773 -1.0516  0.5436
 9381TIP3    H249635   4.096   4.677   1.800 -0.7918 -0.1983  0.1376
 9382TIP3   OH249636   3.078   0.728  14.931  0.1366  0.0218 -0.0883
 9382TIP3    H149637   3.126   0.651  14.960  0.0177 -0.1503 -0.3389
 9382TIP3    H249638   3.145   0.785  14.893  0.0474 -0.5554 -1.1464
 9383TIP3   OH249639   5.779   6.148   2.187 -0.2853 -0.1673  0.3280
 9383TIP3    H149640   5.808   6.108   2.105 -0.4209  1.4750 -0.5628
 9383TIP3    H249641   5.686   6.125   2.193 -0.0321 -1.2058  0.6166
 9384TIP3   OH249642   2.544   0.317  14.730  0.2293 -0.2584  0.7138
 9384TIP3    H149643   2.507   0.314  14.819 -0.9264 -1.0066  0.2384
 9384TIP3    H249644   2.638   0.318  14.743  0.2284 -3.7156  1.9425
 9385TIP3   OH249645   4.017   5.413   3.950 -0.1550 -0.0313 -0.1693
 9385TIP3    H149646   4.072   5.435   4.026 -0.5957 -1.5171  0.6053
 9385TIP3    H249647   4.035   5.484   3.888  0.0833  1.3439  1.3670
 9386TIP3   OH249648   6.642   3.669   5.227  0.3303 -0.1123  0.0637
 9386TIP3    H149649   6.577   3.740   5.218 -1.4949 -1.8510 -1.4780
 9386TIP3    H249650   6.614   3.621   5.304 -0.2882 -0.8887 -0.6270
 9387TIP3   OH249651   1.636   4.867  11.454  0.2332 -0.4903 -0.3744
 9387TIP3    H149652   1.571   4.799  11.473  0.2059 -0.3464  0.0712
 9387TIP3    H249653   1.655   4.857  11.361 -2.1910  1.0114 -1.1053
 9388TIP3   OH249654   2.059   4.334  11.330  0.4341 -0.1646 -0.4440
 9388TIP3    H149655   2.099   4.272  11.268 -0.8950 -1.1926 -0.3294
 9388TIP3    H249656   2.026   4.404  11.275 -2.4902 -2.0082 -1.2525
 9389TIP3   OH249657   6.088   6.736  12.743  0.5838  0.3178  0.0438
 9389TIP3    H149658   6.047   6.727  12.657 -0.2403  2.1196  0.1904
 9389TIP3    H249659   6.046   6.813  12.781  2.0832  0.5068  1.4157
 9390TIP3   OH249660   1.403   1.979   2.183 -0.0687 -0.0833 -0.3760
 9390TIP3    H149661   1.334   1.914   2.174  0.6888 -0.9740  0.1640
 9390TIP3    H249662   1.419   2.010   2.094 -1.3466  0.3423 -0.4731
 9391TIP3   OH249663   4.834   4.283  17.246  0.0189 -0.0241  0.3614
 9391TIP3    H149664   4.751   4.248  17.278  0.9348 -0.9533  1.8419
 9391TIP3    H249665   4.897   4.212  17.259  1.6151  1.5473  1.9292
 9392TIP3   OH249666   3.576   6.385  13.375  0.5000  0.4511 -0.0456
 9392TIP3    H149667   3.565   6.325  13.301 -0.5516 -0.8511  1.1143
 9392TIP3    H249668   3.527   6.463  13.350  0.1979  0.0455 -0.7547
 9393TIP3   OH249669   3.324   6.518  14.840 -0.4475 -0.1201  0.6906
 9393TIP3    H149670   3.239   6.489  14.807  0.6312 -0.6374 -1.9027
 9393TIP3    H249671   3.382   6.444  14.825  1.0599  1.2090 -0.3880
 9394TIP3   OH249672   3.762   6.381  17.092  0.3258  0.2663  0.0957
 9394TIP3    H149673   3.771   6.452  17.154 -0.1944  0.1424  0.3137
 9394TIP3    H249674   3.852   6.364  17.062  0.5698  0.3508  0.7748
 9395TIP3   OH249675   6.263   2.645   2.244 -0.4917  0.2128 -0.4523
 9395TIP3    H149676   6.309   2.561   2.247  0.0140  0.4148 -1.9849
 9395TIP3    H249677   6.288   2.684   2.161  0.0661  2.3576  0.6532
 9396TIP3   OH249678   5.535   6.408   1.880  0.6884 -0.2895  0.2809
 9396TIP3    H149679   5.503   6.498   1.873  2.6090  0.3703 -0.7715
 9396TIP3    H249680   5.550   6.395   1.974  0.4006  0.4784  0.4398
 9397TIP3   OH249681   3.114   2.945   6.055  0.3769 -0.6201 -0.7100
 9397TIP3    H149682   3.067   2.983   6.129 -0.4433 -1.1310 -0.9452
 9397TIP3    H249683   3.193   2.997   6.047 -0.9200  1.3902 -1.3247
 9398TIP3   OH249684   2.660   3.224   4.433 -0.0473  0.2330  0.1638
 9398TIP3    H149685   2.566   3.239   4.430 -0.2429 -0.8087  0.4994
 9398TIP3    H249686   2.685   3.206   4.342 -0.4198 -0.7695  0.2413
 9399TIP3   OH249687   3.457   0.062  12.707 -0.4758  1.1193  0.1527
 9399TIP3    H149688   3.374   0.094  12.670 -0.4441  2.7086  1.3667
 9399TIP3    H249689   3.446   0.071  12.801  1.2723  1.9166  0.3188
 9400TIP3   OH249690   5.844   3.519  14.483 -0.0169 -0.0647  0.8714
 9400TIP3    H149691   5.801   3.497  14.400  1.0258  2.1195 -0.3415
 9400TIP3    H249692   5.776   3.563  14.534  0.1329  1.4523 -0.1702
 9401TIP3   OH249693   5.881   2.370  13.661  0.5076 -0.9941  0.4201
 9401TIP3    H149694   5.836   2.356  13.578 -1.8930 -0.7956  1.6162
 9401TIP3    H249695   5.942   2.441  13.645 -2.1880  1.2657 -0.4257
 9402TIP3   OH249696   4.399   0.252   2.095 -0.6364  0.0793  0.3055
 9402TIP3    H149697   4.476   0.207   2.059  0.6835  1.3856  1.3213
 9402TIP3    H249698   4.325   0.197   2.071  0.8299 -2.5295  1.2874
 9403TIP3   OH249699   5.621   6.151  15.730 -0.0888  0.4705 -0.2839
 9403TIP3    H149700   5.697   6.110  15.689 -0.0307  0.8976 -0.6104
 9403TIP3    H249701   5.639   6.146  15.824 -0.7215 -1.4928 -0.2194
 9404TIP3   OH249702   2.296   2.084  14.560  0.2238  0.2064 -0.0870
 9404TIP3    H149703   2.314   2.116  14.472  0.1165 -1.2835 -0.6885
 9404TIP3    H249704   2.351   2.006  14.569  0.4443  0.4873  1.2847
 9405TIP3   OH249705   4.704   5.716  17.223  0.6226  0.1285 -0.2319
 9405TIP3    H149706   4.612   5.712  17.251 -0.5918  2.5623 -3.2889
 9405TIP3    H249707   4.714   5.641  17.164  0.0751  0.7027 -1.0805
 9406TIP3   OH249708   4.298   5.722   6.212 -0.6009 -0.1322 -0.4087
 9406TIP3    H149709   4.260   5.708   6.125  0.3214  1.6467 -1.1557
 9406TIP3    H249710   4.382   5.765   6.195 -0.4073  0.2863  1.3701
 9407TIP3   OH249711   0.183   0.807   1.977 -0.0523  0.2317  0.2972
 9407TIP3    H149712   0.171   0.749   1.901  2.4423  1.5039 -1.2500
 9407TIP3    H249713   0.215   0.749   2.046 -0.9782 -0.7513 -0.0692
 9408TIP3   OH249714   0.314   6.118  11.007 -0.1926  0.2184 -0.0247
 9408TIP3    H149715   0.224   6.087  10.999 -0.4575  1.3233 -2.0084
 9408TIP3    H249716   0.365   6.057  10.953  0.0137  0.4652 -0.1101
 9409TIP3   OH249717   3.472   6.483  12.389 -0.3685 -0.2585 -0.3293
 9409TIP3    H149718   3.561   6.465  12.359 -0.8584 -0.5485 -1.6435
 9409TIP3    H249719   3.475   6.574  12.420  0.3610 -0.2460 -0.4308
 9410TIP3   OH249720   6.422   0.616  11.020 -0.0453 -0.0249 -0.2687
 9410TIP3    H149721   6.420   0.615  10.925 -0.2650 -1.1472 -0.2673
 9410TIP3    H249722   6.332   0.636  11.046 -0.1018 -0.2449 -0.2955
 9411TIP3   OH249723   6.268   0.483  15.128 -0.1841  0.3316 -0.1348
 9411TIP3    H149724   6.195   0.442  15.084 -1.9121  0.1365  2.6592
 9411TIP3    H249725   6.330   0.412  15.143 -1.5915 -0.6067  1.5875
 9412TIP3   OH249726   2.745   4.921   2.615  0.0800 -0.4885 -0.7136
 9412TIP3    H149727   2.666   4.890   2.659  0.1348  0.0382 -0.2286
 9412TIP3    H249728   2.721   4.928   2.523 -0.4832 -0.2051 -0.5482
 9413TIP3   OH249729   2.482   4.921   1.753 -0.1087  0.1082  0.0547
 9413TIP3    H149730   2.558   4.863   1.739 -0.8884 -0.6934 -1.0891
 9413TIP3    H249731   2.435   4.882   1.826 -1.2917 -1.5184 -1.4689
 9414TIP3   OH249732   3.398   6.095   5.999 -0.1417  0.4271 -0.2559
 9414TIP3    H149733   3.432   6.093   6.089  0.7060  0.6490 -0.5581
 9414TIP3    H249734   3.353   6.180   5.993  2.7515  2.0401 -1.0337
 9415TIP3   OH249735   1.468   2.295   2.606  0.2452  0.3104 -0.1590
 9415TIP3    H149736   1.417   2.316   2.684 -2.2727  0.5367 -1.7471
 9415TIP3    H249737   1.422   2.220   2.567  1.1308  0.5159 -1.6653
 9416TIP3   OH249738   2.981   6.202   4.219 -0.4886 -1.2168 -0.1336
 9416TIP3    H149739   2.886   6.189   4.223 -0.9298  0.7534 -1.9688
 9416TIP3    H249740   2.998   6.270   4.285 -0.7595 -0.0264 -1.2372
 9417TIP3   OH249741   1.162   4.473  11.319  0.0502 -0.1567 -0.0186
 9417TIP3    H149742   1.091   4.512  11.268 -0.6281 -0.0145  1.0130
 9417TIP3    H249743   1.242   4.508  11.280 -0.4725  0.3859 -0.6178
 9418TIP3   OH249744   3.649   4.969  12.644  0.0910  0.0968 -0.1450
 9418TIP3    H149745   3.720   4.960  12.579  1.2989  0.9636  1.0007
 9418TIP3    H249746   3.660   4.894  12.702  1.1468  1.1095  1.0044
 9419TIP3   OH249747   6.419   3.392   1.826  0.1217  0.8381 -0.1903
 9419TIP3    H149748   6.386   3.342   1.900  1.2708  0.8735  0.3738
 9419TIP3    H249749   6.408   3.334   1.751  1.0753 -0.1418  0.3896
 9420TIP3   OH249750   3.307   3.480  13.796 -0.6342  0.0350  0.0456
 9420TIP3    H149751   3.304   3.387  13.771 -1.5999 -0.1077  0.6290
 9420TIP3    H249752   3.385   3.514  13.752  0.2701 -1.2656  0.5826
 9421TIP3   OH249753   2.521   2.364   3.628 -0.4818  0.3846  0.0696
 9421TIP3    H149754   2.554   2.382   3.540 -0.8601  0.6747 -0.0145
 9421TIP3    H249755   2.593   2.318   3.671 -0.3129  0.1982 -0.4041
 9422TIP3   OH249756   2.006   0.252   2.391  0.3427 -0.2330  0.2738
 9422TIP3    H149757   1.987   0.310   2.465  4.6060  0.0562  1.3988
 9422TIP3    H249758   2.070   0.190   2.426  2.5260 -0.1254 -3.1116
 9423TIP3   OH249759   4.697   0.560   5.124 -0.9371  0.5122 -0.5629
 9423TIP3    H149760   4.711   0.630   5.059  0.3099  0.4581 -0.3696
 9423TIP3    H249761   4.620   0.514   5.092  1.1432 -1.2100 -3.5752
 9424TIP3   OH249762   3.165   4.258   4.180 -0.2901  0.0514  0.4830
 9424TIP3    H149763   3.172   4.216   4.266 -0.4314 -0.2427  0.3532
 9424TIP3    H249764   3.208   4.198   4.121 -0.6957 -0.0231  0.2573
 9425TIP3   OH249765   2.105   1.635  15.152 -0.8795 -0.3985  0.0610
 9425TIP3    H149766   2.162   1.706  15.179 -0.3314 -1.3062  1.4409
 9425TIP3    H249767   2.018   1.674  15.146 -0.1401  1.0720 -2.3751
 9426TIP3   OH249768   3.493   3.365   2.548 -0.1077 -0.4552  1.2677
 9426TIP3    H149769   3.586   3.345   2.557  0.1365 -0.7466 -1.1969
 9426TIP3    H249770   3.488   3.461   2.555  0.5582 -0.3414  0.3609
 9427TIP3   OH249771   0.966   6.751   3.350 -0.5134 -0.1683  0.3027
 9427TIP3    H149772   0.908   6.808   3.300 -0.3081 -0.4171 -0.2311
 9427TIP3    H249773   0.915   6.725   3.426 -0.9973 -0.1488 -0.0142
 9428TIP3   OH249774   3.374   1.795   3.123 -0.2021 -0.0569  0.1895
 9428TIP3    H149775   3.287   1.793   3.163 -0.6714 -1.5821 -0.8179
 9428TIP3    H249776   3.410   1.708   3.140 -0.1995 -0.5666 -2.1213
 9429TIP3   OH249777   1.361   4.817  11.079 -0.5544  0.6889 -0.0571
 9429TIP3    H149778   1.345   4.729  11.114 -0.2483  0.3142 -0.8472
 9429TIP3    H249779   1.291   4.831  11.016 -0.0913  0.6505 -0.5871
 9430TIP3   OH249780   1.378   2.830  15.890  0.0955  0.3008 -0.0285
 9430TIP3    H149781   1.315   2.893  15.857  0.0252 -0.5505 -1.6029
 9430TIP3    H249782   1.336   2.792  15.968 -0.0225  1.8666  0.7004
 9431TIP3   OH249783   5.053   4.006  15.351  0.7019  0.2646 -0.0922
 9431TIP3    H149784   5.104   3.959  15.417 -0.7998 -0.5578  0.5273
 9431TIP3    H249785   4.967   3.965  15.353 -0.5527  2.7155  0.1270
 9432TIP3   OH249786   6.748   6.316  12.313  0.6562 -0.5880 -0.1084
 9432TIP3    H149787   6.773   6.223  12.317 -0.6635 -0.9322  0.8553
 9432TIP3    H249788   6.667   6.316  12.263 -0.5492 -0.2638  1.7406
 9433TIP3   OH249789   4.694   5.143   0.510 -0.0111  0.5615 -0.1036
 9433TIP3    H149790   4.610   5.191   0.515 -1.4279 -1.8636  3.2831
 9433TIP3    H249791   4.669   5.053   0.491  2.1104  0.1284 -1.1321
 9434TIP3   OH249792   1.524   3.818   4.138 -0.2466 -0.2932 -0.0504
 9434TIP3    H149793   1.472   3.747   4.176 -0.7234 -0.4235 -0.9246
 9434TIP3    H249794   1.570   3.777   4.064 -0.5304  0.3116 -0.5617
 9435TIP3   OH249795   1.146   3.673   2.495 -0.1778 -0.7912 -0.2194
 9435TIP3    H149796   1.152   3.597   2.552 -2.4535 -1.8625 -1.2569
 9435TIP3    H249797   1.071   3.722   2.528 -0.0473 -0.1498 -0.8418
 9436TIP3   OH249798   3.959   0.446  16.775 -0.3613 -0.1547 -0.2143
 9436TIP3    H149799   4.026   0.495  16.823 -0.3907  2.1821 -2.3531
 9436TIP3    H249800   3.999   0.428  16.690 -2.0822  0.5085 -1.2154
 9437TIP3   OH249801   5.946   1.133   2.942 -0.0665 -0.4479  0.0150
 9437TIP3    H149802   5.868   1.159   2.991 -0.5664 -0.3351 -0.8152
 9437TIP3    H249803   5.918   1.135   2.850  1.0126 -0.0471 -0.3213
 9438TIP3   OH249804   2.459   0.280  10.897  0.1248 -0.1212 -0.2213
 9438TIP3    H149805   2.396   0.222  10.856  1.4171 -0.9403 -1.0988
 9438TIP3    H249806   2.517   0.307  10.827 -0.1225  1.8720  0.2545
 9439TIP3   OH249807   4.020   2.945  11.126  0.0825  0.1086 -0.1455
 9439TIP3    H149808   4.000   2.998  11.049 -0.9147  0.5624  0.4124
 9439TIP3    H249809   3.961   2.870  11.119 -0.2379  0.3137  0.3432
 9440TIP3   OH249810   5.444   1.889   1.353 -0.5267  0.5403 -0.2040
 9440TIP3    H149811   5.386   1.813   1.341 -1.9627  0.8969  3.2797
 9440TIP3    H249812   5.507   1.861   1.419  1.9694  0.9422 -2.2932
 9441TIP3   OH249813   4.309   3.354  14.131  0.0192 -0.5201  0.2567
 9441TIP3    H149814   4.322   3.446  14.152 -3.2287  0.0218  0.3854
 9441TIP3    H249815   4.247   3.323  14.198 -0.4926 -2.2455 -0.9602
 9442TIP3   OH249816   2.669   1.960  11.299 -0.4617  0.1955 -0.4723
 9442TIP3    H149817   2.579   1.932  11.315 -0.3111 -0.2540 -0.3835
 9442TIP3    H249818   2.678   2.042  11.347  0.1550 -1.3721  2.3015
 9443TIP3   OH249819   1.486   1.530  15.211 -0.5393  0.6109  0.2726
 9443TIP3    H149820   1.562   1.482  15.241 -0.9748  0.5001  1.2390
 9443TIP3    H249821   1.495   1.532  15.115 -0.2740 -0.9846  0.2309
 9444TIP3   OH249822   4.693   4.373   3.580 -0.0070  0.4111  0.0162
 9444TIP3    H149823   4.761   4.357   3.514 -0.9177  2.0195 -1.3917
 9444TIP3    H249824   4.667   4.285   3.608  2.1623 -0.2629  0.1283
 9445TIP3   OH249825   0.039   2.440   0.216  0.3025  0.4393  0.4430
 9445TIP3    H149826  -0.023   2.487   0.160  0.4450  0.0408 -0.0524
 9445TIP3    H249827   0.070   2.367   0.163  1.2721  0.6876  0.6412
 9446TIP3   OH249828   1.007   2.487   6.531  0.4614 -0.5805  0.7387
 9446TIP3    H149829   0.978   2.578   6.523  0.1439 -0.7653 -0.2794
 9446TIP3    H249830   0.929   2.439   6.558  0.7476 -0.4831  1.7779
 9447TIP3   OH249831   1.081   5.142   5.595  0.3622  0.0800  0.3749
 9447TIP3    H149832   1.126   5.227   5.596 -0.1077  0.3684 -0.9668
 9447TIP3    H249833   0.993   5.163   5.627 -0.0008  0.2642 -0.7164
 9448TIP3   OH249834   1.277   4.349  13.610 -0.6231 -0.5041  0.0191
 9448TIP3    H149835   1.266   4.425  13.668  4.7038  0.6039  0.0928
 9448TIP3    H249836   1.253   4.382  13.524 -0.6528  0.4912  0.3915
 9449TIP3   OH249837   6.565   2.538   2.730  0.4959 -0.2044 -0.3092
 9449TIP3    H149838   6.525   2.472   2.675 -1.2278 -0.2211  0.8715
 9449TIP3    H249839   6.622   2.489   2.789  1.2385 -0.3309 -1.1115
 9450TIP3   OH249840   6.361   0.913  15.303 -0.4241 -0.1825 -0.5731
 9450TIP3    H149841   6.281   0.951  15.268 -1.4895  0.3207  2.1761
 9450TIP3    H249842   6.367   0.947  15.392  1.3646 -2.4311  0.2590
 9451TIP3   OH249843   2.298   3.557  12.166  0.2730  0.3691 -0.0679
 9451TIP3    H149844   2.280   3.540  12.258  2.0546 -1.3024  0.0489
 9451TIP3    H249845   2.246   3.634  12.144 -1.8737 -0.4641  1.7392
 9452TIP3   OH249846   1.914   5.638  16.157  0.0272  0.5061 -0.0167
 9452TIP3    H149847   1.852   5.583  16.109  0.5055  0.1243 -0.1969
 9452TIP3    H249848   1.996   5.630  16.109  0.7805 -0.6511  1.3975
 9453TIP3   OH249849   0.208   3.760   0.747  0.3170 -0.0338 -0.3128
 9453TIP3    H149850   0.154   3.699   0.798  0.7483 -1.0137 -0.9941
 9453TIP3    H249851   0.287   3.710   0.727 -0.5372 -0.3252 -3.3990
 9454TIP3   OH249852   1.048   0.288  16.144 -0.4503 -0.6342 -0.1686
 9454TIP3    H149853   1.029   0.235  16.068  1.0101  0.7093 -1.5400
 9454TIP3    H249854   0.964   0.329  16.167 -0.9568 -1.2762 -0.8564
 9455TIP3   OH249855   2.000   5.217   4.996  0.0371  0.3589  0.1395
 9455TIP3    H149856   2.066   5.189   5.060  0.0825  3.3398  1.5529
 9455TIP3    H249857   2.001   5.313   5.001 -3.1288  0.5776 -1.1387
 9456TIP3   OH249858   3.557   4.073  11.933  0.4439  0.1617 -0.9749
 9456TIP3    H149859   3.615   4.124  11.877  0.6964  2.1929  1.0109
 9456TIP3    H249860   3.604   3.991  11.948  1.7980  0.8747 -1.1845
 9457TIP3   OH249861   1.457   2.808   0.704  0.0001  0.1383  0.0002
 9457TIP3    H149862   1.432   2.831   0.615  0.6274  0.5592 -0.0775
 9457TIP3    H249863   1.517   2.735   0.695 -0.7788 -0.5276  0.1518
 9458TIP3   OH249864   0.324   3.944   5.833 -0.4065 -0.0722  0.0859
 9458TIP3    H149865   0.392   3.876   5.828  1.0028  0.9557  3.0390
 9458TIP3    H249866   0.250   3.899   5.873 -0.6120 -0.5838 -0.8317
 9459TIP3   OH249867   5.090   0.592   2.043  0.1456  0.3544 -0.1828
 9459TIP3    H149868   5.088   0.649   1.966  0.7100  0.4458 -0.1286
 9459TIP3    H249869   5.178   0.601   2.078 -0.3436  0.9279  0.9430
 9460TIP3   OH249870   3.986   5.822  14.333 -0.1483  0.7648  0.1619
 9460TIP3    H149871   4.015   5.913  14.323  1.9847  0.0153 -1.1690
 9460TIP3    H249872   3.976   5.790  14.244 -2.1132 -0.0025  0.6009
 9461TIP3   OH249873   1.754   6.421  13.632 -0.2060 -0.2716 -0.2770
 9461TIP3    H149874   1.754   6.338  13.680  0.3114  0.2468  0.6422
 9461TIP3    H249875   1.669   6.424  13.589 -1.3157 -0.0441  1.8309
 9462TIP3   OH249876   5.578   0.382  11.210  0.2571 -0.5788  0.0154
 9462TIP3    H149877   5.636   0.452  11.240  0.5306 -0.6246 -0.3817
 9462TIP3    H249878   5.502   0.427  11.173  0.8981 -0.4307 -1.1992
 9463TIP3   OH249879   1.532   6.511   3.399  0.0463 -0.5000 -0.4974
 9463TIP3    H149880   1.561   6.486   3.487  1.9579  0.2107 -0.8768
 9463TIP3    H249881   1.574   6.446   3.341  0.5922  0.3279 -1.0453
 9464TIP3   OH249882   5.605   3.794  13.800 -0.2102  0.3562 -0.0344
 9464TIP3    H149883   5.537   3.765  13.860 -0.8572  0.5742 -0.6410
 9464TIP3    H249884   5.560   3.804  13.716 -0.4290  4.3572  0.3465
 9465TIP3   OH249885   4.733   3.134   0.379  0.2806  0.3602  0.1264
 9465TIP3    H149886   4.679   3.212   0.376  0.3561  0.4284  0.6052
 9465TIP3    H249887   4.742   3.108   0.287  0.5976  1.1475 -0.0762
 9466TIP3   OH249888   0.364   4.487  14.838  0.0513  0.5850 -0.1031
 9466TIP3    H149889   0.302   4.418  14.815 -0.1203  0.7998 -0.2887
 9466TIP3    H249890   0.447   4.457  14.803 -0.1191  0.6990 -0.6124
 9467TIP3   OH249891   6.277   1.092   1.474 -0.2358 -0.4967 -0.4850
 9467TIP3    H149892   6.334   1.144   1.417 -0.5372 -0.1701 -0.4852
 9467TIP3    H249893   6.338   1.049   1.534  0.0505 -0.5145 -0.7829
 9468TIP3   OH249894   5.642   6.722   2.192  0.2207 -0.2921 -0.2754
 9468TIP3    H149895   5.710   6.786   2.175 -1.3235  1.4520 -0.1907
 9468TIP3    H249896   5.578   6.735   2.121 -0.2322 -1.6198 -0.1539
 9469TIP3   OH249897   3.066   5.167   2.131 -0.1298 -0.9480  0.1829
 9469TIP3    H149898   3.001   5.149   2.062 -0.4602  1.0681 -0.0761
 9469TIP3    H249899   3.084   5.260   2.123  0.8050 -0.9423  2.0108
 9470TIP3   OH249900   5.586   6.482  12.400  0.3117  0.8750  0.6141
 9470TIP3    H149901   5.521   6.512  12.464 -1.4031 -0.5508 -0.3714
 9470TIP3    H249902   5.534   6.454  12.325  2.0350 -1.0599  0.0640
 9471TIP3   OH249903   1.413   2.300   2.914 -0.0956 -0.5559 -0.6228
 9471TIP3    H149904   1.434   2.390   2.886 -1.6486 -0.0942 -0.3846
 9471TIP3    H249905   1.329   2.308   2.959  1.2239 -1.6446  2.2206
 9472TIP3   OH249906   4.554   3.293   1.347 -0.3221 -0.1659  0.3828
 9472TIP3    H149907   4.634   3.240   1.347  1.1255  1.8845  0.7393
 9472TIP3    H249908   4.551   3.331   1.260  0.1841  1.2550  0.9572
 9473TIP3   OH249909   4.114   1.290  16.627  0.3422  0.2730 -0.4460
 9473TIP3    H149910   4.030   1.249  16.648  0.5316  0.0399 -0.1322
 9473TIP3    H249911   4.090   1.374  16.586 -0.0846  1.7827  2.6019
 9474TIP3   OH249912   1.719   5.200   2.501  0.6462 -0.1988  0.1006
 9474TIP3    H149913   1.783   5.131   2.517  0.4363 -0.3791  0.1672
 9474TIP3    H249914   1.721   5.213   2.406  1.3055  0.3050  0.1783
 9475TIP3   OH249915   1.837   2.086   4.095 -0.7326  0.8794  0.0289
 9475TIP3    H149916   1.826   2.181   4.096 -0.3894  0.9733 -2.0657
 9475TIP3    H249917   1.816   2.060   4.005  0.3504 -0.8859  0.2459
 9476TIP3   OH249918   5.318   1.079  16.499 -0.0423 -0.4742  0.2914
 9476TIP3    H149919   5.319   1.146  16.431 -1.2014 -0.2380  0.4796
 9476TIP3    H249920   5.402   1.089  16.545 -0.4265  1.2510  0.6936
 9477TIP3   OH249921   1.216   0.956  11.398 -0.2974 -0.3625  0.2166
 9477TIP3    H149922   1.142   0.905  11.366 -0.1053 -0.5974  0.1462
 9477TIP3    H249923   1.293   0.902  11.379 -0.2310 -0.8348  1.7588
 9478TIP3   OH249924   2.550   3.076   0.245 -0.0451 -0.1160 -0.6393
 9478TIP3    H149925   2.595   2.995   0.222 -1.6892 -1.4367  0.5384
 9478TIP3    H249926   2.461   3.064   0.212 -0.8069  0.4136  1.0947
 9479TIP3   OH249927   0.312   2.746   5.284  0.1939  0.1778 -0.1409
 9479TIP3    H149928   0.375   2.790   5.341 -0.1879 -1.5800  1.7663
 9479TIP3    H249929   0.230   2.791   5.301  0.2032  0.0486  0.2741
 9480TIP3   OH249930   6.802   0.230  14.067  0.0825  0.1229  0.6605
 9480TIP3    H149931   6.710   0.203  14.071 -0.8431  2.1047 -2.8975
 9480TIP3    H249932   6.799   0.325  14.076  1.6640  0.2864 -0.2089
 9481TIP3   OH249933   4.149   6.023   5.899  0.4392 -0.1148  0.0201
 9481TIP3    H149934   4.133   5.965   5.825  0.2388  1.5601 -1.3144
 9481TIP3    H249935   4.242   6.015   5.917  0.2935 -1.3457  0.3361
 9482TIP3   OH249936   4.759   1.063  14.018 -0.3606 -0.0811  0.1617
 9482TIP3    H149937   4.800   0.978  14.030 -0.4064  0.0049  0.9434
 9482TIP3    H249938   4.709   1.054  13.937  1.0910 -0.2225 -0.7601
 9483TIP3   OH249939   3.716   1.077  13.864 -0.4382  0.1003 -0.3662
 9483TIP3    H149940   3.621   1.090  13.863 -0.7402 -0.6669  3.4393
 9483TIP3    H249941   3.750   1.156  13.905  0.3474 -0.4205  0.0082
 9484TIP3   OH249942   5.668   1.287   5.868 -0.0404 -0.3307 -0.5033
 9484TIP3    H149943   5.687   1.322   5.781 -3.0603  1.1620 -0.7014
 9484TIP3    H249944   5.629   1.360   5.915  1.5773 -1.0758  2.2116
 9485TIP3   OH249945   5.780   6.558   1.732 -0.0522 -0.1368 -0.2641
 9485TIP3    H149946   5.691   6.558   1.769  0.0827 -2.2982  0.1899
 9485TIP3    H249947   5.768   6.531   1.641 -0.1698  3.2016 -1.3667
 9486TIP3   OH249948   1.888   5.921   3.201 -0.3583 -0.1038  0.0239
 9486TIP3    H149949   1.807   5.912   3.251 -0.7043 -1.7273 -0.7775
 9486TIP3    H249950   1.859   5.935   3.111  0.1997 -1.9197 -0.4820
 9487TIP3   OH249951   0.169   2.177  14.852 -0.1088 -0.1681 -0.4570
 9487TIP3    H149952   0.191   2.088  14.825  0.7896 -0.0351 -0.2148
 9487TIP3    H249953   0.201   2.232  14.781  2.8029  0.2279  1.0195
 9488TIP3   OH249954   4.820   3.485   5.720 -0.1496  0.0922 -0.4476
 9488TIP3    H149955   4.797   3.560   5.774  0.9057  0.5627 -0.6176
 9488TIP3    H249956   4.851   3.523   5.638  1.1539 -0.4807 -0.2417
 9489TIP3   OH249957   3.980   3.716   5.659 -0.7541  0.0668 -0.3252
 9489TIP3    H149958   4.012   3.738   5.746 -1.2156 -0.8279  0.0861
 9489TIP3    H249959   3.886   3.736   5.662 -0.4422  1.8027 -1.2261
 9490TIP3   OH249960   3.713   2.635   0.825 -0.3231  0.6459  0.3325
 9490TIP3    H149961   3.702   2.610   0.733  1.6027 -0.8989  0.4590
 9490TIP3    H249962   3.753   2.722   0.821 -1.0922  0.9864 -0.2549
 9491TIP3   OH249963   0.261   2.606   4.837 -0.1001  0.6023 -0.4902
 9491TIP3    H149964   0.181   2.652   4.864 -1.4858 -1.5720 -0.5895
 9491TIP3    H249965   0.309   2.593   4.918 -1.4152 -0.7862  0.1247
 9492TIP3   OH249966   2.827   3.337   0.200 -0.0270 -0.3658 -0.2260
 9492TIP3    H149967   2.831   3.383   0.284  1.6250  2.7674 -1.8465
 9492TIP3    H249968   2.733   3.322   0.185 -0.6031  1.7999  0.8218
 9493TIP3   OH249969   4.826   3.752   2.792 -0.0801 -0.4253 -0.4150
 9493TIP3    H149970   4.754   3.729   2.734 -1.0746 -0.2870  0.7415
 9493TIP3    H249971   4.895   3.689   2.771 -0.0463  0.1959 -2.3858
 9494TIP3   OH249972   5.497   5.561  16.693 -0.0547  0.2673  0.0910
 9494TIP3    H149973   5.422   5.501  16.691 -0.0528  0.2663 -1.6589
 9494TIP3    H249974   5.573   5.503  16.699 -0.1215  0.1882  0.1950
 9495TIP3   OH249975   1.209   6.640   2.887 -0.5405  0.0348  0.0734
 9495TIP3    H149976   1.254   6.677   2.812  0.8750 -2.4762 -0.4024
 9495TIP3    H249977   1.181   6.717   2.938  0.3663  1.7493 -1.8639
 9496TIP3   OH249978   3.148   6.262   0.519  0.3328 -0.3207  0.7297
 9496TIP3    H149979   3.174   6.351   0.495  0.5419 -0.8355 -1.0551
 9496TIP3    H249980   3.053   6.261   0.506  0.4235 -0.5535  0.0777
 9497TIP3   OH249981   5.915   0.696  14.108  0.0043 -0.0732  0.2925
 9497TIP3    H149982   5.845   0.713  14.045 -0.4008  0.4384  0.8721
 9497TIP3    H249983   5.897   0.755  14.181  0.1166 -1.0655  1.1573
 9498TIP3   OH249984   1.807   5.448  12.399 -0.8904 -0.2852  0.3289
 9498TIP3    H149985   1.784   5.435  12.491 -3.2619  0.1221 -0.1360
 9498TIP3    H249986   1.796   5.362  12.359  3.6286 -1.3791  0.9546
 9499TIP3   OH249987   2.881   3.079  13.200  0.5737 -0.2006  0.1290
 9499TIP3    H149988   2.893   2.985  13.186  0.3609 -0.4840  1.7404
 9499TIP3    H249989   2.952   3.104  13.258 -0.9441  0.0617  1.9485
 9500TIP3   OH249990   5.832   3.179   2.677 -0.1746 -0.4959 -0.4886
 9500TIP3    H149991   5.804   3.262   2.714  0.8332 -1.1680  2.0136
 9500TIP3    H249992   5.790   3.175   2.591 -0.1281  2.6156 -0.7522
 9501TIP3   OH249993   2.168   5.172  16.799  0.3506  0.6611 -0.3963
 9501TIP3    H149994   2.243   5.199  16.852  1.0883 -1.0487 -0.4955
 9501TIP3    H249995   2.135   5.093  16.842 -1.0887  1.0788 -0.6556
 9502TIP3   OH249996   0.971   0.461   3.191 -0.0028 -0.5369  0.2691
 9502TIP3    H149997   0.994   0.437   3.101 -0.7192 -3.1408  0.6999
 9502TIP3    H249998   1.027   0.407   3.245 -0.5363  0.0095  1.3989
 9503TIP3   OH249999   4.335   6.730  11.800 -0.2233  0.1141  0.2980
 9503TIP3    H150000   4.331   6.661  11.867 -1.5007  0.3102  0.4500
 9503TIP3    H250001   4.326   6.683  11.717 -2.3877  0.1316  0.4443
 9504TIP3   OH250002   4.371   1.466   4.677 -0.5856  0.2550  0.4121
 9504TIP3    H150003   4.284   1.433   4.699 -0.3497 -0.3955  0.3941
 9504TIP3    H250004   4.358   1.518   4.597 -0.7908 -0.7127 -0.1942
 9505TIP3   OH250005   6.162   5.429   3.088 -0.2202 -0.0806 -0.0429
 9505TIP3    H150006   6.088   5.469   3.043  0.1817 -0.5490 -1.1649
 9505TIP3    H250007   6.161   5.468   3.175  0.4403  2.7607 -1.1875
 9506TIP3   OH250008   4.269   1.732   0.968  0.2448  0.5243 -0.1681
 9506TIP3    H150009   4.311   1.730   0.882  0.8580  1.9836  0.0676
 9506TIP3    H250010   4.304   1.656   1.014  0.8886  0.4427 -0.7710
 9507TIP3   OH250011   1.965   4.624   5.582 -0.7097  0.6701  0.2599
 9507TIP3    H150012   1.921   4.539   5.586  0.4304  0.0198 -0.2978
 9507TIP3    H250013   1.928   4.667   5.505  1.0108 -0.7351 -1.4654
 9508TIP3   OH250014   0.415   4.177   5.987  0.0973 -0.7300 -0.2118
 9508TIP3    H150015   0.423   4.118   5.913 -1.9564 -1.3906  0.0430
 9508TIP3    H250016   0.411   4.120   6.064  1.1135 -0.0952  0.3546
 9509TIP3   OH250017   1.353   2.045   2.525  0.1428 -0.0112  0.6013
 9509TIP3    H150018   1.293   1.979   2.491  0.7454 -0.1134 -0.2933
 9509TIP3    H250019   1.380   2.012   2.611 -0.6059 -0.2535  0.7492
 9510TIP3   OH250020   6.589   6.291  15.809  0.6114  0.0754  0.0456
 9510TIP3    H150021   6.529   6.264  15.739  0.6406 -0.4687  0.2284
 9510TIP3    H250022   6.650   6.352  15.766  1.0132 -0.7266 -0.5590
 9511TIP3   OH250023   0.377   2.551  11.506  0.3202  0.3846 -0.8482
 9511TIP3    H150024   0.471   2.567  11.506 -0.0409  2.9607 -1.5831
 9511TIP3    H250025   0.346   2.586  11.589  0.0686 -1.1726 -0.2525
 9512TIP3   OH250026   3.928   1.171   3.130  0.3621 -0.0770 -0.1593
 9512TIP3    H150027   3.875   1.237   3.174  1.2351 -0.0788  0.9682
 9512TIP3    H250028   3.884   1.088   3.148  2.0668 -0.4474  3.1850
 9513TIP3   OH250029   1.605   0.066   4.815 -0.1622  0.3541 -0.1629
 9513TIP3    H150030   1.588   0.113   4.733 -0.7673 -1.3428 -1.0568
 9513TIP3    H250031   1.688   0.101   4.846 -1.0111  2.6531 -0.2776
 9514TIP3   OH250032   5.226   4.700   1.269 -0.0195  0.0014  0.0807
 9514TIP3    H150033   5.187   4.628   1.318  0.0621 -0.5793 -0.6954
 9514TIP3    H250034   5.301   4.726   1.321  1.2429 -1.9180 -0.6630
 9515TIP3   OH250035   5.240   5.012  12.547 -0.0499 -0.1351  0.2095
 9515TIP3    H150036   5.262   5.074  12.616 -0.4771 -1.4455  1.5835
 9515TIP3    H250037   5.175   5.058  12.493  0.4929  1.0084  0.4937
 9516TIP3   OH250038   4.161   3.626  13.375 -0.1535  0.3360  0.4439
 9516TIP3    H150039   4.138   3.717  13.392  1.4210  0.5784  1.5617
 9516TIP3    H250040   4.256   3.628  13.360 -0.4029 -0.8479 -1.7134
 9517TIP3   OH250041   4.009   1.236  11.100 -0.1571 -0.6407 -0.2396
 9517TIP3    H150042   4.033   1.323  11.070 -1.0321 -0.0104  0.8119
 9517TIP3    H250043   4.022   1.179  11.024 -1.6210  0.7545 -1.5880
 9518TIP3   OH250044   6.167   1.241  11.033  0.6666 -0.4667  0.4082
 9518TIP3    H150045   6.105   1.254  11.105  1.0560 -2.2501  1.1206
 9518TIP3    H250046   6.199   1.152  11.045  1.1070 -0.6366 -1.7266
 9519TIP3   OH250047   5.929   0.986  15.751  0.4531  0.5380 -0.0575
 9519TIP3    H150048   6.023   0.992  15.769  0.6432 -2.8938  0.7979
 9519TIP3    H250049   5.924   0.943  15.666 -0.3837  1.2058 -0.3552
 9520TIP3   OH250050   0.912   4.776  13.676 -0.2595  0.2788 -0.9243
 9520TIP3    H150051   0.956   4.809  13.598  0.2969  0.5944 -0.4795
 9520TIP3    H250052   0.941   4.685  13.683  1.0774  0.7443 -0.1153
 9521TIP3   OH250053   1.061   5.837  10.841  0.0573  0.2801 -0.3143
 9521TIP3    H150054   1.049   5.870  10.752 -0.2161  1.6216  0.2005
 9521TIP3    H250055   0.973   5.835  10.878  0.3368  1.3171  0.4508
 9522TIP3   OH250056   1.073   5.757   6.070 -0.1638  0.2787 -0.2712
 9522TIP3    H150057   1.154   5.802   6.047  0.6623 -1.3778 -0.7676
 9522TIP3    H250058   1.102   5.674   6.109 -1.6232 -0.4721 -0.7190
 9523TIP3   OH250059   0.339   6.160   3.507  0.4053  0.0930 -0.0097
 9523TIP3    H150060   0.261   6.113   3.477  0.4630 -0.3634  0.5270
 9523TIP3    H250061   0.400   6.157   3.433 -0.1034  0.5078 -0.4560
 9524TIP3   OH250062   4.125   5.943  16.561 -0.4964 -0.3980  0.6843
 9524TIP3    H150063   4.116   5.897  16.645 -0.3402 -0.4134  0.6928
 9524TIP3    H250064   4.210   5.913  16.526 -0.3080  0.0272  0.7747
 9525TIP3   OH250065   1.884   4.599  15.528  0.7193  0.0844  0.2324
 9525TIP3    H150066   1.847   4.513  15.509 -1.0106  0.6834  0.7312
 9525TIP3    H250067   1.810   4.653  15.554  1.9614  1.3284  1.4157
 9526TIP3   OH250068   1.332   5.134   2.332  0.0196  0.5882 -0.1966
 9526TIP3    H150069   1.279   5.177   2.265 -0.0183  1.0620  0.1346
 9526TIP3    H250070   1.359   5.052   2.292 -3.5881 -1.2486  0.6603
 9527TIP3   OH250071   2.151   4.412  16.863  0.4466  0.2126  0.5708
 9527TIP3    H150072   2.241   4.414  16.830  0.2232  2.5652 -0.1097
 9527TIP3    H250073   2.099   4.380  16.788  0.6115 -0.2868  0.6692
 9528TIP3   OH250074   0.512   4.545  15.214  0.1689  0.4743 -0.4714
 9528TIP3    H150075   0.542   4.485  15.147  0.1637 -0.6972  0.5446
 9528TIP3    H250076   0.420   4.521  15.230  0.0948  0.8988 -0.2239
 9529TIP3   OH250077   4.658   1.572   4.099 -0.2151 -0.0247 -0.3725
 9529TIP3    H150078   4.581   1.628   4.103 -0.7030 -0.4962 -2.2633
 9529TIP3    H250079   4.650   1.513   4.174  0.3714  2.4067  1.7608
 9530TIP3   OH250080   6.671   1.305  10.839 -0.2002 -0.0389 -0.6188
 9530TIP3    H150081   6.636   1.270  10.921 -1.9752  1.1231 -0.8110
 9530TIP3    H250082   6.762   1.325  10.858 -0.6127  0.3563  1.1456
 9531TIP3   OH250083   2.343   6.585   5.241  0.0453  0.5331  0.0885
 9531TIP3    H150084   2.277   6.595   5.310 -0.4768  0.6022 -0.4113
 9531TIP3    H250085   2.343   6.491   5.222 -0.6159  0.6588 -0.5830
 9532TIP3   OH250086   4.960   1.501   4.694 -0.2484 -0.2269  0.0193
 9532TIP3    H150087   4.945   1.469   4.784 -1.0692  0.3473  0.0966
 9532TIP3    H250088   4.906   1.443   4.640  0.4161 -0.7135 -0.1426
 9533TIP3   OH250089   3.525   3.093  11.138  0.4184  0.0840 -0.3570
 9533TIP3    H150090   3.461   3.103  11.208 -0.8644 -2.7893 -0.9672
 9533TIP3    H250091   3.486   3.029  11.078  2.7245  0.2277 -2.1730
 9534TIP3   OH250092   2.450   2.149   1.160  0.3051  0.9576  0.5889
 9534TIP3    H150093   2.454   2.091   1.236  0.9739  0.6203  0.3139
 9534TIP3    H250094   2.431   2.090   1.087  0.6458  1.1264  0.3584
 9535TIP3   OH250095   2.486   0.751   4.619 -0.0380 -0.1439 -0.4829
 9535TIP3    H150096   2.491   0.838   4.658  1.5077 -0.5882  0.4047
 9535TIP3    H250097   2.406   0.712   4.654  0.0440  0.3817  0.3096
 9536TIP3   OH250098   4.574   3.507  16.113  0.2383 -0.0420 -0.2223
 9536TIP3    H150099   4.548   3.466  16.030 -0.2900  1.7626 -0.9934
 9536TIP3    H250100   4.563   3.438  16.178  0.4186 -1.4292 -1.6131
 9537TIP3   OH250101   1.750   4.413   2.957  0.3359  0.5530 -0.0209
 9537TIP3    H150102   1.830   4.373   2.921 -0.3622 -0.6291 -0.3132
 9537TIP3    H250103   1.681   4.385   2.897 -0.1151  2.8280 -0.6616
 9538TIP3   OH250104   6.754   4.598  15.355 -0.0152  0.4219  0.2331
 9538TIP3    H150105   6.742   4.692  15.345 -0.2907  0.1421 -3.1669
 9538TIP3    H250106   6.848   4.584  15.346  0.0772  0.3659  1.1544
 9539TIP3   OH250107   2.873   0.220   2.907  0.7248  0.7596  0.5855
 9539TIP3    H150108   2.951   0.233   2.853  0.1517 -2.1998 -1.1773
 9539TIP3    H250109   2.805   0.270   2.861  1.1938  2.1579  1.3301
 9540TIP3   OH250110   4.056   3.215   3.216  0.0321  0.2411  0.3689
 9540TIP3    H150111   4.032   3.271   3.290  1.6373  0.7853  0.5153
 9540TIP3    H250112   4.099   3.274   3.154 -1.7977 -0.0949 -1.2992
 9541TIP3   OH250113   0.891   5.404  17.302  0.1002  0.0534  0.0242
 9541TIP3    H150114   0.938   5.323  17.320  0.7915  0.5774  0.6457
 9541TIP3    H250115   0.846   5.388  17.219  0.8747 -0.6800 -0.2669
 9542TIP3   OH250116   4.866   5.492  11.066 -0.2149  0.2660 -0.1680
 9542TIP3    H150117   4.909   5.451  10.991  0.5149 -0.6617  0.7307
 9542TIP3    H250118   4.788   5.439  11.081  0.1989 -0.2029  0.3714
 9543TIP3   OH250119   0.449   5.755   1.050 -0.3839  0.1560 -0.1584
 9543TIP3    H150120   0.371   5.775   0.999 -1.8415 -0.1153  1.8626
 9543TIP3    H250121   0.416   5.719   1.132  1.9081 -1.1886  0.2641
 9544TIP3   OH250122   6.790   6.579  15.573 -0.2484  0.2530  0.7110
 9544TIP3    H150123   6.841   6.634  15.512 -1.1206 -1.1691 -1.4266
 9544TIP3    H250124   6.856   6.531  15.623  0.6472 -1.3854 -1.8298
 9545TIP3   OH250125   1.151   2.866  12.770 -0.7841 -0.3000  0.4226
 9545TIP3    H150126   1.172   2.905  12.685  0.0531 -1.3901  0.1158
 9545TIP3    H250127   1.207   2.913  12.832  0.5032 -1.2325  0.0019
 9546TIP3   OH250128   2.911   5.199   2.706 -0.0300 -0.2925 -0.2019
 9546TIP3    H150129   2.879   5.280   2.745  2.4241  1.5213 -1.6063
 9546TIP3    H250130   2.912   5.136   2.778 -0.9770  1.2387  1.2231
 9547TIP3   OH250131   1.693   2.121  14.325  0.5020 -0.0890 -0.1407
 9547TIP3    H150132   1.658   2.062  14.392  2.0214  0.1474  0.9258
 9547TIP3    H250133   1.666   2.082  14.242 -0.7485 -0.8360  0.5927
 9548TIP3   OH250134   6.609   4.120  17.091  0.7539 -0.0104 -0.0939
 9548TIP3    H150135   6.519   4.104  17.117 -0.0739  1.4423 -1.8586
 9548TIP3    H250136   6.644   4.178  17.159  1.2565 -2.5547  1.9824
 9549TIP3   OH250137   4.374   2.332  14.400 -0.4262 -0.2506  0.1589
 9549TIP3    H150138   4.440   2.386  14.356 -0.4036 -0.8033 -0.4925
 9549TIP3    H250139   4.291   2.377  14.385 -0.8464 -1.8202 -2.8428
 9550TIP3   OH250140   2.133   2.140   1.147 -0.6532  0.4190 -0.9586
 9550TIP3    H150141   2.175   2.060   1.118 -0.6661 -0.7748  1.9599
 9550TIP3    H250142   2.206   2.200   1.166 -0.5775  0.5102 -1.5052
 9551TIP3   OH250143   1.042   6.675  15.858  0.2769  0.5091  0.0657
 9551TIP3    H150144   1.048   6.749  15.919  1.6698  0.3531  0.1345
 9551TIP3    H250145   0.950   6.674  15.831  0.0275  1.6635  0.8111
 9552TIP3   OH250146   3.065   1.578   0.408 -0.9376  0.9071  0.0751
 9552TIP3    H150147   2.995   1.642   0.393 -1.4945  0.3837  0.4167
 9552TIP3    H250148   3.077   1.577   0.503  0.4308  1.9246 -0.0561
 9553TIP3   OH250149   4.882   2.677  14.867 -0.2692  0.5295 -0.2306
 9553TIP3    H150150   4.855   2.590  14.838  0.5894  0.3597 -0.5436
 9553TIP3    H250151   4.977   2.678  14.855 -0.1160  1.0983  0.8529
 9554TIP3   OH250152   3.450   6.710  14.649  0.1838 -0.0929 -0.2026
 9554TIP3    H150153   3.407   6.785  14.609 -0.4101  0.2840  1.0940
 9554TIP3    H250154   3.388   6.679  14.714  0.4231 -1.7213 -0.6991
 9555TIP3   OH250155   3.868   1.338  16.324 -0.4320  0.2123  0.1213
 9555TIP3    H150156   3.871   1.263  16.264  1.2525  0.6702 -0.4216
 9555TIP3    H250157   3.925   1.312  16.397 -1.2763  0.2637  0.8143
 9556TIP3   OH250158   2.870   5.577  15.272  0.6539  0.3748  0.1409
 9556TIP3    H150159   2.810   5.591  15.198 -1.9153 -1.7285  1.6343
 9556TIP3    H250160   2.874   5.662  15.316 -0.1190  0.9265 -0.8114
 9557TIP3   OH250161   2.556   6.786   4.037 -0.2330 -0.1977 -0.1145
 9557TIP3    H150162   2.574   6.880   4.036 -0.3528 -0.1742 -0.7138
 9557TIP3    H250163   2.514   6.770   4.121  0.9166  0.0627  0.5308
 9558TIP3   OH250164   3.579   2.737  17.097 -0.4391 -0.1753 -0.4124
 9558TIP3    H150165   3.521   2.661  17.103 -0.2868 -0.3457 -1.0359
 9558TIP3    H250166   3.614   2.734  17.008 -2.8019  2.3270 -1.5686
 9559TIP3   OH250167   1.124   2.213   2.309  0.3319  0.5912  0.2945
 9559TIP3    H150168   1.168   2.135   2.277 -1.5808 -0.6286  0.4911
 9559TIP3    H250169   1.055   2.180   2.367 -1.6152  2.2841 -0.9099
 9560TIP3   OH250170   0.690   1.573   2.757  0.5414  0.0284 -0.6169
 9560TIP3    H150171   0.617   1.625   2.791  0.7664  0.1338 -0.3011
 9560TIP3    H250172   0.749   1.562   2.831  1.1655  0.4899 -1.0393
 9561TIP3   OH250173   6.801   6.285   0.863 -0.2164 -0.2282  0.2287
 9561TIP3    H150174   6.857   6.362   0.853  1.0332 -0.8564  1.8983
 9561TIP3    H250175   6.814   6.235   0.783 -0.4334  0.8958 -0.5307
 9562TIP3   OH250176   1.065   5.054   4.151 -0.1048 -0.1304 -0.4020
 9562TIP3    H150177   1.078   5.122   4.217  0.8377  0.3604 -1.0618
 9562TIP3    H250178   0.988   5.083   4.102 -1.0490 -0.6983  0.6974
 9563TIP3   OH250179   3.485   3.515   4.188 -0.4322 -0.4401  0.1306
 9563TIP3    H150180   3.413   3.467   4.229 -1.0237 -0.3968 -0.8343
 9563TIP3    H250181   3.531   3.450   4.136 -1.6797  0.1238 -1.7802
 9564TIP3   OH250182   2.336   0.476   0.981 -0.2414 -0.3656 -0.5159
 9564TIP3    H150183   2.319   0.558   1.026 -0.8046 -0.6335 -0.2391
 9564TIP3    H250184   2.342   0.500   0.888  0.8854  0.1811 -0.3249
 9565TIP3   OH250185   0.025   5.485   0.319 -0.2935 -0.3936  0.3743
 9565TIP3    H150186  -0.014   5.519   0.399 -0.4696  0.4581 -0.0602
 9565TIP3    H250187   0.023   5.390   0.330 -2.2478 -0.3849  0.4954
 9566TIP3   OH250188   5.291   3.074   5.250 -0.1770  0.4493 -0.3320
 9566TIP3    H150189   5.294   3.097   5.343 -1.1343 -0.0940 -0.1446
 9566TIP3    H250190   5.382   3.059   5.225 -0.0241 -0.8594  0.9098
 9567TIP3   OH250191   1.732   5.462  16.748  0.1012 -0.6930  0.4334
 9567TIP3    H150192   1.643   5.442  16.722 -0.5401 -0.1463  2.0752
 9567TIP3    H250193   1.766   5.517  16.678 -0.6494 -1.3781 -0.4801
 9568TIP3   OH250194   3.953   2.087   3.172 -0.5447  0.3796  0.1545
 9568TIP3    H150195   3.946   2.003   3.218 -1.7843 -0.3648 -1.3098
 9568TIP3    H250196   4.047   2.099   3.157 -0.2105  0.0665  1.7617
 9569TIP3   OH250197   5.727   6.203   5.309 -0.3854 -0.0730 -0.4729
 9569TIP3    H150198   5.701   6.240   5.394  0.6258 -0.7853  0.1736
 9569TIP3    H250199   5.747   6.280   5.255 -2.5080  0.4481 -0.5944
 9570TIP3   OH250200   3.499   2.134   5.098 -0.3797  0.2543  0.0163
 9570TIP3    H150201   3.455   2.100   5.176  1.1849 -1.1014  0.3641
 9570TIP3    H250202   3.506   2.058   5.040 -0.4539  0.9661 -0.9385
 9571TIP3   OH250203   1.928   0.965  11.900 -0.1133 -0.3385  0.1655
 9571TIP3    H150204   1.862   1.021  11.942  0.7599 -0.4775  1.8150
 9571TIP3    H250205   1.931   0.995  11.809 -1.7474  0.3132  0.2973
 9572TIP3   OH250206   2.100   5.724  15.565  0.3268 -0.3401 -0.1341
 9572TIP3    H150207   2.014   5.684  15.551  0.5206 -0.8956  0.2197
 9572TIP3    H250208   2.107   5.790  15.496 -0.9962  0.7436  0.6943
 9573TIP3   OH250209   3.600   2.455  13.440 -0.8294  0.6080 -0.2902
 9573TIP3    H150210   3.614   2.433  13.348 -0.3296 -1.0109  0.1431
 9573TIP3    H250211   3.525   2.401  13.466  0.4015 -0.6509  0.7997
 9574TIP3   OH250212   5.460   5.189  16.167  0.1011 -0.3146  0.5072
 9574TIP3    H150213   5.522   5.138  16.219  0.2129 -0.5504  0.1445
 9574TIP3    H250214   5.393   5.126  16.140 -0.7268  0.0852  1.5471
 9575TIP3   OH250215   3.456   0.413   3.913  0.0451 -0.8217 -0.2265
 9575TIP3    H150216   3.525   0.386   3.974  0.4187  2.5758  1.1251
 9575TIP3    H250217   3.504   0.453   3.840 -0.4750 -2.2544 -1.3898
 9576TIP3   OH250218   2.205   5.685  15.052 -0.2168  0.2024 -0.2524
 9576TIP3    H150219   2.148   5.611  15.071 -0.3816 -0.0351 -1.5559
 9576TIP3    H250220   2.154   5.739  14.991 -0.2675  1.6203  0.9776
 9577TIP3   OH250221   4.915   2.311   0.740 -0.3706  0.2309 -0.1869
 9577TIP3    H150222   4.879   2.399   0.730  0.5576  0.8322  1.4283
 9577TIP3    H250223   4.888   2.284   0.828 -0.0839 -0.8450 -0.4178
 9578TIP3   OH250224   3.487   5.585   3.707  0.1593  0.1122 -0.5180
 9578TIP3    H150225   3.522   5.670   3.733  1.5758 -0.9865  1.3964
 9578TIP3    H250226   3.407   5.575   3.758 -1.0586  1.0266 -2.1385
 9579TIP3   OH250227   6.205   3.767   1.419  0.0225  0.2156 -0.0494
 9579TIP3    H150228   6.256   3.745   1.341  0.0083  0.9348 -0.2722
 9579TIP3    H250229   6.160   3.686   1.442 -0.1926  0.0677 -0.9513
 9580TIP3   OH250230   6.445   3.198  15.887 -0.3682  0.1253  0.6344
 9580TIP3    H150231   6.528   3.152  15.872 -0.5905 -0.2183  0.4345
 9580TIP3    H250232   6.471   3.286  15.912  0.0552  0.4214 -0.7356
 9581TIP3   OH250233   5.863   6.539  10.812  0.6035  0.0284  0.0372
 9581TIP3    H150234   5.827   6.623  10.785  0.3497  0.0880  0.5354
 9581TIP3    H250235   5.888   6.495  10.731  2.8496  1.5069 -0.1732
 9582TIP3   OH250236   2.642   5.779   3.432  0.5562 -0.4252  0.4401
 9582TIP3    H150237   2.719   5.830   3.406  1.5632 -1.7940  0.6628
 9582TIP3    H250238   2.671   5.726   3.506 -1.4555  1.2524  2.6314
 9583TIP3   OH250239   0.894   4.786   5.516 -0.3650 -0.5536 -0.2020
 9583TIP3    H150240   0.890   4.785   5.612  1.2987  0.5334 -0.0887
 9583TIP3    H250241   0.803   4.780   5.488 -0.8022 -2.7285  1.4028
 9584TIP3   OH250242   1.546   0.065   6.662 -0.1283 -0.1841 -0.4388
 9584TIP3    H150243   1.490   0.132   6.622 -0.1237  0.4433  0.5722
 9584TIP3    H250244   1.564   0.099   6.750  1.4795 -0.5798 -0.5905
 9585TIP3   OH250245   0.671   4.174  16.646  0.1515  0.3365 -0.6499
 9585TIP3    H150246   0.601   4.113  16.670 -1.1315  1.9576 -0.0636
 9585TIP3    H250247   0.663   4.182  16.551  1.1544 -1.3065 -0.9166
 9586TIP3   OH250248   3.957   1.861  15.299  0.1189 -0.3292  0.2142
 9586TIP3    H150249   3.982   1.771  15.279  0.9707  0.0588 -0.5676
 9586TIP3    H250250   3.980   1.872  15.391  0.9511 -0.6245  0.0567
 9587TIP3   OH250251   5.728   3.766   2.275  0.0009 -0.3829  0.3192
 9587TIP3    H150252   5.716   3.861   2.263 -0.2765 -0.5865 -1.2367
 9587TIP3    H250253   5.762   3.757   2.364  0.1066  1.1887  0.4643
 9588TIP3   OH250254   4.732   1.353  15.586 -0.0748 -0.2599  0.3836
 9588TIP3    H150255   4.699   1.267  15.614  1.8551 -0.3833  2.5803
 9588TIP3    H250256   4.713   1.411  15.659  1.1733  0.5024  0.1398
 9589TIP3   OH250257   2.848   2.165   0.373 -0.4920  0.2713  0.0922
 9589TIP3    H150258   2.754   2.170   0.394 -0.6431 -1.6178  0.0120
 9589TIP3    H250259   2.888   2.130   0.453  0.0412  0.3329 -0.1442
 9590TIP3   OH250260   5.068   3.166  15.709 -0.5209 -0.3760  0.3144
 9590TIP3    H150261   4.988   3.115  15.711 -0.7830  0.0404  1.7327
 9590TIP3    H250262   5.074   3.205  15.796  1.8623 -1.3997  0.7131
 9591TIP3   OH250263   2.354   3.291  13.452  0.1680 -0.3511  0.5548
 9591TIP3    H150264   2.280   3.347  13.430  1.2341  0.7567 -0.3652
 9591TIP3    H250265   2.387   3.326  13.535 -0.4601 -0.9922  1.0857
 9592TIP3   OH250266   4.302   5.755  12.563 -0.0464  0.5233 -0.1516
 9592TIP3    H150267   4.266   5.837  12.528  0.3100 -0.0262 -1.9150
 9592TIP3    H250268   4.397   5.768  12.562  0.0896 -0.3722 -1.7661
 9593TIP3   OH250269   2.735   1.752  14.966  0.0051 -0.0549 -0.8443
 9593TIP3    H150270   2.799   1.823  14.975  0.0001 -0.2721  1.6118
 9593TIP3    H250271   2.650   1.796  14.970  0.0055 -0.1268  0.2507
 9594TIP3   OH250272   2.788   1.409   4.011 -0.1505 -0.2283 -0.5701
 9594TIP3    H150273   2.710   1.423   3.958 -1.4096 -0.2274  1.1958
 9594TIP3    H250274   2.770   1.455   4.093  1.4381 -0.7606  0.1188
 9595TIP3   OH250275   0.242   5.623   3.919 -0.1889 -0.4763 -0.3535
 9595TIP3    H150276   0.285   5.667   3.993  1.3763 -1.1381 -0.8308
 9595TIP3    H250277   0.185   5.558   3.959  0.5283 -0.7215  0.2886
 9596TIP3   OH250278   2.034   0.061   0.307  0.4027  0.0936 -0.5185
 9596TIP3    H150279   2.102   0.128   0.311 -0.3918  0.9209 -0.6121
 9596TIP3    H250280   2.069  -0.005   0.247  1.9170 -0.4337  0.8537
 9597TIP3   OH250281   5.382   4.859  14.364  0.0922 -0.3194 -0.2592
 9597TIP3    H150282   5.443   4.912  14.415 -0.1354 -0.5178  0.2313
 9597TIP3    H250283   5.297   4.877  14.404 -0.1318 -0.2418 -0.7724
 9598TIP3   OH250284   3.435   5.710  14.869  0.0556 -0.0061 -0.1260
 9598TIP3    H150285   3.492   5.687  14.942  0.2750 -0.8381 -0.5536
 9598TIP3    H250286   3.388   5.630  14.848 -1.2446  0.6518  0.1806
 9599TIP3   OH250287   1.174   6.533   0.784  0.4326  0.6389  0.1267
 9599TIP3    H150288   1.177   6.480   0.864 -0.0406  0.8980  0.3200
 9599TIP3    H250289   1.134   6.475   0.718 -0.9461  1.0328  0.5732
 9600TIP3   OH250290   3.786   3.238   3.664 -0.5120 -0.6001  0.1947
 9600TIP3    H150291   3.706   3.265   3.619 -0.6029  0.0487  0.7294
 9600TIP3    H250292   3.798   3.304   3.733 -0.4690 -1.6656  1.2303
 9601TIP3   OH250293   6.227   1.531  14.514  0.0111  0.2225 -0.1987
 9601TIP3    H150294   6.316   1.496  14.511  0.2168 -0.0364  3.6106
 9601TIP3    H250295   6.230   1.609  14.459  2.3211 -0.2661 -0.8905
 9602TIP3   OH250296   4.895   0.223   1.466  0.2475 -0.1637 -0.4468
 9602TIP3    H150297   4.823   0.285   1.475  1.2385  1.0614 -0.7815
 9602TIP3    H250298   4.869   0.148   1.520 -0.5368  0.9379  0.7558
 9603TIP3   OH250299   0.159   3.257   5.048  0.3839 -0.0441  0.3747
 9603TIP3    H150300   0.199   3.191   4.992 -0.4657  0.6908 -1.1527
 9603TIP3    H250301   0.106   3.310   4.989 -2.1018 -0.3868  2.1419
 9604TIP3   OH250302   1.515   1.248  15.333 -0.1542  0.2264 -0.1514
 9604TIP3    H150303   1.503   1.296  15.414  0.4865  0.0699  0.0360
 9604TIP3    H250304   1.608   1.257  15.312 -0.4403  0.8369 -1.2282
 9605TIP3   OH250305   5.671   0.298   2.122  0.4801 -0.4127 -0.9592
 9605TIP3    H150306   5.723   0.262   2.195  1.0535 -1.8692 -2.0365
 9605TIP3    H250307   5.584   0.310   2.159  0.8735 -0.6751  0.1048
 9606TIP3   OH250308   2.102   1.118   4.192  0.1552  0.1224  0.0474
 9606TIP3    H150309   2.061   1.120   4.105  1.9750  0.6005 -0.8548
 9606TIP3    H250310   2.179   1.062   4.181  0.4243  0.2004  1.3683
 9607TIP3   OH250311   6.559   3.814   5.528  0.1798  0.0420  0.8574
 9607TIP3    H150312   6.641   3.852   5.559 -0.3761  1.6575  0.4401
 9607TIP3    H250313   6.511   3.793   5.607  1.0265 -1.0742  1.1106
 9608TIP3   OH250314   6.136   2.613   4.200  1.0794 -0.0922 -0.2045
 9608TIP3    H150315   6.160   2.524   4.175  0.0897  0.0874 -1.9725
 9608TIP3    H250316   6.141   2.663   4.119 -0.0887  1.0616  0.3974
 9609TIP3   OH250317   0.498   1.307  12.592 -0.5018  0.3659 -0.0307
 9609TIP3    H150318   0.465   1.257  12.667 -1.4224 -1.5470 -1.6029
 9609TIP3    H250319   0.573   1.257  12.561 -0.0037  1.2431 -0.2683
 9610TIP3   OH250320   2.492   5.516   1.843  0.4520  0.7447  0.1387
 9610TIP3    H150321   2.467   5.577   1.773  0.9464  0.9111  0.1097
 9610TIP3    H250322   2.453   5.433   1.816 -0.7656  1.1740  0.4939
 9611TIP3   OH250323   3.511   4.895  16.948  0.3691 -0.2690  0.2672
 9611TIP3    H150324   3.415   4.898  16.947  0.3778  0.6189 -1.3880
 9611TIP3    H250325   3.538   4.986  16.960  1.0210 -0.5588  1.0884
 9612TIP3   OH250326   4.663   5.661  14.834  0.5724 -0.6463 -0.4220
 9612TIP3    H150327   4.752   5.692  14.847 -0.1585  0.8752  1.2872
 9612TIP3    H250328   4.632   5.638  14.921 -0.8569 -0.7376 -0.9257
 9613TIP3   OH250329   6.305   3.741   6.512  0.0298 -0.1963 -0.0334
 9613TIP3    H150330   6.237   3.683   6.479  1.2784 -1.8544  0.2105
 9613TIP3    H250331   6.285   3.752   6.605 -0.7240  0.5470 -0.2673
 9614TIP3   OH250332   4.858   3.692  10.239 -0.1180  0.1409 -0.4320
 9614TIP3    H150333   4.937   3.657  10.278 -0.0074  2.2579  1.4849
 9614TIP3    H250334   4.886   3.774  10.197 -1.0549  0.1724 -1.0338
 9615TIP3   OH250335   1.266   5.958  12.797 -0.5214 -0.3766  0.3960
 9615TIP3    H150336   1.262   6.049  12.767 -0.8406 -0.6013 -0.2530
 9615TIP3    H250337   1.203   5.911  12.742 -0.4078 -0.9817  0.7675
 9616TIP3   OH250338   3.442   2.038  16.214 -0.1331 -0.4627  0.0326
 9616TIP3    H150339   3.437   2.013  16.122 -0.5910  0.2145 -0.1348
 9616TIP3    H250340   3.435   1.955  16.262 -0.1738 -0.7919 -0.5383
 9617TIP3   OH250341   0.243   1.044  13.338  0.3616  0.3908  0.3413
 9617TIP3    H150342   0.320   0.988  13.344 -0.2784 -0.6496 -0.7875
 9617TIP3    H250343   0.175   0.997  13.386 -0.2016  0.1333 -0.6815
 9618TIP3   OH250344   4.964   3.087  16.641 -0.1692  0.1597 -0.5796
 9618TIP3    H150345   4.955   3.060  16.550  0.7093  1.3030 -1.0434
 9618TIP3    H250346   4.965   3.183  16.637  0.4946  0.2214  0.5525
 9619TIP3   OH250347   0.727   0.162  14.288 -0.3504  1.3149  0.5412
 9619TIP3    H150348   0.652   0.148  14.345 -0.6585  1.9482  0.2955
 9619TIP3    H250349   0.690   0.183  14.203  0.0331 -2.1516 -0.6740
 9620TIP3   OH250350   6.430   6.092   2.388 -0.3137  1.4751 -0.2103
 9620TIP3    H150351   6.482   6.039   2.328 -0.9375 -0.0669  0.5611
 9620TIP3    H250352   6.350   6.113   2.340  0.0575  1.9901 -0.6187
 9621TIP3   OH250353   2.335   2.995   1.195  0.0965  0.0122 -0.0339
 9621TIP3    H150354   2.410   3.011   1.138 -0.9083 -2.6040 -2.3550
 9621TIP3    H250355   2.356   3.040   1.276  2.1322  3.0911 -2.0535
 9622TIP3   OH250356   5.368   0.716   1.657 -0.1064  0.1959 -0.1162
 9622TIP3    H150357   5.275   0.738   1.671 -0.2193  1.1147 -1.9649
 9622TIP3    H250358   5.397   0.778   1.590  1.8929 -0.0173  0.4876
 9623TIP3   OH250359   0.261   2.476   0.366 -0.1006 -0.8930  0.1111
 9623TIP3    H150360   0.174   2.456   0.331  1.1508 -3.0046 -2.1012
 9623TIP3    H250361   0.277   2.408   0.431 -0.6690  0.4656  1.7603
 9624TIP3   OH250362   4.203   3.794  16.451  0.4358 -0.5076  0.0890
 9624TIP3    H150363   4.231   3.842  16.373  0.6886  0.7032  0.8913
 9624TIP3    H250364   4.154   3.859  16.502  0.8928 -1.0556  1.2662
 9625TIP3   OH250365   4.770   0.094  15.545  0.2019  0.0867 -0.0840
 9625TIP3    H150366   4.788   0.104  15.639 -1.0256  0.2315  0.1500
 9625TIP3    H250367   4.855   0.107  15.503  0.6593  0.6116  0.9623
 9626TIP3   OH250368   0.888   5.834  13.740  0.1664  0.1602 -0.1164
 9626TIP3    H150369   0.914   5.884  13.663  0.6209 -0.8361 -0.6300
 9626TIP3    H250370   0.823   5.889  13.784  0.6577  1.1927 -0.6510
 9627TIP3   OH250371   1.923   2.636   0.306  0.2763 -0.3036 -0.0094
 9627TIP3    H150372   1.905   2.626   0.212 -0.2700 -1.7484  0.2236
 9627TIP3    H250373   2.015   2.612   0.315  0.0226 -1.2949 -0.0210
 9628TIP3   OH250374   5.873   2.413  14.774 -0.0187  0.4746 -0.2262
 9628TIP3    H150375   5.859   2.331  14.821 -0.1193 -0.8635 -2.4773
 9628TIP3    H250376   5.814   2.475  14.816  0.5908 -0.3500  2.0135
 9629TIP3   OH250377   6.527   4.998   0.891 -0.0132 -0.0466  0.0844
 9629TIP3    H150378   6.486   4.912   0.903  0.7971 -0.5910 -0.8685
 9629TIP3    H250379   6.455   5.060   0.894 -0.8319 -0.9197 -0.8110
 9630TIP3   OH250380   3.014   3.322   1.196 -0.2036 -0.2329 -0.6276
 9630TIP3    H150381   2.960   3.387   1.241  0.8235  0.7766 -0.8231
 9630TIP3    H250382   3.072   3.373   1.140 -0.1391 -1.3833 -1.6427
 9631TIP3   OH250383   3.829   1.863   0.981  0.1123 -0.2256  0.3674
 9631TIP3    H150384   3.766   1.797   0.953 -0.4868  0.5449 -0.1528
 9631TIP3    H250385   3.787   1.906   1.056  0.7466 -0.7931  1.0732
 9632TIP3   OH250386   0.552   1.770  11.238  0.7917  0.1242 -0.1520
 9632TIP3    H150387   0.529   1.679  11.256  0.9663  0.2403  0.7019
 9632TIP3    H250388   0.645   1.768  11.217  1.5761  0.4214  2.7819
 9633TIP3   OH250389   5.984   4.995   5.614  0.4655  0.6385 -0.0254
 9633TIP3    H150390   5.942   4.945   5.683  0.9604  0.4748  0.1582
 9633TIP3    H250391   5.911   5.024   5.558  0.0376  1.0215  0.7161
 9634TIP3   OH250392   0.941   5.576  13.004 -0.0208  0.0934  0.2290
 9634TIP3    H150393   0.909   5.652  12.955  1.6210  0.7139  0.0522
 9634TIP3    H250394   0.946   5.506  12.938  0.0626  0.3132 -0.0012
 9635TIP3   OH250395   2.701   6.043  12.803  0.4089 -0.2703  0.0974
 9635TIP3    H150396   2.733   5.955  12.786  0.9582  0.5435 -4.5543
 9635TIP3    H250397   2.780   6.097  12.809  0.0466  0.2285  0.4603
 9636TIP3   OH250398   3.876   2.936   5.524 -0.1798  0.1163  0.3382
 9636TIP3    H150399   3.838   2.967   5.607  1.4658 -0.8717  1.5098
 9636TIP3    H250400   3.899   2.845   5.541  3.2410  0.7872 -0.0678
 9637TIP3   OH250401   0.345   3.620  15.621  0.5779 -0.2852 -0.2659
 9637TIP3    H150402   0.276   3.590  15.680  0.7712  0.8948  0.5983
 9637TIP3    H250403   0.388   3.691  15.669  0.1734  1.3410 -2.1649
 9638TIP3   OH250404   2.756   0.141   0.825  0.3637 -0.6887 -0.1931
 9638TIP3    H150405   2.828   0.139   0.762 -0.7120  1.0216 -1.5795
 9638TIP3    H250406   2.699   0.211   0.794 -2.3174 -2.4458  0.3827
 9639TIP3   OH250407   1.156   5.904  12.435  0.2781 -0.2357 -0.1147
 9639TIP3    H150408   1.082   5.937  12.384  0.5712  0.7745  0.0923
 9639TIP3    H250409   1.118   5.882  12.520 -0.0244 -0.9938 -0.4342
 9640TIP3   OH250410   4.790   0.515  13.820  0.2985  0.3619  0.0359
 9640TIP3    H150411   4.858   0.470  13.870 -1.7958 -2.5537  0.5293
 9640TIP3    H250412   4.778   0.599  13.864  2.7252  0.4558  0.6097
 9641TIP3   OH250413   5.526   4.218   2.908 -0.0292 -0.3993 -0.0211
 9641TIP3    H150414   5.595   4.197   2.844  0.0720  0.5057 -0.2180
 9641TIP3    H250415   5.453   4.251   2.856 -0.0454  0.0908  0.3033
 9642TIP3   OH250416   1.946   0.307  13.460  0.3139 -0.5034 -0.5851
 9642TIP3    H150417   1.920   0.243  13.394 -0.6525 -0.0276 -0.6879
 9642TIP3    H250418   1.900   0.387  13.436  0.0246 -0.2837  0.5994
 9643TIP3   OH250419   5.108   4.142   5.852 -0.6084 -0.2723 -0.0359
 9643TIP3    H150420   5.094   4.047   5.856 -0.1576 -0.3210  0.6173
 9643TIP3    H250421   5.203   4.151   5.846 -0.4143  0.1750  2.5714
 9644TIP3   OH250422   1.164   1.620   4.932 -0.1632 -0.1123 -0.0851
 9644TIP3    H150423   1.134   1.569   5.007 -0.6068  0.8099  0.3756
 9644TIP3    H250424   1.166   1.557   4.860  0.2935 -1.0212  0.6929
 9645TIP3   OH250425   6.047   1.868   0.387 -0.2644 -0.4837  0.0158
 9645TIP3    H150426   5.987   1.922   0.336 -0.6095 -1.8040 -1.0129
 9645TIP3    H250427   6.033   1.895   0.478 -0.7114  0.8583 -0.4340
 9646TIP3   OH250428   0.322   1.310  13.399 -0.6307  0.4581  0.3155
 9646TIP3    H150429   0.295   1.223  13.370 -0.4184 -0.1552  1.8513
 9646TIP3    H250430   0.244   1.365  13.387 -1.2982 -0.3425  0.9009
 9647TIP3   OH250431   3.129   3.937  15.528  0.0675 -0.3577  0.4031
 9647TIP3    H150432   3.206   3.988  15.552  0.4084  0.6892 -2.4527
 9647TIP3    H250433   3.055   3.994  15.546  0.2346 -0.0055 -0.0066
 9648TIP3   OH250434   2.885   5.763   1.816 -0.3159 -0.6526 -0.6132
 9648TIP3    H150435   2.795   5.785   1.794 -0.4119  0.3776  0.6483
 9648TIP3    H250436   2.936   5.791   1.740 -0.7475  1.6617 -0.1229
 9649TIP3   OH250437   5.443   3.936   5.301 -0.6238  0.8901  0.0517
 9649TIP3    H150438   5.412   3.991   5.230 -0.9035  0.0765 -0.4764
 9649TIP3    H250439   5.533   3.963   5.316  0.5084 -0.9459 -2.7076
 9650TIP3   OH250440   5.585   3.294  14.132 -0.0895  0.0383 -0.1441
 9650TIP3    H150441   5.607   3.378  14.173  1.1586 -0.7505  0.8723
 9650TIP3    H250442   5.587   3.312  14.038 -1.7154  1.5717  0.0684
 9651TIP3   OH250443   5.233   6.198   3.424 -0.1977  0.9828  0.3942
 9651TIP3    H150444   5.227   6.150   3.506  3.3770 -0.8967 -0.2327
 9651TIP3    H250445   5.220   6.289   3.448  0.6434  0.4761  3.0347
 9652TIP3   OH250446   4.012   1.131   0.263  0.0173  0.0715  0.7260
 9652TIP3    H150447   4.056   1.193   0.321 -0.5891  0.3170  0.9291
 9652TIP3    H250448   3.919   1.142   0.281 -0.3177  1.2169 -1.3425
 9653TIP3   OH250449   4.097   4.373   3.297 -0.5315  0.7498  0.3213
 9653TIP3    H150450   4.134   4.419   3.373  1.8179  0.6726 -0.7130
 9653TIP3    H250451   4.130   4.284   3.305 -3.3966 -0.3808  1.1912
 9654TIP3   OH250452   5.331   1.195  13.465 -0.6627 -0.4713  0.1826
 9654TIP3    H150453   5.239   1.170  13.459 -1.2761  0.8071  2.8610
 9654TIP3    H250454   5.346   1.209  13.558  1.8912  0.7166 -0.3315
 9655TIP3   OH250455   2.224   3.392  12.819  0.4722  0.8655 -0.3983
 9655TIP3    H150456   2.168   3.363  12.747  1.0616 -0.9496 -0.1664
 9655TIP3    H250457   2.200   3.484  12.833 -0.7135  0.8090 -1.8944
 9656TIP3   OH250458   0.368   6.129   0.953  0.1124  0.0908  0.2643
 9656TIP3    H150459   0.388   6.190   1.023 -0.8311  2.2805 -1.2420
 9656TIP3    H250460   0.391   6.176   0.873 -0.9942 -1.3933 -0.9994
 9657TIP3   OH250461   3.391   5.984   3.642  0.2199  0.1020  0.4703
 9657TIP3    H150462   3.341   5.926   3.585 -0.0232  0.6125  0.1555
 9657TIP3    H250463   3.431   6.048   3.583 -1.1040  1.4523  0.9422
 9658TIP3   OH250464   2.134   1.429   4.304 -0.1522  0.1757 -0.0517
 9658TIP3    H150465   2.138   1.405   4.397 -0.2435 -1.0181 -0.3315
 9658TIP3    H250466   2.136   1.345   4.258 -0.5977  0.7294 -1.1183
 9659TIP3   OH250467   0.330   5.279   0.834 -0.1582 -0.1902 -0.0791
 9659TIP3    H150468   0.282   5.252   0.912 -0.5827  0.6759 -0.0298
 9659TIP3    H250469   0.305   5.370   0.821  0.4818 -0.1091 -0.8030
 9660TIP3   OH250470   5.448   0.727  13.407 -0.0049  0.0944 -0.3758
 9660TIP3    H150471   5.463   0.754  13.498 -0.9464 -1.0960  0.1659
 9660TIP3    H250472   5.440   0.809  13.359 -0.3843  0.7595  0.7762
 9661TIP3   OH250473   2.295   5.214  16.160  0.1772  0.7429  0.1216
 9661TIP3    H150474   2.386   5.244  16.165  0.1234  0.7400  1.1981
 9661TIP3    H250475   2.283   5.159  16.237 -0.1137 -1.0357 -1.1234
 9662TIP3   OH250476   2.770   1.016  13.933  0.5003  0.0143  0.3088
 9662TIP3    H150477   2.792   1.080  14.000  0.2469 -0.1337  0.5365
 9662TIP3    H250478   2.680   0.990  13.953  0.3734  0.0756 -0.1748
 9663TIP3   OH250479   2.452   1.344   4.318 -0.5719 -0.3626  0.7740
 9663TIP3    H150480   2.532   1.293   4.325 -0.4367 -0.0941  1.2340
 9663TIP3    H250481   2.384   1.289   4.356 -0.4067 -0.1587  1.3679
 9664TIP3   OH250482   4.165   2.067  16.825  0.1567  0.0624 -0.2001
 9664TIP3    H150483   4.186   1.991  16.771  1.5643  0.1172  0.2199
 9664TIP3    H250484   4.096   2.036  16.884  0.3364 -0.7385 -0.3973
 9665TIP3   OH250485   6.323   6.498  15.084  0.7351 -0.5580 -0.1796
 9665TIP3    H150486   6.272   6.468  15.008  0.7432 -1.1707  0.0435
 9665TIP3    H250487   6.264   6.558  15.130  0.6875 -0.2763 -0.6090
 9666TIP3   OH250488   1.279   1.958   5.994  0.3524 -0.0035  0.4448
 9666TIP3    H150489   1.235   1.926   6.073 -0.4150  1.1999  0.5312
 9666TIP3    H250490   1.313   1.879   5.952  0.5229 -0.6967  1.8197
 9667TIP3   OH250491   6.580   2.903   0.667  0.4808  0.3109 -0.6033
 9667TIP3    H150492   6.556   2.957   0.741  0.6527  0.9264 -0.9868
 9667TIP3    H250493   6.667   2.934   0.642  0.0328  0.7845 -1.6573
 9668TIP3   OH250494   6.319   1.176   0.648  0.2989 -0.3724  0.7769
 9668TIP3    H150495   6.262   1.169   0.724  1.2081 -0.3827  1.4700
 9668TIP3    H250496   6.370   1.256   0.663  1.8556 -1.3839  1.1573
 9669TIP3   OH250497   6.740   5.582   6.050  0.2994  0.1859 -0.2962
 9669TIP3    H150498   6.714   5.490   6.058 -0.3023  0.3480 -0.3585
 9669TIP3    H250499   6.784   5.587   5.965  0.2117 -0.0113 -0.3534
 9670TIP3   OH250500   5.686   3.051  16.061  0.0510  0.8920 -0.0477
 9670TIP3    H150501   5.699   2.957  16.072 -1.7930  0.9105  3.7915
 9670TIP3    H250502   5.774   3.088  16.070  0.6268 -0.3649 -0.2887
 9671TIP3   OH250503   3.731   1.647   2.031  0.2678  0.5447  0.3305
 9671TIP3    H150504   3.759   1.727   1.986  1.2272 -0.2578 -0.5641
 9671TIP3    H250505   3.658   1.615   1.979  0.2632  0.5383  0.3410
 9672TIP3   OH250506   6.773   4.486   4.841 -0.4577 -0.4475 -0.0356
 9672TIP3    H150507   6.707   4.423   4.812  0.1624 -1.4473  0.6628
 9672TIP3    H250508   6.799   4.532   4.761  0.4076 -2.3566 -0.9187
 9673TIP3   OH250509   3.863   1.973   3.568 -0.3064 -0.3612 -0.4149
 9673TIP3    H150510   3.796   2.034   3.601 -1.2882 -2.4109  1.6799
 9673TIP3    H250511   3.821   1.927   3.497 -0.1494  0.1985 -0.8800
 9674TIP3   OH250512   1.772   1.937   3.223  0.1288 -0.3503 -0.1262
 9674TIP3    H150513   1.777   1.947   3.128  2.9281 -0.8109 -0.1140
 9674TIP3    H250514   1.682   1.961   3.245 -0.7089 -0.5974 -2.9126
 9675TIP3   OH250515   3.847   1.061   1.976 -0.0029  0.0985 -0.3978
 9675TIP3    H150516   3.913   1.044   2.043 -0.5377 -0.5152 -0.0115
 9675TIP3    H250517   3.767   1.021   2.010 -0.6052  0.8935 -0.8167
 9676TIP3   OH250518   1.563   6.620   4.828  0.2151  0.5980  1.0327
 9676TIP3    H150519   1.628   6.591   4.892 -0.8253  0.1475  1.9312
 9676TIP3    H250520   1.567   6.715   4.831  0.6647  0.5757  1.2559
 9677TIP3   OH250521   3.173   0.051   5.052 -0.1116  0.1205 -0.6511
 9677TIP3    H150522   3.177  -0.042   5.071  0.6344  0.3340  0.3314
 9677TIP3    H250523   3.252   0.088   5.092 -0.4840  1.1957 -0.8537
 9678TIP3   OH250524   2.280   4.131   1.355  0.0027 -0.1868 -0.4051
 9678TIP3    H150525   2.340   4.142   1.429 -1.7822 -0.5550  1.1598
 9678TIP3    H250526   2.309   4.049   1.314  1.4778  0.4021 -0.6315
 9679TIP3   OH250527   5.778   1.318  11.609  0.0700 -0.6681  0.1883
 9679TIP3    H150528   5.742   1.249  11.553 -2.4761  0.7154 -0.0444
 9679TIP3    H250529   5.826   1.374  11.549 -0.0672 -0.8321 -0.0787
 9680TIP3   OH250530   3.125   4.956   4.429 -0.5680 -0.6318  0.0623
 9680TIP3    H150531   3.083   4.994   4.507  2.2070  2.9512  0.0659
 9680TIP3    H250532   3.083   5.001   4.355 -1.5269 -2.2823 -0.4632
 9681TIP3   OH250533   5.111   6.793  16.899  0.3696 -0.6405  0.1710
 9681TIP3    H150534   5.074   6.760  16.981  1.0152  0.2389  0.8411
 9681TIP3    H250535   5.198   6.825  16.923 -0.3538  1.9360 -0.2803
 9682TIP3   OH250536   2.131   4.468  14.927  0.4501  0.1923 -0.2502
 9682TIP3    H150537   2.038   4.447  14.937  0.8546 -2.4367 -1.2927
 9682TIP3    H250538   2.137   4.561  14.948 -3.0966  1.5323 -3.9575
 9683TIP3   OH250539   1.877   3.906  16.918 -0.7119  0.1316 -0.1770
 9683TIP3    H150540   1.877   3.881  16.826 -1.8778 -0.0142 -0.1492
 9683TIP3    H250541   1.910   3.996  16.919  1.9934 -0.7680 -0.4366
 9684TIP3   OH250542   4.945   1.583  16.365 -0.6166 -0.6517  0.8504
 9684TIP3    H150543   4.970   1.615  16.451 -0.0290 -2.3997  1.3834
 9684TIP3    H250544   5.013   1.616  16.307 -1.1567  0.7533  0.9804
 9685TIP3   OH250545   0.547   6.357  14.993 -0.6824 -0.3931  0.0796
 9685TIP3    H150546   0.609   6.419  15.031 -0.5336 -0.6243  0.2155
 9685TIP3    H250547   0.549   6.281  15.051  0.3111 -1.1763 -0.9372
 9686TIP3   OH250548   4.047   2.359   4.414  0.3959 -0.2072 -0.5984
 9686TIP3    H150549   3.977   2.416   4.382 -1.0299 -2.3790 -1.6318
 9686TIP3    H250550   4.002   2.281   4.446  2.2240 -0.6484  1.0922
 9687TIP3   OH250551   1.649   3.115   4.601 -0.3660 -0.2368  0.4426
 9687TIP3    H150552   1.625   3.025   4.579  3.1599 -1.1540 -0.2070
 9687TIP3    H250553   1.728   3.106   4.654  1.5173  2.4653 -1.6270
 9688TIP3   OH250554   1.734   6.352   0.267  0.1761 -0.0873  0.4355
 9688TIP3    H150555   1.650   6.314   0.294  0.5109  0.3956  2.2646
 9688TIP3    H250556   1.800   6.296   0.308  0.6953  2.2910  3.1675
 9689TIP3   OH250557   4.890   0.872  12.025 -0.1095  0.3862  0.5550
 9689TIP3    H150558   4.852   0.806  11.966  1.1188  0.5761 -0.4701
 9689TIP3    H250559   4.833   0.869  12.102  0.9073 -3.1728  1.3382
 9690TIP3   OH250560   4.535   2.086  14.939 -0.0033 -0.1952  0.2428
 9690TIP3    H150561   4.509   2.007  14.986  0.8174 -0.1243  0.8345
 9690TIP3    H250562   4.620   2.065  14.901 -0.2632  0.0497 -0.4779
 9691TIP3   OH250563   0.319   0.962  13.640  0.1026  0.8311 -0.2403
 9691TIP3    H150564   0.235   1.002  13.619  1.0203  3.0878  0.1004
 9691TIP3    H250565   0.299   0.870  13.655 -1.8758  0.7886 -2.6609
 9692TIP3   OH250566   3.193   4.852   2.065 -0.6548  0.1629 -0.4205
 9692TIP3    H150567   3.175   4.913   2.136  0.7463  0.9693 -0.7166
 9692TIP3    H250568   3.200   4.907   1.987  0.6271 -0.3460 -0.6936
 9693TIP3   OH250569   3.216   2.478  12.177 -0.3757  0.1806  0.2068
 9693TIP3    H150570   3.279   2.420  12.219 -0.7043 -0.1838  0.2032
 9693TIP3    H250571   3.269   2.549  12.140  0.0758 -0.3356 -0.1543
 9694TIP3   OH250572   6.797   3.065  16.297  0.2229  0.6437  0.1934
 9694TIP3    H150573   6.707   3.074  16.266  0.2054 -0.0924  0.0182
 9694TIP3    H250574   6.788   3.016  16.379  0.5141  0.0144 -0.1470
 9695TIP3   OH250575   0.364   5.137  12.294 -0.6106  0.3733  0.2983
 9695TIP3    H150576   0.324   5.050  12.287 -2.1132  1.1464 -1.1262
 9695TIP3    H250577   0.316   5.180  12.365  0.2135  0.0408  1.0851
 9696TIP3   OH250578   6.552   6.315   4.399  0.3801  0.1333  0.0319
 9696TIP3    H150579   6.579   6.307   4.307  1.1107 -0.5744  0.2964
 9696TIP3    H250580   6.620   6.269   4.448 -0.0469  0.4319  0.9292
 9697TIP3   OH250581   3.867   0.272  13.984  0.2208  0.0608  0.1573
 9697TIP3    H150582   3.846   0.365  13.981  2.9644  0.7603 -0.6821
 9697TIP3    H250583   3.909   0.254  13.899  1.5317 -1.4204  1.0413
 9698TIP3   OH250584   3.956   2.638  11.897 -0.0856 -0.6025 -0.3446
 9698TIP3    H150585   3.988   2.551  11.874 -1.3424 -0.5115 -2.8907
 9698TIP3    H250586   3.887   2.656  11.832 -2.5637  0.7551  2.4233
 9699TIP3   OH250587   5.221   0.636   1.268 -0.1995  0.4573 -0.2985
 9699TIP3    H150588   5.187   0.721   1.239  0.9355  0.7508 -0.8292
 9699TIP3    H250589   5.316   0.643   1.255 -0.1506 -1.1180 -0.9249
 9700TIP3   OH250590   4.307   4.823  12.100 -0.2178 -0.1327 -0.2006
 9700TIP3    H150591   4.335   4.745  12.052  0.4837 -0.5823  0.9028
 9700TIP3    H250592   4.290   4.888  12.032  0.4605 -0.8438 -1.0765
 9701TIP3   OH250593   1.175   4.786   4.236 -0.6968  0.3033  0.1765
 9701TIP3    H150594   1.168   4.709   4.291 -0.5253  0.4747  0.4397
 9701TIP3    H250595   1.091   4.830   4.244 -0.6493  0.3614  0.3495
 9702TIP3   OH250596   3.358   2.361  11.501  0.0777  0.8028 -0.4757
 9702TIP3    H150597   3.444   2.325  11.479  2.2928  3.7700  2.3447
 9702TIP3    H250598   3.326   2.306  11.572  0.2244  0.4273 -0.6968
 9703TIP3   OH250599   2.714   6.530  12.795  0.3657 -0.1141  0.0626
 9703TIP3    H150600   2.707   6.496  12.706  2.4879  1.1071 -0.6403
 9703TIP3    H250601   2.693   6.623  12.786 -1.6773 -0.3936  1.2910
 9704TIP3   OH250602   3.867   0.743  13.304 -0.3226 -0.7833 -0.2828
 9704TIP3    H150603   3.838   0.652  13.300  2.2353 -1.7886  1.6211
 9704TIP3    H250604   3.895   0.756  13.394  0.1781  1.6685 -0.7134
 9705TIP3   OH250605   4.423   3.976  17.046 -0.5329  0.2930  0.1008
 9705TIP3    H150606   4.336   3.959  17.080 -0.2531 -1.8567 -0.0912
 9705TIP3    H250607   4.435   4.070  17.055 -3.0712  0.7296 -0.3764
 9706TIP3   OH250608   1.801   0.697   3.087 -0.2562 -0.0870 -0.5838
 9706TIP3    H150609   1.815   0.783   3.126  1.7727 -0.0693 -1.2071
 9706TIP3    H250610   1.743   0.652   3.148 -1.4287  1.7322 -0.2954
 9707TIP3   OH250611   6.125   3.848  16.518  0.2292 -0.4565  0.1260
 9707TIP3    H150612   6.053   3.903  16.549 -0.0638 -0.8579  0.1688
 9707TIP3    H250613   6.204   3.887  16.556  0.1400  0.5530 -0.7059
 9708TIP3   OH250614   1.752   1.436  16.695  0.3949 -0.0555  0.1514
 9708TIP3    H150615   1.834   1.414  16.651  0.3308 -2.3883  1.0369
 9708TIP3    H250616   1.772   1.427  16.788 -0.9410 -1.0224  0.3699
 9709TIP3   OH250617   0.325   3.086   3.447  0.1512 -0.5467 -0.1942
 9709TIP3    H150618   0.258   3.022   3.423 -0.8774 -0.3038  1.8169
 9709TIP3    H250619   0.407   3.035   3.448 -0.5284 -1.6774  0.5773
 9710TIP3   OH250620   4.900   5.295   4.958  0.7134 -0.2321 -0.5290
 9710TIP3    H150621   4.949   5.218   4.928 -1.1253 -1.7721  0.2072
 9710TIP3    H250622   4.808   5.273   4.940  0.1498  2.0079 -0.6972
 9711TIP3   OH250623   0.781   0.892   5.610  0.0336  0.4222  1.0155
 9711TIP3    H150624   0.789   0.984   5.633  0.4394  0.6505  0.0175
 9711TIP3    H250625   0.836   0.846   5.673  0.1002  0.8895  1.3005
 9712TIP3   OH250626   4.668   4.383   3.040  0.0350 -0.3637 -0.2752
 9712TIP3    H150627   4.752   4.422   3.017  0.5145 -1.2690 -0.1269
 9712TIP3    H250628   4.637   4.344   2.958  0.3225 -1.0199 -0.0834
 9713TIP3   OH250629   4.674   2.744  11.346 -0.2196 -0.4276 -0.2029
 9713TIP3    H150630   4.583   2.740  11.317 -0.7071 -0.5433  1.2776
 9713TIP3    H250631   4.687   2.663  11.394  0.5531 -0.2344 -0.0806
 9714TIP3   OH250632   0.080   3.932   6.292 -0.1359  0.4199 -0.3607
 9714TIP3    H150633   0.087   3.966   6.203  2.3510  0.2561 -0.3081
 9714TIP3    H250634   0.077   3.837   6.282 -2.6084  0.4409 -0.3240
 9715TIP3   OH250635   3.209   6.064   5.345  0.0362 -0.5646 -0.2647
 9715TIP3    H150636   3.245   5.999   5.406  0.2084 -2.2332 -2.0431
 9715TIP3    H250637   3.269   6.138   5.352  0.8553 -1.2699  0.5695
 9716TIP3   OH250638   5.922   5.790   1.252 -0.3329 -0.0746  0.0306
 9716TIP3    H150639   5.903   5.881   1.228  0.6325 -0.3978 -2.2403
 9716TIP3    H250640   5.838   5.745   1.245 -1.1148  0.8333  2.5311
 9717TIP3   OH250641   1.853   5.218   3.359 -0.1354 -0.0708  0.6330
 9717TIP3    H150642   1.908   5.164   3.302 -0.1361  0.2943  0.2799
 9717TIP3    H250643   1.868   5.184   3.447 -1.1925 -1.5632  0.2725
 9718TIP3   OH250644   3.294   2.318  11.794 -0.1006  0.1090 -0.3246
 9718TIP3    H150645   3.364   2.382  11.805 -0.4783  0.7012 -1.1762
 9718TIP3    H250646   3.223   2.350  11.850 -0.1419  0.2226 -0.4392
 9719TIP3   OH250647   5.204   5.393   5.520 -0.3013  0.1243 -0.6411
 9719TIP3    H150648   5.208   5.463   5.454  0.9524  1.0614  0.3888
 9719TIP3    H250649   5.281   5.407   5.575 -0.6453 -1.3988  0.2841
 9720TIP3   OH250650   0.781   1.178   2.949  0.2651  0.0753  0.2538
 9720TIP3    H150651   0.775   1.086   2.975 -1.0097  0.5820  1.9748
 9720TIP3    H250652   0.843   1.216   3.012  2.6266  0.0186 -1.8516
 9721TIP3   OH250653   0.590   3.865  14.810  0.1691  0.2395 -0.0676
 9721TIP3    H150654   0.522   3.805  14.782  1.9321 -1.4892 -0.8802
 9721TIP3    H250655   0.622   3.828  14.892  2.3755 -0.9922 -1.3809
 9722TIP3   OH250656   3.743   5.147  13.221  0.2430 -0.4606  0.4832
 9722TIP3    H150657   3.691   5.071  13.245 -0.2872 -0.0139  0.7401
 9722TIP3    H250658   3.822   5.109  13.181  0.0861 -1.1465  0.8080
 9723TIP3   OH250659   6.528   4.284  14.774  0.5129 -0.2223  0.2056
 9723TIP3    H150660   6.465   4.261  14.706 -0.8206 -0.1009  1.3450
 9723TIP3    H250661   6.487   4.357  14.821  0.3293 -1.6970  2.4833
 9724TIP3   OH250662   3.752   3.944  10.590 -0.0158  0.3464 -0.0310
 9724TIP3    H150663   3.826   3.895  10.557 -0.8478 -0.8151 -0.2195
 9724TIP3    H250664   3.787   4.031  10.609  1.0151  0.3252 -1.6888
 9725TIP3   OH250665   4.177   4.961  15.073 -0.0285 -0.6898 -0.0734
 9725TIP3    H150666   4.186   4.885  15.130  1.1627 -0.6660 -0.1906
 9725TIP3    H250667   4.204   5.035  15.127 -1.3421 -0.3177  0.0920
 9726TIP3   OH250668   0.428   4.406  11.794 -0.1391 -0.1167 -0.1852
 9726TIP3    H150669   0.478   4.478  11.832  1.8373 -1.2820 -0.4446
 9726TIP3    H250670   0.492   4.356  11.743 -1.3616 -2.1549  0.1314
 9727TIP3   OH250671   3.437   1.680   1.186 -0.1945 -0.0159 -0.1495
 9727TIP3    H150672   3.348   1.647   1.197 -0.8194  1.2349 -1.1762
 9727TIP3    H250673   3.426   1.767   1.148  1.4694  0.1394 -0.3566
 9728TIP3   OH250674   5.729   5.638  12.425 -0.5672 -0.2450 -0.5997
 9728TIP3    H150675   5.820   5.661  12.443 -0.9336 -0.0444  1.1875
 9728TIP3    H250676   5.731   5.602  12.336  0.9198  1.5563 -1.3631
 9729TIP3   OH250677   5.155   2.215  17.211 -0.0109 -0.4262  0.0890
 9729TIP3    H150678   5.236   2.164  17.209 -1.1978 -2.3929 -0.3200
 9729TIP3    H250679   5.167   2.281  17.142  2.0990  0.8126  1.5215
 9730TIP3   OH250680   1.787   2.227  12.753  0.2448 -0.3260 -0.2000
 9730TIP3    H150681   1.754   2.313  12.727  0.4175 -0.7486 -1.9002
 9730TIP3    H250682   1.802   2.181  12.671  1.0915 -1.6417  0.6576
 9731TIP3   OH250683   6.087   1.635   6.335 -0.1880 -0.5826  0.1624
 9731TIP3    H150684   6.019   1.696   6.305  0.2329 -1.4173 -2.8241
 9731TIP3    H250685   6.040   1.553   6.352  0.0184 -1.4009 -2.6770
 9732TIP3   OH250686   4.305   4.121   1.558  0.1142 -0.1245  0.3572
 9732TIP3    H150687   4.350   4.091   1.636 -2.4739 -0.5525  1.7860
 9732TIP3    H250688   4.271   4.041   1.518 -1.1478  0.3321  0.4921
 9733TIP3   OH250689   3.698   5.825  15.779 -0.0065  0.2680  0.2580
 9733TIP3    H150690   3.775   5.799  15.831 -0.1737 -1.6824 -0.3841
 9733TIP3    H250691   3.627   5.770  15.813 -0.0263 -1.4026 -2.2593
 9734TIP3   OH250692   2.608   5.557  12.629  0.2119 -0.3850  0.0639
 9734TIP3    H150693   2.579   5.576  12.719 -0.0319 -0.3510 -0.0219
 9734TIP3    H250694   2.532   5.518  12.587  0.5056 -0.9388  0.0387
 9735TIP3   OH250695   4.459   3.579  13.499  0.3673  0.0876  0.0682
 9735TIP3    H150696   4.503   3.520  13.437 -0.7555  1.4683 -2.1861
 9735TIP3    H250697   4.424   3.521  13.567  0.5066 -1.6768 -1.2901
 9736TIP3   OH250698   0.717   1.082   0.224  0.3460 -0.0933 -0.0649
 9736TIP3    H150699   0.632   1.084   0.181  0.3242  1.1055  0.0008
 9736TIP3    H250700   0.700   1.109   0.314  0.6823 -0.6262  0.1627
 9737TIP3   OH250701   5.963   4.199   2.940 -0.5178 -0.7754  0.0854
 9737TIP3    H150702   5.960   4.265   2.871 -0.3925  0.5877  1.3485
 9737TIP3    H250703   5.978   4.117   2.893  0.9261  0.2772 -1.4065
 9738TIP3   OH250704   2.681   5.628   0.202 -0.2065 -0.1907  0.3469
 9738TIP3    H150705   2.609   5.688   0.185 -0.1033 -0.2613 -0.3681
 9738TIP3    H250706   2.640   5.552   0.243 -0.4627  0.0054  0.4502
 9739TIP3   OH250707   5.949   0.804   0.459 -0.3428  0.0483 -0.1480
 9739TIP3    H150708   5.950   0.836   0.549  0.0392 -1.3119  0.3496
 9739TIP3    H250709   6.038   0.821   0.426  0.3802 -1.8895  0.6568
 9740TIP3   OH250710   1.278   1.988  11.807  0.7400 -0.5751 -0.2727
 9740TIP3    H150711   1.365   1.963  11.779  0.7639 -0.0013 -0.7185
 9740TIP3    H250712   1.280   1.979  11.902  1.5584  0.2892 -0.1998
 9741TIP3   OH250713   3.195   0.639  10.901  0.6269 -0.1682 -0.2117
 9741TIP3    H150714   3.147   0.681  10.829  0.6211  0.0776 -0.0687
 9741TIP3    H250715   3.163   0.549  10.902 -0.1318  0.0920  0.1310
 9742TIP3   OH250716   3.852   5.637  14.119  0.0355 -0.1279  0.0278
 9742TIP3    H150717   3.868   5.558  14.171 -0.7904 -0.2664  0.0914
 9742TIP3    H250718   3.757   5.650  14.124  0.0859  0.5078 -0.5081
 9743TIP3   OH250719   1.725   3.318   1.101 -0.2392 -0.1704 -0.0773
 9743TIP3    H150720   1.779   3.334   1.177 -0.6321  1.9048 -0.1736
 9743TIP3    H250721   1.704   3.225   1.105 -0.6980 -0.0204  2.6416
 9744TIP3   OH250722   4.711   6.287   5.418  0.4398  0.0842 -0.2910
 9744TIP3    H150723   4.785   6.270   5.360  2.3426 -1.1346  2.3258
 9744TIP3    H250724   4.741   6.262   5.505 -2.7558  0.4268  1.0737
 9745TIP3   OH250725   5.180   2.654   2.228 -0.4042 -0.6470 -0.9510
 9745TIP3    H150726   5.103   2.699   2.193 -0.0517 -0.1426 -1.0928
 9745TIP3    H250727   5.230   2.722   2.273 -0.3938 -1.1135 -0.2453
 9746TIP3   OH250728   0.221   5.235  15.277 -0.1640 -0.1238 -0.6469
 9746TIP3    H150729   0.291   5.221  15.342 -0.0850  0.4704 -0.5964
 9746TIP3    H250730   0.141   5.214  15.325 -0.4300  3.3934  0.7371
 9747TIP3   OH250731   4.906   0.464  16.283  0.2422  0.3855 -0.3841
 9747TIP3    H150732   4.862   0.539  16.244  1.1222  1.7921  1.2028
 9747TIP3    H250733   4.979   0.446  16.225 -1.3560 -0.8947 -2.1232
 9748TIP3   OH250734   1.561   1.942  16.939  0.2625 -0.0959 -0.2318
 9748TIP3    H150735   1.518   1.985  16.866  1.9397  1.4669 -0.3808
 9748TIP3    H250736   1.491   1.925  17.002 -1.2274 -1.5150 -2.1460
 9749TIP3   OH250737   5.349   0.563  17.213  0.3596  0.2637  0.1302
 9749TIP3    H150738   5.327   0.586  17.303  0.9863  0.2565  0.2872
 9749TIP3    H250739   5.351   0.467  17.212  0.9093  0.2716  0.2469
 9750TIP3   OH250740   0.289   3.086  13.284 -0.1658 -0.0958 -0.0992
 9750TIP3    H150741   0.345   3.092  13.362  1.4581 -2.0300 -1.0160
 9750TIP3    H250742   0.205   3.057  13.317  0.3487 -0.3816  1.0054
 9751TIP3   OH250743   5.393   5.839  12.964 -0.0375 -0.0052 -0.6778
 9751TIP3    H150744   5.370   5.911  12.905 -1.6415  1.3439  1.4470
 9751TIP3    H250745   5.445   5.880  13.033  0.2351 -1.1888 -0.1477
 9752TIP3   OH250746   5.038   5.839  12.162  0.3479  0.0536 -0.0673
 9752TIP3    H150747   5.038   5.774  12.092  0.6071  1.1110 -1.0738
 9752TIP3    H250748   5.091   5.800  12.232 -2.8973 -2.6606  1.1624
 9753TIP3   OH250749   2.257   3.734  11.060 -0.0964 -0.1887  0.6344
 9753TIP3    H150750   2.187   3.694  11.111 -0.9825  1.0973  0.4661
 9753TIP3    H250751   2.213   3.774  10.985  1.0563 -1.0588 -0.5539
 9754TIP3   OH250752   0.561   3.280   3.913  0.4412  0.1197 -0.0172
 9754TIP3    H150753   0.628   3.347   3.926  0.3022  0.5039 -1.1309
 9754TIP3    H250754   0.607   3.208   3.870  0.4513 -0.2398  0.5879
 9755TIP3   OH250755   5.496   1.277  11.731 -0.2977 -0.0773  0.5136
 9755TIP3    H150756   5.505   1.359  11.683 -0.3764  0.1824  0.9363
 9755TIP3    H250757   5.513   1.209  11.666  0.1946  0.2838  0.2593
 9756TIP3   OH250758   5.425   5.513   1.675 -0.1917 -0.0633 -0.3643
 9756TIP3    H150759   5.361   5.559   1.730  2.2542  2.8637  0.3398
 9756TIP3    H250760   5.387   5.515   1.587 -1.2588  1.2906  0.0879
 9757TIP3   OH250761   4.732   1.064   0.751  0.2597  0.0579 -0.2787
 9757TIP3    H150762   4.736   1.086   0.657  0.9923 -0.9559 -0.4994
 9757TIP3    H250763   4.729   0.969   0.753 -0.9759  0.0993  0.7185
 9758TIP3   OH250764   3.890   6.239   3.671  0.3136  0.1254  0.4101
 9758TIP3    H150765   3.982   6.243   3.697  0.2894  0.0586  0.5050
 9758TIP3    H250766   3.893   6.211   3.580  0.4071  0.5525  0.2791
 9759TIP3   OH250767   4.009   2.192   4.845 -0.4388  0.3629 -0.0991
 9759TIP3    H150768   3.944   2.174   4.913  0.6171  0.4470  0.9694
 9759TIP3    H250769   4.000   2.120   4.783 -0.8429 -0.1835  0.5866
 9760TIP3   OH250770   6.117   2.818  11.920 -0.4734  0.8558 -0.2187
 9760TIP3    H150771   6.202   2.858  11.901  0.1501  1.2925  2.9450
 9760TIP3    H250772   6.128   2.726  11.896  0.1263  1.3000 -1.8175
 9761TIP3   OH250773   3.168   3.606   0.245 -0.0463 -0.3660  0.0376
 9761TIP3    H150774   3.114   3.627   0.168 -0.1147 -1.8092 -0.3436
 9761TIP3    H250775   3.127   3.654   0.317 -1.4244 -0.8315 -0.3842
 9762TIP3   OH250776   3.317   0.719   0.606 -0.7241 -0.2002 -0.0179
 9762TIP3    H150777   3.328   0.699   0.699  1.3491 -1.0507 -0.3801
 9762TIP3    H250778   3.266   0.645   0.572  0.1328 -0.8766  0.1219
 9763TIP3   OH250779   1.742   0.391   6.429  0.3964  0.0210 -0.0733
 9763TIP3    H150780   1.716   0.483   6.428 -1.8255 -0.5395  0.3187
 9763TIP3    H250781   1.795   0.380   6.350  0.1625  1.4845 -0.4611
 9764TIP3   OH250782   1.028   0.618   1.579 -0.0040  0.4572  0.3011
 9764TIP3    H150783   1.047   0.605   1.486  0.8629  0.5396  0.4546
 9764TIP3    H250784   0.996   0.532   1.609 -0.5197  0.4984 -0.1208
 9765TIP3   OH250785   5.264   4.551  10.675  0.2538  0.1677 -0.1752
 9765TIP3    H150786   5.225   4.568  10.589 -0.2427 -0.0222  0.0141
 9765TIP3    H250787   5.198   4.502  10.723  1.1478 -1.1811 -0.2525
 9766TIP3   OH250788   3.022   0.863   0.477  0.3762  0.1684 -0.0066
 9766TIP3    H150789   3.008   0.841   0.569 -0.4595  1.6454  0.2478
 9766TIP3    H250790   2.967   0.800   0.429 -0.5665  0.5002  0.6024
 9767TIP3   OH250791   3.051   1.366  15.181 -0.3373 -0.2373  0.3661
 9767TIP3    H150792   3.000   1.432  15.133 -2.4627  0.6098  3.4755
 9767TIP3    H250793   2.998   1.286  15.175 -0.7035 -0.0850  1.3079
 9768TIP3   OH250794   2.301   5.983   4.991  0.0915 -0.4297  0.1310
 9768TIP3    H150795   2.258   5.971   5.076  0.5673  0.7003  0.5490
 9768TIP3    H250796   2.384   6.027   5.012  0.4876 -0.6783 -0.8613
 9769TIP3   OH250797   4.491   1.129   1.564 -1.0769  0.0470  0.2186
 9769TIP3    H150798   4.532   1.112   1.480 -1.1152  2.4849 -0.3586
 9769TIP3    H250799   4.468   1.042   1.597 -0.0211 -1.0443 -1.7257
 9770TIP3   OH250800   2.650   3.616  15.282  0.3859 -0.0881  0.1176
 9770TIP3    H150801   2.644   3.639  15.189 -1.0105 -1.2903 -0.1352
 9770TIP3    H250802   2.592   3.540  15.291 -0.8532  1.0283  2.3046
 9771TIP3   OH250803   0.485   3.557  14.866  0.0215  0.2222 -0.2819
 9771TIP3    H150804   0.418   3.617  14.897 -1.3455 -1.3364 -0.0598
 9771TIP3    H250805   0.517   3.513  14.945  0.3979  0.0519 -0.5239
 9772TIP3   OH250806   4.826   3.441   1.569 -0.2848 -0.6074 -0.1888
 9772TIP3    H150807   4.769   3.500   1.520 -1.1662 -0.0778  1.3938
 9772TIP3    H250808   4.898   3.497   1.599  0.0851 -0.8578 -0.6013
 9773TIP3   OH250809   2.775   2.925  13.716 -0.3860  0.2545  0.5658
 9773TIP3    H150810   2.808   2.841  13.748 -1.4123 -0.5173 -0.3443
 9773TIP3    H250811   2.853   2.970  13.683  0.0220 -0.8317  0.0011
 9774TIP3   OH250812   2.109   3.766   2.379  0.0729 -0.4540 -0.4141
 9774TIP3    H150813   2.173   3.715   2.330  2.6883  1.4612  0.7641
 9774TIP3    H250814   2.072   3.826   2.313  0.8485 -0.3662 -0.7863
 9775TIP3   OH250815   4.042   0.652  12.350 -0.2276  0.6007  0.5307
 9775TIP3    H150816   4.116   0.629  12.404 -0.3203  1.7120  1.1592
 9775TIP3    H250817   3.981   0.696  12.409 -0.4918  1.5080 -0.3682
 9776TIP3   OH250818   4.568   5.949   0.575  0.5697  0.2292 -0.2814
 9776TIP3    H150819   4.532   5.941   0.663 -1.9115 -1.8597 -1.3320
 9776TIP3    H250820   4.548   6.039   0.550 -1.9351 -0.1272  0.1188
 9777TIP3   OH250821   4.159   5.423   4.193  0.3807 -0.0959 -0.3892
 9777TIP3    H150822   4.092   5.432   4.261  0.2201  1.0635 -0.6747
 9777TIP3    H250823   4.176   5.329   4.188  0.8927 -0.1479  1.7199
 9778TIP3   OH250824   2.112   0.323  14.113 -0.6472 -0.1583 -0.3793
 9778TIP3    H150825   2.043   0.352  14.173 -0.7425 -0.7150 -0.2148
 9778TIP3    H250826   2.126   0.398  14.055 -0.4404  0.4555  0.4409
 9779TIP3   OH250827   5.807   3.085   0.792 -0.2996  0.3429  0.4562
 9779TIP3    H150828   5.733   3.123   0.744  0.4216  1.7743  0.4212
 9779TIP3    H250829   5.815   3.138   0.871  0.0789 -0.4339  0.9568
 9780TIP3   OH250830   5.402   4.714  16.291  0.0789 -0.4346 -0.8647
 9780TIP3    H150831   5.324   4.660  16.301  0.5475 -1.0072 -0.2282
 9780TIP3    H250832   5.433   4.696  16.202  0.7258 -1.8984 -0.3659
 9781TIP3   OH250833   6.221   4.299  13.088  0.3829  0.0309 -0.2261
 9781TIP3    H150834   6.169   4.305  13.168  2.3101 -1.5286  1.2272
 9781TIP3    H250835   6.179   4.228  13.038  0.6856 -0.7844  0.6418
 9782TIP3   OH250836   3.571   5.721   0.249 -0.2495 -0.5238  0.2536
 9782TIP3    H150837   3.540   5.715   0.159  0.3563  1.3409 -0.1353
 9782TIP3    H250838   3.588   5.631   0.276  0.6749 -1.0444 -1.9047
 9783TIP3   OH250839   0.535   6.185  13.340 -0.7196  0.3435  0.5518
 9783TIP3    H150840   0.477   6.179  13.264 -0.5887 -0.4632  0.5063
 9783TIP3    H250841   0.479   6.167  13.415 -0.4035 -1.1846  0.4490
 9784TIP3   OH250842   1.177   6.264   0.070  0.2145  0.0895 -0.2516
 9784TIP3    H150843   1.246   6.331   0.067  1.2577 -0.9757 -0.8927
 9784TIP3    H250844   1.170   6.241   0.162 -0.5703  1.4735  0.0618
 9785TIP3   OH250845   1.603   4.755   1.988  0.0333  0.5902  0.2298
 9785TIP3    H150846   1.595   4.665   2.018  1.3277  0.2614 -0.3272
 9785TIP3    H250847   1.656   4.749   1.909 -0.8725  1.7323 -0.4903
 9786TIP3   OH250848   0.037   1.060   1.069  0.2106  0.0704 -0.6339
 9786TIP3    H150849   0.008   0.976   1.104 -0.8493  0.1281 -1.3538
 9786TIP3    H250850  -0.003   1.125   1.127  1.9627  0.0926  0.6334
 9787TIP3   OH250851   3.647   0.020  11.739 -0.6064 -0.4420  0.0758
 9787TIP3    H150852   3.708  -0.052  11.727  0.8905  0.8689 -0.6202
 9787TIP3    H250853   3.670   0.057  11.825  0.1411  0.5130 -0.5091
 9788TIP3   OH250854   3.460   0.103  15.492 -0.4473  0.4089 -0.1031
 9788TIP3    H150855   3.499   0.119  15.578  0.2865  1.1111 -0.5468
 9788TIP3    H250856   3.379   0.055  15.511 -0.2828  0.5184  0.9714
 9789TIP3   OH250857   6.688   1.023   3.682 -0.2427  0.2146  0.3604
 9789TIP3    H150858   6.759   1.019   3.746 -0.0592 -0.6863  0.1208
 9789TIP3    H250859   6.626   1.086   3.718  0.4387  0.6309  0.8199
 9790TIP3   OH250860   0.439   0.932  16.364  0.1429 -1.1184  0.6234
 9790TIP3    H150861   0.525   0.889  16.355  0.2757 -0.7739  0.2020
 9790TIP3    H250862   0.457   1.024  16.346 -0.4223 -1.1349 -0.0430
 9791TIP3   OH250863   6.448   3.719   5.766 -0.6275  0.1857  0.1639
 9791TIP3    H150864   6.361   3.695   5.734 -1.4548  3.0380  0.0151
 9791TIP3    H250865   6.432   3.754   5.853  0.5837 -0.4429  0.6568
 9792TIP3   OH250866   2.743   5.773  14.688 -0.2250  0.5619 -0.7398
 9792TIP3    H150867   2.710   5.709  14.625  0.5875  1.1983 -1.8526
 9792TIP3    H250868   2.775   5.720  14.761 -1.0796 -0.1967 -0.8962
 9793TIP3   OH250869   0.602   1.834   4.969 -0.1015  0.1023 -0.9243
 9793TIP3    H150870   0.602   1.741   4.945  1.8302 -0.8346  2.1468
 9793TIP3    H250871   0.679   1.870   4.925 -0.0303 -0.0895 -0.9577
 9794TIP3   OH250872   0.697   2.983  12.789  0.0503 -0.0775  0.1364
 9794TIP3    H150873   0.666   3.034  12.864  0.9987  0.7497 -0.0108
 9794TIP3    H250874   0.766   2.927  12.825 -0.7156 -0.9878  0.2183
 9795TIP3   OH250875   1.413   0.691  16.512  0.0355 -0.0905 -0.5111
 9795TIP3    H150876   1.493   0.663  16.466 -0.4118  1.8721 -2.6460
 9795TIP3    H250877   1.445   0.732  16.592  1.0750 -0.4951 -0.6993
 9796TIP3   OH250878   1.051   5.061   4.531 -0.1014  0.1689 -0.0757
 9796TIP3    H150879   0.966   5.019   4.543  0.1531 -0.6764 -1.0739
 9796TIP3    H250880   1.084   5.074   4.620 -0.1018 -1.9684  0.2891
 9797TIP3   OH250881   2.573   2.860   4.329 -0.3796 -0.0131 -0.1628
 9797TIP3    H150882   2.527   2.871   4.247 -2.0792 -0.2071  0.7237
 9797TIP3    H250883   2.620   2.777   4.319  0.6085  0.6652 -1.4316
 9798TIP3   OH250884   4.457   2.490  11.222  0.4157  0.5629 -0.7537
 9798TIP3    H150885   4.443   2.489  11.128 -1.2176 -0.6216 -0.5431
 9798TIP3    H250886   4.510   2.412  11.239  0.0161  0.3188 -0.6132
 9799TIP3   OH250887   5.405   2.024  16.082  0.2722 -0.2663  0.1750
 9799TIP3    H150888   5.397   2.031  15.987  1.9831  1.2329  0.1024
 9799TIP3    H250889   5.317   2.004  16.112 -0.3668 -0.4170 -1.6834
 9800TIP3   OH250890   3.387   4.898  16.138 -0.8293  0.7651 -0.3876
 9800TIP3    H150891   3.470   4.861  16.169 -2.5380 -0.7592  2.9959
 9800TIP3    H250892   3.339   4.823  16.103 -1.6598  1.1439 -0.0896
 9801TIP3   OH250893   1.091   1.853   1.358  0.1978  0.3478 -0.2971
 9801TIP3    H150894   1.159   1.828   1.295 -0.7896  2.3446 -2.2999
 9801TIP3    H250895   1.140   1.878   1.436  1.5272 -1.4473 -0.4767
 9802TIP3   OH250896   5.262   6.163   4.327 -0.2241  0.5954 -0.3350
 9802TIP3    H150897   5.224   6.110   4.397  2.5974 -1.1890  0.0053
 9802TIP3    H250898   5.230   6.252   4.344 -1.4597 -0.2003  1.8304
 9803TIP3   OH250899   2.508   1.763   3.086 -0.5255  0.1203 -0.4168
 9803TIP3    H150900   2.483   1.848   3.050  1.5984  2.0101  2.1916
 9803TIP3    H250901   2.542   1.714   3.010  0.7719  2.6410 -1.5971
 9804TIP3   OH250902   3.569   0.517   3.633  0.1228 -0.2743  0.0719
 9804TIP3    H150903   3.548   0.597   3.586  2.4748  0.0990 -0.4572
 9804TIP3    H250904   3.559   0.448   3.567 -2.0031 -0.5039  0.5540
 9805TIP3   OH250905   3.321   1.818  16.983 -0.0971  0.3314 -0.5598
 9805TIP3    H150906   3.263   1.798  16.909  0.0556 -3.2071  0.1047
 9805TIP3    H250907   3.261   1.830  17.057 -0.1273 -1.5735 -0.2290
 9806TIP3   OH250908   1.958   0.845   2.484 -0.2238  0.5647 -0.7075
 9806TIP3    H150909   2.050   0.824   2.471 -0.2361  0.8752 -1.3056
 9806TIP3    H250910   1.947   0.933   2.449  0.0540  2.1293  2.7274
 9807TIP3   OH250911   2.781   4.231   6.468 -0.2284 -0.8408 -0.3793
 9807TIP3    H150912   2.771   4.325   6.480 -0.7513 -0.8131 -0.9575
 9807TIP3    H250913   2.865   4.209   6.509 -0.6339 -0.3131  0.7428
 9808TIP3   OH250914   5.161   2.013   6.427 -0.7525 -0.2051 -0.2780
 9808TIP3    H150915   5.175   1.920   6.412 -0.5548 -0.3792  0.8698
 9808TIP3    H250916   5.248   2.053   6.416  0.0395 -0.7366  2.9984
 9809TIP3   OH250917   0.178   6.601  12.446  0.1534  0.3922 -0.4795
 9809TIP3    H150918   0.178   6.545  12.368 -0.0955  1.3354 -1.1748
 9809TIP3    H250919   0.097   6.652  12.439  2.2409  3.8709 -2.1524
 9810TIP3   OH250920   5.827   5.763   4.588 -0.0855  0.0350 -0.5658
 9810TIP3    H150921   5.806   5.677   4.553 -0.8551 -0.3118  0.6735
 9810TIP3    H250922   5.743   5.808   4.594 -0.2122 -0.3930  1.9795
 9811TIP3   OH250923   3.452   3.840   2.104  0.3270  0.7154  0.0984
 9811TIP3    H150924   3.504   3.893   2.044  2.6251 -3.0076 -1.5773
 9811TIP3    H250925   3.427   3.900   2.174  0.0478  4.6008 -3.0248
 9812TIP3   OH250926   4.382   1.431  16.351  0.3731  0.2560  0.3397
 9812TIP3    H150927   4.310   1.393  16.302  1.1766 -0.2728 -0.4805
 9812TIP3    H250928   4.448   1.361  16.356  0.7674  0.6718  1.1965
 9813TIP3   OH250929   0.525   0.392  13.263  0.2462 -0.3878  0.4553
 9813TIP3    H150930   0.574   0.426  13.188  0.0885 -0.3494  0.3686
 9813TIP3    H250931   0.584   0.404  13.338  0.4674 -0.5804  0.3110
 9814TIP3   OH250932   0.279   3.487   2.666 -0.0381 -0.5766 -0.1005
 9814TIP3    H150933   0.297   3.574   2.630  1.8076 -0.8875 -0.0408
 9814TIP3    H250934   0.193   3.496   2.707  0.5373  1.5368  0.8250
 9815TIP3   OH250935   1.106   6.375  15.401  0.3992  0.1632  0.3084
 9815TIP3    H150936   1.013   6.398  15.396  0.3513 -0.1809 -0.7116
 9815TIP3    H250937   1.107   6.290  15.446  0.0006 -0.8652 -1.5150
 9816TIP3   OH250938   6.528   1.768   4.875  0.8387 -0.1673  0.2575
 9816TIP3    H150939   6.601   1.807   4.827  1.1181 -0.1179  0.7255
 9816TIP3    H250940   6.563   1.746   4.961  0.0046  0.9424  0.9101
 9817TIP3   OH250941   2.447   5.684   5.539 -0.1951 -0.0430  0.1313
 9817TIP3    H150942   2.443   5.758   5.478  4.4370  0.6407  0.3265
 9817TIP3    H250943   2.426   5.607   5.485 -0.5196  0.9689 -1.2366
 9818TIP3   OH250944   1.215   4.314  15.730  0.4345 -0.2761 -0.0823
 9818TIP3    H150945   1.140   4.365  15.701 -0.0717 -1.6397 -1.2523
 9818TIP3    H250946   1.272   4.379  15.772  0.0992  1.3942 -2.0177
 9819TIP3   OH250947   1.332   6.392   2.930 -0.0401  0.3546  0.2427
 9819TIP3    H150948   1.273   6.318   2.916 -0.0539  0.2284  0.9653
 9819TIP3    H250949   1.275   6.469   2.926 -0.2127  0.2488  0.6927
 9820TIP3   OH250950   4.029   4.226  15.548 -0.4977  0.5170  0.1275
 9820TIP3    H150951   4.103   4.268  15.591 -0.9516  1.7198 -0.2130
 9820TIP3    H250952   4.030   4.262  15.459 -0.2697 -1.0322 -0.5298
 9821TIP3   OH250953   1.813   0.080   0.155  0.6881 -0.1770  0.1795
 9821TIP3    H150954   1.903   0.073   0.186  0.8388  0.1173 -0.1837
 9821TIP3    H250955   1.778  -0.009   0.164  1.3821 -0.5700 -0.7731
 9822TIP3   OH250956   6.781   2.566  17.286  0.0714  0.2168  0.2979
 9822TIP3    H150957   6.824   2.497  17.235  0.3691  0.4234  0.2678
 9822TIP3    H250958   6.779   2.642  17.228  1.7955  0.9224  1.0971
 9823TIP3   OH250959   5.550   6.137   2.673 -0.3402  0.6145 -0.0414
 9823TIP3    H150960   5.588   6.050   2.689  2.3950  1.8838  1.0273
 9823TIP3    H250961   5.589   6.192   2.741 -0.9268  2.9628 -1.5000
 9824TIP3   OH250962   0.390   6.135   4.073 -0.0235 -0.4953  0.5396
 9824TIP3    H150963   0.302   6.127   4.036 -0.1047 -0.3259  0.7000
 9824TIP3    H250964   0.423   6.219   4.042 -0.3808  0.0032  1.4665
 9825TIP3   OH250965   2.643   2.659   2.195  0.1539 -0.1557  0.0493
 9825TIP3    H150966   2.609   2.718   2.127 -0.1762  0.1116  0.4448
 9825TIP3    H250967   2.577   2.662   2.264 -0.3834 -1.7390 -0.3286
 9826TIP3   OH250968   3.118   6.595  15.904  0.2019  0.0444 -0.4846
 9826TIP3    H150969   3.075   6.635  15.980  0.7639 -0.8290  0.3158
 9826TIP3    H250970   3.139   6.506  15.933  0.0472 -0.4458 -1.8175
 9827TIP3   OH250971   2.840   4.418  13.382  0.1063  0.1432 -0.2698
 9827TIP3    H150972   2.763   4.397  13.435 -0.2808 -0.6918 -1.1171
 9827TIP3    H250973   2.883   4.489  13.429 -1.5417  1.1045 -0.1147
 9828TIP3   OH250974   3.151   0.283   1.386 -0.1223 -0.4115  0.1430
 9828TIP3    H150975   3.201   0.315   1.461  1.0571 -1.5979 -0.0868
 9828TIP3    H250976   3.193   0.322   1.310  1.8428 -2.9185 -0.2020
 9829TIP3   OH250977   3.026   4.454  15.285  0.2860  0.2416 -0.3091
 9829TIP3    H150978   3.060   4.529  15.237 -2.8001  3.4647  2.0352
 9829TIP3    H250979   2.947   4.429  15.237 -1.3712  1.8010  1.4476
 9830TIP3   OH250980   6.428   2.236   5.843 -0.8425 -0.4361  0.5630
 9830TIP3    H150981   6.429   2.155   5.791 -1.2068  0.1950 -0.4550
 9830TIP3    H250982   6.349   2.228   5.897 -1.7174 -0.1013 -0.6382
 9831TIP3   OH250983   6.136   3.937  11.105 -0.1377 -0.1452  0.9172
 9831TIP3    H150984   6.195   3.863  11.116 -0.2246 -0.7139 -1.7512
 9831TIP3    H250985   6.051   3.898  11.084 -0.1283  0.6158 -0.7679
 9832TIP3   OH250986   5.827   0.923  15.129  0.5829 -0.4626  0.1330
 9832TIP3    H150987   5.758   0.964  15.078 -0.1298 -0.9051  0.7206
 9832TIP3    H250988   5.784   0.895  15.210  1.2791 -1.4504  0.1791
 9833TIP3   OH250989   1.274   5.418   2.178 -0.1345 -0.0774 -0.3356
 9833TIP3    H150990   1.259   5.508   2.148 -1.0936  0.0036  0.3299
 9833TIP3    H250991   1.289   5.368   2.098 -1.2183  0.3801 -0.8413
 9834TIP3   OH250992   2.783   6.600   3.059 -0.4262  0.1186 -0.4110
 9834TIP3    H150993   2.704   6.644   3.027 -0.9380  0.0083  0.6635
 9834TIP3    H250994   2.801   6.642   3.143  1.2088  0.7901 -1.0724
 9835TIP3   OH250995   6.508   1.058  16.075  0.1458  0.2996  0.2672
 9835TIP3    H150996   6.578   1.068  16.011  0.0706  0.6138  0.2343
 9835TIP3    H250997   6.443   1.123  16.051  0.0036  0.2518  0.5147
 9836TIP3   OH250998   5.306   2.688  17.004  0.2157  0.2199 -0.1899
 9836TIP3    H150999   5.321   2.770  17.051 -2.2253  0.0231  1.1094
 9836TIP3    H251000   5.392   2.646  17.000  1.1312  1.8765  0.9901
 9837TIP3   OH251001   0.540   2.275   5.980 -0.1192 -0.4905 -0.0201
 9837TIP3    H151002   0.495   2.359   5.985  1.2186  0.1751  3.5473
 9837TIP3    H251003   0.479   2.212   6.017  0.5816 -0.1695  1.7632
 9838TIP3   OH251004   4.507   4.814  14.693  0.2498 -0.7730  0.3773
 9838TIP3    H151005   4.473   4.825  14.781  0.7525 -1.0471  0.6083
 9838TIP3    H251006   4.588   4.764  14.704  2.3874  2.3631  0.1722
 9839TIP3   OH251007   4.287   2.000   4.763 -0.3201  0.1565  0.0636
 9839TIP3    H151008   4.201   1.959   4.773 -0.3187 -0.1339 -0.9999
 9839TIP3    H251009   4.288   2.034   4.674  1.6614 -2.2834 -0.9796
 9840TIP3   OH251010   4.247   4.731   1.498  0.3159  0.0723  0.3192
 9840TIP3    H151011   4.322   4.774   1.539 -0.6148  0.1512  2.0211
 9840TIP3    H251012   4.221   4.790   1.428  1.2762  0.4949  0.3042
 9841TIP3   OH251013   5.499   6.074   3.583 -0.0070 -0.5032  0.5042
 9841TIP3    H151014   5.571   6.022   3.548  1.6861  0.7292  1.9644
 9841TIP3    H251015   5.509   6.160   3.542 -0.1188 -0.0868  1.3257
 9842TIP3   OH251016   3.612   1.321  15.193  0.7971 -0.0327  0.2197
 9842TIP3    H151017   3.537   1.311  15.252  0.3524  2.4908  0.1845
 9842TIP3    H251018   3.575   1.358  15.113  1.3866 -3.4642 -1.8194
 9843TIP3   OH251019   6.296   4.339   5.844 -0.2753  0.1220 -0.3825
 9843TIP3    H151020   6.265   4.329   5.754  1.6678 -0.9599 -0.9912
 9843TIP3    H251021   6.333   4.253   5.867  1.6795  1.1281  0.4551
 9844TIP3   OH251022   3.132   3.686   1.941  0.0315 -0.0203  0.1284
 9844TIP3    H151023   3.193   3.749   1.902 -0.3015 -0.6444 -1.4619
 9844TIP3    H251024   3.153   3.603   1.899 -0.5020 -0.6852  1.1427
 9845TIP3   OH251025   1.534   5.297   4.476  0.0603  0.5668  0.5037
 9845TIP3    H151026   1.628   5.303   4.492  0.0582  0.3407  0.5997
 9845TIP3    H251027   1.514   5.375   4.425  0.2150  0.8664  0.8972
 9846TIP3   OH251028   0.658   3.114  15.266  0.0318 -0.0589  0.5772
 9846TIP3    H151029   0.737   3.157  15.232 -0.2018  0.2959  0.4768
 9846TIP3    H251030   0.605   3.097  15.188 -0.1751  0.0806  0.6872
 9847TIP3   OH251031   0.928   5.382   4.115 -0.3861  0.7157  0.3060
 9847TIP3    H151032   0.946   5.329   4.193  1.1869  0.0786 -0.4554
 9847TIP3    H251033   0.906   5.319   4.047  0.1797  1.1414 -0.2731
 9848TIP3   OH251034   5.637   2.991  14.077  0.2812 -0.1315  0.2471
 9848TIP3    H151035   5.578   3.034  14.139 -0.5188  0.5639 -0.9628
 9848TIP3    H251036   5.608   2.900  14.075 -2.4055  0.6506 -2.0968
 9849TIP3   OH251037   3.540   4.725   2.720  0.0950 -0.3881  0.0421
 9849TIP3    H151038   3.601   4.732   2.647  1.1197 -0.2457  0.8909
 9849TIP3    H251039   3.468   4.672   2.686  0.8741 -0.9056 -0.8568
 9850TIP3   OH251040   3.764   1.569  12.360 -0.0746 -0.3635 -0.1385
 9850TIP3    H151041   3.695   1.580  12.425 -0.2302 -1.5510 -0.0893
 9850TIP3    H251042   3.782   1.658  12.329 -0.9175  0.0656  0.5729
 9851TIP3   OH251043   2.509   4.854  16.428 -0.2547 -0.4522  0.4356
 9851TIP3    H151044   2.603   4.854  16.442 -0.0649 -1.2684 -0.7249
 9851TIP3    H251045   2.488   4.765  16.400 -1.2020 -0.0077 -0.3470
 9852TIP3   OH251046   4.032   4.818  16.565 -0.1416 -0.0279  0.0959
 9852TIP3    H151047   4.035   4.879  16.639  2.5556 -0.0310  0.0706
 9852TIP3    H251048   4.007   4.873  16.490  1.1833  0.8479  0.2705
 9853TIP3   OH251049   4.810   4.787   2.190  0.2052  0.0180  0.0619
 9853TIP3    H151050   4.806   4.798   2.285 -0.0900 -1.8627  0.2975
 9853TIP3    H251051   4.720   4.804   2.161 -0.2290 -1.5568  0.4072
 9854TIP3   OH251052   1.907   4.440  11.749 -0.3829 -0.0630  0.0144
 9854TIP3    H151053   1.939   4.513  11.802 -0.9171 -1.3173  2.1881
 9854TIP3    H251054   1.980   4.378  11.749 -0.1277  0.2078 -1.3739
 9855TIP3   OH251055   0.241   2.785   1.943 -0.0918  0.9904  0.3629
 9855TIP3    H151056   0.304   2.837   1.893 -0.8967  0.3158 -1.4438
 9855TIP3    H251057   0.276   2.784   2.032  2.3683  0.7629 -0.5176
 9856TIP3   OH251058   6.416   2.023   5.622  1.2350  0.7771 -0.1968
 9856TIP3    H151059   6.330   2.062   5.607  0.6040 -0.6705 -0.5259
 9856TIP3    H251060   6.454   2.015   5.534  0.7302 -0.6671 -0.3136
 9857TIP3   OH251061   6.423   5.466  14.010 -0.1843  0.6935 -0.1077
 9857TIP3    H151062   6.371   5.393  13.975 -0.9239  0.8972  0.5447
 9857TIP3    H251063   6.403   5.539  13.951  0.4975  0.4062 -0.7166
 9858TIP3   OH251064   0.497   2.849  12.191 -0.3949  0.3470  0.1876
 9858TIP3    H151065   0.514   2.943  12.177 -3.0507  0.9496  0.5501
 9858TIP3    H251066   0.448   2.845  12.273 -0.6087 -1.3267  0.0133
 9859TIP3   OH251067   5.377   3.328   3.831 -0.1395  0.0422  0.2193
 9859TIP3    H151068   5.342   3.383   3.901  1.4113  1.0417  0.2760
 9859TIP3    H251069   5.337   3.363   3.751 -0.0325  0.5357  0.3728
 9860TIP3   OH251070   1.590   1.046   2.233 -0.1042  0.3801  0.5208
 9860TIP3    H151071   1.518   1.107   2.219 -0.6531 -0.4526 -0.4841
 9860TIP3    H251072   1.583   1.021   2.325 -0.7660  0.7408  0.5766
 9861TIP3   OH251073   5.507   2.212   5.197  0.2145  0.2497 -0.2667
 9861TIP3    H151074   5.555   2.230   5.278  0.7377 -0.9556 -0.2974
 9861TIP3    H251075   5.415   2.220   5.222  0.3727 -0.0404  0.4282
 9862TIP3   OH251076   2.432   5.915   4.074  0.7139 -0.3935 -1.0826
 9862TIP3    H151077   2.502   5.894   4.011  1.4134  0.4358 -0.6112
 9862TIP3    H251078   2.363   5.852   4.055  0.4361  0.5283 -3.4470
 9863TIP3   OH251079   6.134   5.876   4.866 -0.5215 -0.0759 -0.3823
 9863TIP3    H151080   6.129   5.971   4.875 -0.6549  0.0426 -1.5707
 9863TIP3    H251081   6.201   5.862   4.799 -0.4610 -0.8335 -0.1751
 9864TIP3   OH251082   5.236   4.853  13.896  0.5402 -0.4449 -0.1726
 9864TIP3    H151083   5.143   4.845  13.915  0.5390 -0.8448 -0.3222
 9864TIP3    H251084   5.267   4.923  13.953  0.1886 -0.4468  0.0220
 9865TIP3   OH251085   6.023   4.280  12.568  0.2023  0.5477 -0.1524
 9865TIP3    H151086   6.061   4.326  12.493  0.9064  3.2342  1.6825
 9865TIP3    H251087   6.067   4.319  12.644 -0.9982 -1.5177  1.7179
 9866TIP3   OH251088   1.854   1.067  14.193 -0.7146  0.2934  0.2563
 9866TIP3    H151089   1.811   1.149  14.167 -0.6852  0.7583  1.6170
 9866TIP3    H251090   1.865   1.075  14.287  1.9559 -0.0065  0.0349
 9867TIP3   OH251091   2.682   5.131  12.054 -0.2847  0.0022 -0.1737
 9867TIP3    H151092   2.758   5.074  12.067  0.0897  0.7964  1.3277
 9867TIP3    H251093   2.711   5.197  11.992  0.9574  1.4207  1.7884
 9868TIP3   OH251094   5.858   5.549  15.015  0.3627  0.5470 -0.0882
 9868TIP3    H151095   5.935   5.520  14.967  0.6861 -0.7570  1.1512
 9868TIP3    H251096   5.884   5.632  15.054  1.3495 -0.1282  0.7358
 9869TIP3   OH251097   0.694   2.978  10.600 -0.3233  0.7052 -0.3963
 9869TIP3    H151098   0.742   3.032  10.662  0.8989  0.7232 -1.3283
 9869TIP3    H251099   0.624   2.938  10.652  0.2296  1.2738  0.8220
 9870TIP3   OH251100   4.404   5.354  17.144 -0.0332 -0.4116 -0.2904
 9870TIP3    H151101   4.423   5.400  17.062 -0.0509  0.2214  0.0583
 9870TIP3    H251102   4.487   5.315  17.170 -0.0193 -0.5869 -0.5852
 9871TIP3   OH251103   6.823   6.118   5.322 -0.3223  0.2283 -0.0487
 9871TIP3    H151104   6.767   6.173   5.268  1.1695  1.6614 -0.2079
 9871TIP3    H251105   6.856   6.051   5.262 -1.2927 -0.2322 -0.0981
 9872TIP3   OH251106   1.962   3.647  16.966 -0.0579 -0.0761 -0.9733
 9872TIP3    H151107   1.951   3.742  16.962 -0.9893  0.0576  2.0025
 9872TIP3    H251108   1.874   3.613  16.981  0.7359 -0.6995  4.3188
 9873TIP3   OH251109   4.889   2.418   4.168  0.2624 -0.4204 -0.5023
 9873TIP3    H151110   4.847   2.394   4.251 -1.5729  1.1501 -0.9072
 9873TIP3    H251111   4.914   2.510   4.179 -0.7797  0.0680 -1.9581
 9874TIP3   OH251112   1.394   0.201  11.506 -0.0565 -0.3384  0.2315
 9874TIP3    H151113   1.329   0.145  11.550 -0.5940  0.2688  0.2245
 9874TIP3    H251114   1.442   0.141  11.449 -0.0269 -0.9549  0.8881
 9875TIP3   OH251115   3.212   1.495  15.357  0.6631  0.0616  0.2086
 9875TIP3    H151116   3.165   1.449  15.288 -0.1626 -0.0932  0.8517
 9875TIP3    H251117   3.160   1.480  15.436  0.6104  1.7181  0.5351
 9876TIP3   OH251118   1.207   2.352  16.556 -0.1944  0.1104  0.1746
 9876TIP3    H151119   1.172   2.273  16.514 -1.7992  0.7942  0.1596
 9876TIP3    H251120   1.194   2.337  16.650  0.5312 -0.0995  0.2477
 9877TIP3   OH251121   2.746   2.492  12.789 -0.1726  0.1899 -0.1704
 9877TIP3    H151122   2.660   2.462  12.818  0.3299  0.0695  1.2539
 9877TIP3    H251123   2.779   2.546  12.861  1.2884 -0.4284 -0.3356
 9878TIP3   OH251124   2.603   6.647  14.439  0.0040  0.2142 -0.3638
 9878TIP3    H151125   2.579   6.710  14.506  1.1842  0.5372 -0.2256
 9878TIP3    H251126   2.582   6.691  14.356  2.4575  1.5605 -0.3457
 9879TIP3   OH251127   4.944   1.628  16.699  0.2733 -0.5139 -0.0719
 9879TIP3    H151128   5.035   1.650  16.719 -0.0385  0.4538  0.3136
 9879TIP3    H251129   4.893   1.681  16.760 -0.5403 -1.4093  0.0376
 9880TIP3   OH251130   4.178   4.948   3.853 -0.0417 -0.1148 -0.0720
 9880TIP3    H151131   4.140   4.887   3.917  3.0111  1.3879  3.5058
 9880TIP3    H251132   4.108   5.012   3.838 -1.1555 -0.9678  1.1552
 9881TIP3   OH251133   5.828   5.975   2.836 -0.4962  0.2491  0.2467
 9881TIP3    H151134   5.909   5.926   2.840 -0.3150  0.4110 -1.1441
 9881TIP3    H251135   5.767   5.918   2.789 -0.9379  0.4826  0.5223
 9882TIP3   OH251136   3.721   1.136  11.001 -0.0308  0.2910 -0.0927
 9882TIP3    H151137   3.751   1.206  10.943 -0.3337  1.1036  0.7094
 9882TIP3    H251138   3.626   1.139  10.995 -0.0594  0.3083  0.3657
 9883TIP3   OH251139   4.758   0.500  11.635  0.1075 -0.3588  0.0540
 9883TIP3    H151140   4.790   0.506  11.545 -0.4138 -2.1377 -0.2815
 9883TIP3    H251141   4.835   0.517  11.689  0.0864  2.5028 -0.6529
 9884TIP3   OH251142   1.176   4.039  15.453 -0.1764 -0.4698  0.6728
 9884TIP3    H151143   1.228   4.052  15.532 -0.7941 -1.2119  1.2158
 9884TIP3    H251144   1.104   3.982  15.481  0.1026 -1.5029 -0.6188
 9885TIP3   OH251145   6.456   3.827   2.615  0.0806  0.1526 -0.3960
 9885TIP3    H151146   6.470   3.773   2.692 -0.2754  0.3783 -0.1682
 9885TIP3    H251147   6.369   3.867   2.629 -1.2477 -1.8986 -2.1422
 9886TIP3   OH251148   3.392   6.762   6.350 -0.4272 -0.8474 -0.3283
 9886TIP3    H151149   3.449   6.722   6.415  0.8444 -0.1664 -0.9862
 9886TIP3    H251150   3.328   6.811   6.400  0.8637  0.1250  0.4287
 9887TIP3   OH251151   6.531   6.608  16.511  0.6120 -0.7733  0.4860
 9887TIP3    H151152   6.620   6.587  16.483  0.6035 -1.1796  0.7583
 9887TIP3    H251153   6.482   6.619  16.429  1.1345  0.4940  0.3064
 9888TIP3   OH251154   5.821   3.270  15.638 -0.2364 -0.0836  0.0489
 9888TIP3    H151155   5.872   3.344  15.671  0.6183 -0.4777 -0.3479
 9888TIP3    H251156   5.847   3.197  15.694  1.6268 -0.8842 -1.7416
 9889TIP3   OH251157   6.255   6.504   6.106 -0.2516  0.7914  0.1827
 9889TIP3    H151158   6.257   6.548   6.021 -1.3540  1.6661  0.5922
 9889TIP3    H251159   6.181   6.443   6.099 -1.4586  2.0976  1.0771
 9890TIP3   OH251160   1.781   1.382   0.181 -0.4324 -0.2002  0.2084
 9890TIP3    H151161   1.702   1.328   0.192 -0.0786 -0.5034  1.3276
 9890TIP3    H251162   1.813   1.397   0.270  0.4518  0.4152 -0.1996
 9891TIP3   OH251163   4.903   1.899  16.282 -0.1913 -0.2144 -0.0171
 9891TIP3    H151164   4.960   1.961  16.326 -1.1888  0.1671  0.7940
 9891TIP3    H251165   4.943   1.884  16.197  0.3986  1.0626  0.0208
 9892TIP3   OH251166   0.030   6.188   6.273 -0.2312 -0.1769 -0.5509
 9892TIP3    H151167   0.116   6.221   6.248  0.8959 -2.4977 -0.0486
 9892TIP3    H251168   0.033   6.183   6.369 -1.2126  0.3595 -0.4762
 9893TIP3   OH251169   4.174   0.115  17.279 -0.0357 -0.0941 -0.0185
 9893TIP3    H151170   4.080   0.134  17.281 -0.0385 -0.1723  0.8911
 9893TIP3    H251171   4.181   0.026  17.315  0.2040 -0.9236 -1.9494
 9894TIP3   OH251172   1.425   1.072  15.974  0.1563  0.5629 -0.1449
 9894TIP3    H151173   1.428   1.089  15.880  0.0281 -0.1353 -0.2857
 9894TIP3    H251174   1.428   1.158  16.015  0.6888  0.8538 -0.7794
 9895TIP3   OH251175   0.471   5.473   4.806  0.4137 -0.0136 -0.0739
 9895TIP3    H151176   0.393   5.478   4.750  0.6174 -1.8573 -0.5838
 9895TIP3    H251177   0.533   5.535   4.767  0.5777 -1.3011 -1.9833
 9896TIP3   OH251178   2.884   1.841   1.118 -0.3129 -0.0272  0.1321
 9896TIP3    H151179   2.836   1.842   1.036 -1.0845  1.1452  0.5781
 9896TIP3    H251180   2.826   1.884   1.181  1.3138  1.4743  0.6815
 9897TIP3   OH251181   2.789   5.480   4.531 -0.0236 -0.3530 -0.3317
 9897TIP3    H151182   2.761   5.548   4.592  0.3768 -0.5017  0.0253
 9897TIP3    H251183   2.715   5.469   4.471  0.0059  0.5702 -0.5477
 9898TIP3   OH251184   6.012   5.739  12.168 -0.0285  0.3646 -0.0769
 9898TIP3    H151185   5.987   5.826  12.137  0.9399  1.3960  1.8982
 9898TIP3    H251186   6.079   5.710  12.106  0.4767  1.5419 -0.1057
 9899TIP3   OH251187   4.254   4.288  13.783 -0.3402  0.0057  0.0561
 9899TIP3    H151188   4.193   4.303  13.855  0.0426  1.5525  0.0920
 9899TIP3    H251189   4.316   4.361  13.788  0.8379 -0.8983 -0.6847
 9900TIP3   OH251190   0.600   0.691  13.572 -0.1930 -0.0482 -0.8797
 9900TIP3    H151191   0.649   0.692  13.654 -0.9774 -1.1242 -0.3762
 9900TIP3    H251192   0.644   0.627  13.517 -0.4238 -0.2732 -0.8064
 9901TIP3   OH251193   4.768   1.583  17.288 -0.4172  0.0117  0.4062
 9901TIP3    H151194   4.824   1.652  17.322 -0.2575 -0.5588  1.3349
 9901TIP3    H251195   4.757   1.522  17.361 -0.2245 -1.1520 -0.4965
 9902TIP3   OH251196   0.295   2.988   5.016  0.0963  0.1941 -0.1250
 9902TIP3    H151197   0.347   2.910   4.998  0.3793  0.6363 -1.2876
 9902TIP3    H251198   0.349   3.040   5.075  0.7596  0.4057 -0.9081
 9903TIP3   OH251199   4.709   4.347  15.573  0.0464 -0.0308  0.0380
 9903TIP3    H151200   4.786   4.397  15.600 -0.6192  0.4418  1.1220
 9903TIP3    H251201   4.735   4.255  15.586  0.6155  0.0964 -0.1552
 9904TIP3   OH251202   6.614   3.823   0.561 -0.0766  0.3726  0.0575
 9904TIP3    H151203   6.658   3.845   0.643 -0.1258  0.4344  0.0676
 9904TIP3    H251204   6.527   3.861   0.570  0.2509  1.2530 -0.4363
 9905TIP3   OH251205   4.388   4.269   3.928  0.5895 -0.3450  0.3477
 9905TIP3    H151206   4.462   4.308   3.975 -0.1278 -0.8530  1.9684
 9905TIP3    H251207   4.311   4.305   3.970 -0.0954 -0.8642 -0.4218
 9906TIP3   OH251208   0.288   2.322   5.777  0.1377 -0.8831 -0.4765
 9906TIP3    H151209   0.382   2.334   5.766  0.1855 -1.3809 -0.6339
 9906TIP3    H251210   0.252   2.338   5.690 -0.1390  1.1883 -0.0319
 9907TIP3   OH251211   3.366   4.919  13.945 -0.9501  0.0482 -0.2533
 9907TIP3    H151212   3.353   5.014  13.950 -0.9761 -0.0288  1.6605
 9907TIP3    H251213   3.461   4.909  13.941 -0.7305  0.1235  2.6719
 9908TIP3   OH251214   0.080   0.866   4.656 -0.6845 -0.6274  0.3927
 9908TIP3    H151215   0.034   0.784   4.674 -0.9783 -0.5766 -0.0847
 9908TIP3    H251216   0.123   0.889   4.738  0.1337 -1.7191  0.2997
 9909TIP3   OH251217   0.876   6.242   1.125 -0.1386 -0.2331 -0.3092
 9909TIP3    H151218   0.817   6.285   1.063 -0.3623 -0.3070 -0.1464
 9909TIP3    H251219   0.964   6.269   1.097 -0.2527 -0.0674 -0.5068
 9910TIP3   OH251220   3.161   0.468  12.599 -0.2684  0.5293  0.0897
 9910TIP3    H151221   3.246   0.492  12.636 -0.0208 -1.0358  0.6068
 9910TIP3    H251222   3.114   0.427  12.671 -1.7762  2.0143  0.0118
 9911TIP3   OH251223   0.518   0.482  11.591  0.2766 -0.1118  0.5435
 9911TIP3    H151224   0.603   0.443  11.609  1.1872  1.7487  0.4719
 9911TIP3    H251225   0.494   0.526  11.673  0.4401  1.2025 -0.0882
 9912TIP3   OH251226   3.092   4.952  15.230 -0.0296  0.1479 -0.1040
 9912TIP3    H151227   3.156   5.020  15.249  1.8887 -0.9263 -2.2345
 9912TIP3    H251228   3.064   4.920  15.316  0.6693  2.0654  0.9019
 9913TIP3   OH251229   6.203   2.385  12.888 -0.1910  0.7030 -0.4710
 9913TIP3    H151230   6.132   2.433  12.930 -0.9699  0.6562 -1.7124
 9913TIP3    H251231   6.231   2.441  12.816  1.2793  0.8775  0.2018
 9914TIP3   OH251232   0.316   5.445  15.121  0.0379 -0.1616  0.4681
 9914TIP3    H151233   0.255   5.409  15.185 -0.6824 -0.2232 -0.2424
 9914TIP3    H251234   0.387   5.381  15.117 -1.2180 -1.5226 -0.7751
 9915TIP3   OH251235   0.587   1.258   2.714  0.2495  0.3536 -0.0929
 9915TIP3    H151236   0.662   1.301   2.673  0.2343 -0.4403 -1.0080
 9915TIP3    H251237   0.617   1.237   2.802  1.0590  0.1815 -0.3934
 9916TIP3   OH251238   2.678   3.296   2.717  0.2829  0.4876  0.2419
 9916TIP3    H151239   2.716   3.208   2.714  1.0741  0.5947  3.5188
 9916TIP3    H251240   2.751   3.354   2.695 -0.1094  0.3940 -1.4078
 9917TIP3   OH251241   4.065   0.312  15.423  0.2675  0.6365 -0.6523
 9917TIP3    H151242   4.063   0.244  15.490 -1.0819 -0.5761 -1.8577
 9917TIP3    H251243   4.108   0.386  15.465  1.4836 -0.8355  0.8124
 9918TIP3   OH251244   6.657   0.060   1.770 -0.0293  0.8224  0.9236
 9918TIP3    H151245   6.633   0.053   1.678 -0.2638 -0.2054  1.0547
 9918TIP3    H251246   6.654  -0.030   1.803  0.1094  1.1697  1.9217
 9919TIP3   OH251247   1.148   6.646  10.668 -0.0325 -0.3882  0.1321
 9919TIP3    H151248   1.208   6.572  10.655 -0.6663 -1.2467  1.8218
 9919TIP3    H251249   1.196   6.705  10.725  1.2136  1.5032 -2.6407
 9920TIP3   OH251250   4.258   3.799   3.474 -0.3130  0.5296 -0.0187
 9920TIP3    H151251   4.264   3.721   3.528  3.9338 -0.6875 -1.8457
 9920TIP3    H251252   4.211   3.771   3.396  1.7052 -0.4883 -0.9256
 9921TIP3   OH251253   4.814   3.661  11.161 -0.2791 -0.1016 -0.5768
 9921TIP3    H151254   4.729   3.656  11.204  0.3693  0.8325  0.9125
 9921TIP3    H251255   4.841   3.752  11.174  1.4440 -0.6609  0.0143
 9922TIP3   OH251256   3.866   2.264   3.000 -0.0025 -0.3900  0.2466
 9922TIP3    H151257   3.882   2.202   3.071 -1.0851 -1.4503 -0.3857
 9922TIP3    H251258   3.952   2.300   2.978  0.2111  0.9895  2.9555
 9923TIP3   OH251259   4.205   2.397  11.610  0.0568  0.1043  1.2176
 9923TIP3    H151260   4.173   2.338  11.541  1.1484 -0.9377  1.5768
 9923TIP3    H251261   4.259   2.460  11.564 -0.0691  0.0432  0.9837
 9924TIP3   OH251262   5.292   2.100   4.976 -0.4310  0.1858 -0.0150
 9924TIP3    H151263   5.323   2.184   5.011 -2.7366  0.2510  2.1591
 9924TIP3    H251264   5.213   2.081   5.026 -0.9545 -2.4740 -1.6539
 9925TIP3   OH251265   6.217   6.028   4.398 -0.2520 -0.8377  0.9689
 9925TIP3    H151266   6.289   5.981   4.440  0.4517  0.4976  1.3282
 9925TIP3    H251267   6.200   5.978   4.318  0.6924 -1.5041  1.1639
 9926TIP3   OH251268   1.505   0.749  12.532  0.0325  0.2593  0.5598
 9926TIP3    H151269   1.484   0.729  12.623  0.2109  0.7185  0.7060
 9926TIP3    H251270   1.599   0.769  12.533 -0.0439  0.6359  0.3410
 9927TIP3   OH251271   2.171   0.858   4.373 -0.1052 -0.1127 -1.0011
 9927TIP3    H151272   2.156   0.764   4.365 -0.7198  0.0081 -1.3606
 9927TIP3    H251273   2.158   0.876   4.466  0.8016 -0.5034 -0.7866
 9928TIP3   OH251274   4.031   1.824  13.407 -0.3304  1.0762 -0.0294
 9928TIP3    H151275   4.112   1.854  13.448  0.2087 -0.9774  0.5535
 9928TIP3    H251276   4.051   1.735  13.376 -2.4326  0.3706  0.4434
 9929TIP3   OH251277   5.464   5.101   1.134 -0.4892 -0.0294  0.0069
 9929TIP3    H151278   5.513   5.157   1.074 -1.3421  0.9905  0.2420
 9929TIP3    H251279   5.408   5.049   1.077  0.1705 -0.5407 -0.1978
 9930TIP3   OH251280   1.247   5.460   1.025 -0.6553 -0.1356 -0.8918
 9930TIP3    H151281   1.200   5.410   0.958 -0.5545 -1.9282  0.3128
 9930TIP3    H251282   1.337   5.428   1.019 -0.6524 -0.3463  0.1027
 9931TIP3   OH251283   4.155   4.150   5.692 -0.5360 -0.1162 -0.3799
 9931TIP3    H151284   4.121   4.154   5.781  0.2674 -0.3087 -0.0516
 9931TIP3    H251285   4.082   4.118   5.639 -0.9057 -0.3637  0.2741
 9932TIP3   OH251286   6.716   3.301   5.340  0.5309 -0.0546 -0.0443
 9932TIP3    H151287   6.645   3.342   5.388  1.7037  1.3914  0.5350
 9932TIP3    H251288   6.686   3.299   5.249 -0.0683  0.9539  0.1158
 9933TIP3   OH251289   2.492   6.047  16.881  0.6538 -0.8258 -0.5102
 9933TIP3    H151290   2.447   6.091  16.953  0.9199  0.4871 -1.1083
 9933TIP3    H251291   2.579   6.026  16.915  0.7339 -0.3197 -0.3902
 9934TIP3   OH251292   1.140   4.200   0.639 -1.4744  0.0303  0.3821
 9934TIP3    H151293   1.152   4.160   0.725 -0.3355  0.9766  0.6874
 9934TIP3    H251294   1.047   4.225   0.636 -2.0620 -1.9786  0.4373
 9935TIP3   OH251295   5.459   2.329   4.315  0.5017 -0.4431  0.2211
 9935TIP3    H151296   5.551   2.353   4.306  0.8310 -0.5214  2.6088
 9935TIP3    H251297   5.420   2.349   4.230  2.5075  0.5034 -0.5423
 9936TIP3   OH251298   3.709   6.696  14.728 -0.0976  0.0919 -0.0072
 9936TIP3    H151299   3.684   6.664  14.814  0.4127 -1.0188 -0.2544
 9936TIP3    H251300   3.627   6.713  14.683 -0.5155 -3.3150 -0.7575
 9937TIP3   OH251301   6.141   5.449   1.330 -0.0451  0.4113  0.3635
 9937TIP3    H151302   6.126   5.474   1.421  0.5694  1.2523  0.2426
 9937TIP3    H251303   6.166   5.530   1.286  1.8348 -0.3548 -0.0819
 9938TIP3   OH251304   0.377   0.394  14.157 -0.1824  0.5319 -0.7407
 9938TIP3    H151305   0.287   0.422  14.175  0.2584  0.7099  1.4026
 9938TIP3    H251306   0.382   0.305  14.193  0.0074 -0.2451 -2.5528
 9939TIP3   OH251307   1.572   2.639   3.472 -0.3083 -0.0274  0.4970
 9939TIP3    H151308   1.543   2.569   3.531 -1.1101  0.7761  1.0926
 9939TIP3    H251309   1.667   2.634   3.475 -0.3345 -0.3759  1.4255
 9940TIP3   OH251310   5.633   5.731   0.266 -0.2256  0.0630  0.2193
 9940TIP3    H151311   5.541   5.715   0.284 -0.2878 -0.4911 -0.5249
 9940TIP3    H251312   5.647   5.823   0.289 -1.1861  0.3999 -0.4793
 9941TIP3   OH251313   5.983   6.825   4.713 -0.1830  0.1578  0.0558
 9941TIP3    H151314   6.043   6.896   4.737 -0.8842  0.4722  0.9187
 9941TIP3    H251315   6.041   6.751   4.695  0.5990  1.1011 -1.4810
 9942TIP3   OH251316   6.399   4.954  16.550  0.0201 -0.0694 -0.3625
 9942TIP3    H151317   6.310   4.972  16.580  0.2068 -0.5064  0.5018
 9942TIP3    H251318   6.391   4.883  16.487 -0.4889  1.4951 -2.1454
 9943TIP3   OH251319   6.118   6.054  12.932 -0.8873  0.4111 -0.2573
 9943TIP3    H151320   6.201   6.097  12.956  0.5056 -1.7501 -0.9541
 9943TIP3    H251321   6.060   6.072  13.005  0.4961  1.1888  0.7006
 9944TIP3   OH251322   4.661   4.676   6.503  0.1975  0.5900 -0.2010
 9944TIP3    H151323   4.669   4.744   6.570 -1.2010 -1.4083  2.1843
 9944TIP3    H251324   4.573   4.688   6.467  0.4003  0.7617 -0.6476
 9945TIP3   OH251325   4.369   1.331  15.099 -0.0462  0.1515 -0.0517
 9945TIP3    H151326   4.440   1.367  15.046  0.3652  0.1512  0.4896
 9945TIP3    H251327   4.311   1.406  15.115 -0.7790 -0.0935 -1.4496
 9946TIP3   OH251328   0.469   0.864   6.307  0.1210 -0.2757  0.3730
 9946TIP3    H151329   0.470   0.798   6.376  0.6995 -1.1517 -0.4447
 9946TIP3    H251330   0.402   0.927   6.334  0.4859 -0.4945  1.8178
 9947TIP3   OH251331   0.383   1.046  14.777 -0.5341  0.5614 -0.5389
 9947TIP3    H151332   0.422   0.972  14.732  0.3593  1.0809 -0.6297
 9947TIP3    H251333   0.371   1.015  14.867  2.4029  1.1632  0.1528
 9948TIP3   OH251334   6.655   2.443  16.867  0.0619  0.4958  0.1515
 9948TIP3    H151335   6.671   2.507  16.798 -1.8710  1.2972  0.3900
 9948TIP3    H251336   6.646   2.496  16.947  0.5994 -0.2776  0.7408
 9949TIP3   OH251337   5.468   5.026  16.972 -0.6531  0.0099 -0.4356
 9949TIP3    H151338   5.500   5.112  17.000  0.0279  0.3355 -2.0948
 9949TIP3    H251339   5.415   5.045  16.894  0.3519 -1.1551 -1.4393
 9950TIP3   OH251340   4.670   0.878   3.838  0.1875 -0.2035  0.3849
 9950TIP3    H151341   4.735   0.808   3.850  0.3817  0.3318  3.2096
 9950TIP3    H251342   4.648   0.905   3.927 -2.3928  1.0701 -0.5455
 9951TIP3   OH251343   4.557   3.911   3.927 -0.2765 -0.0581 -0.3878
 9951TIP3    H151344   4.469   3.889   3.895  0.1754 -0.5878 -1.3061
 9951TIP3    H251345   4.572   3.849   3.998 -0.2033 -0.7567 -0.9928
 9952TIP3   OH251346   6.133   2.936   4.679  0.4621  0.0412 -0.1833
 9952TIP3    H151347   6.114   2.847   4.709  1.2712  0.0439  0.3857
 9952TIP3    H251348   6.100   2.939   4.590  0.7197 -0.9482 -0.3232
 9953TIP3   OH251349   4.785   1.384   2.738  0.6566 -0.0356 -0.0890
 9953TIP3    H151350   4.749   1.381   2.826  3.0726  0.3187  0.9661
 9953TIP3    H251351   4.710   1.405   2.682 -0.9102 -0.2215  1.8579
 9954TIP3   OH251352   2.815   2.163   1.682  0.4019 -0.6375  0.3032
 9954TIP3    H151353   2.787   2.123   1.764  1.4034  0.4431  1.2055
 9954TIP3    H251354   2.899   2.121   1.661 -0.5652 -2.0095 -1.0143
 9955TIP3   OH251355   3.532   1.781   4.540  0.2752 -0.0265 -0.2620
 9955TIP3    H151356   3.547   1.817   4.453 -1.1827  0.4443 -0.3547
 9955TIP3    H251357   3.436   1.779   4.549  0.3832  0.4361  1.5233
 9956TIP3   OH251358   5.081   0.177   0.863 -0.0385 -0.0605 -0.0772
 9956TIP3    H151359   5.159   0.230   0.878  0.5561 -1.2313  1.1026
 9956TIP3    H251360   5.083   0.157   0.770  1.3928 -0.5346  0.0291
 9957TIP3   OH251361   3.800   5.111   1.756 -0.0100  0.3552  0.2380
 9957TIP3    H151362   3.882   5.160   1.770 -1.3550  2.3671  1.6444
 9957TIP3    H251363   3.783   5.120   1.663  0.8927  0.7514  0.0933
 9958TIP3   OH251364   1.882   3.262   2.753  0.4303  0.2751 -0.2189
 9958TIP3    H151365   1.846   3.279   2.840 -0.1350 -2.3568  0.1528
 9958TIP3    H251366   1.974   3.241   2.769  0.0732 -1.3207 -0.0389
 9959TIP3   OH251367   1.894   1.695  15.711 -0.4890  0.3279  0.4138
 9959TIP3    H151368   1.815   1.664  15.668 -0.8744  1.2522  0.4164
 9959TIP3    H251369   1.964   1.684  15.646 -0.8831  0.7997 -0.0936
 9960TIP3   OH251370   3.422   0.983  12.989  0.1081 -0.2926  0.7554
 9960TIP3    H151371   3.429   0.932  12.908  2.9361  0.7144  0.2697
 9960TIP3    H251372   3.356   0.936  13.040 -0.7699 -1.7508 -1.5357
 9961TIP3   OH251373   1.796   3.043   6.317 -0.0739  0.0863  0.2256
 9961TIP3    H151374   1.849   2.965   6.301  3.0644  2.1724 -0.6542
 9961TIP3    H251375   1.850   3.096   6.377 -0.4440  2.9133 -1.7101
 9962TIP3   OH251376   1.423   1.508   0.397  0.0424  0.2814  0.2083
 9962TIP3    H151377   1.467   1.536   0.478  0.6982  1.9060 -0.6670
 9962TIP3    H251378   1.477   1.436   0.365  0.8077  0.7940  0.3084
 9963TIP3   OH251379   0.345   4.121  15.330 -0.2345  0.3854  0.1262
 9963TIP3    H151380   0.302   4.205  15.314 -1.4715  0.0882  1.6009
 9963TIP3    H251381   0.423   4.143  15.380  0.5645  0.8027 -1.2559
 9964TIP3   OH251382   2.969   1.362   1.290  0.5583 -0.0245 -0.6774
 9964TIP3    H151383   2.946   1.415   1.213  0.3943 -0.1678 -0.7274
 9964TIP3    H251384   3.064   1.371   1.298  0.3280  1.8700  0.4629
 9965TIP3   OH251385   4.057   0.902  11.098 -0.2471  0.1885 -0.6668
 9965TIP3    H151386   3.980   0.848  11.082 -0.6033  0.5893 -0.3089
 9965TIP3    H251387   4.056   0.967  11.027 -0.6627  0.6611 -0.2367
 9966TIP3   OH251388   2.410   0.702  11.398  0.7150 -0.5566  0.1863
 9966TIP3    H151389   2.441   0.732  11.312 -1.8760 -0.9825 -0.9927
 9966TIP3    H251390   2.425   0.777  11.456 -0.9193  1.2044 -1.5311
 9967TIP3   OH251391   2.432   5.217   4.453 -0.0157  0.7273  0.0444
 9967TIP3    H151392   2.428   5.129   4.416  0.9705  0.6048  0.1882
 9967TIP3    H251393   2.483   5.268   4.390 -0.3242  1.1188  0.1068
 9968TIP3   OH251394   3.560   2.736   4.714  0.1432 -0.1745  0.0172
 9968TIP3    H151395   3.654   2.749   4.730  0.3650 -2.2607  0.7816
 9968TIP3    H251396   3.535   2.668   4.777 -1.5398 -0.7467 -1.2090
 9969TIP3   OH251397   3.775   4.554   6.488  0.1094 -0.3543 -0.6988
 9969TIP3    H151398   3.855   4.571   6.439  0.4102 -2.2045 -0.9050
 9969TIP3    H251399   3.774   4.621   6.556  2.6897 -1.2302  0.3324
 9970TIP3   OH251400   0.146   6.037   3.938 -0.7633  0.0341 -0.0402
 9970TIP3    H151401   0.068   5.999   3.898 -1.2863  1.6985 -0.6785
 9970TIP3    H251402   0.168   6.112   3.882  1.5263 -0.5960 -0.0902
 9971TIP3   OH251403   5.711   6.762  13.012 -0.6971 -0.4555  0.1224
 9971TIP3    H151404   5.640   6.746  13.073 -1.8001  0.8611 -0.7620
 9971TIP3    H251405   5.762   6.681  13.012 -3.1069 -2.0774 -0.4288
 9972TIP3   OH251406   0.194   1.758  13.626 -0.3252  0.4987  0.1421
 9972TIP3    H151407   0.158   1.791  13.544 -0.7889 -0.6645 -0.1388
 9972TIP3    H251408   0.120   1.715  13.670  0.4653 -1.0430  0.0195
 9973TIP3   OH251409   3.576   2.252   0.386  0.0340 -0.0211 -0.1485
 9973TIP3    H151410   3.667   2.255   0.415 -0.7836 -0.3093  2.7937
 9973TIP3    H251411   3.555   2.342   0.361  1.0074  0.1083 -0.5525
 9974TIP3   OH251412   4.731   4.494  12.403 -0.0875 -0.0334  0.1229
 9974TIP3    H151413   4.724   4.486  12.308  0.3307 -0.7077  0.1387
 9974TIP3    H251414   4.751   4.586  12.419  1.1793 -0.1702 -0.5434
 9975TIP3   OH251415   0.551   1.904   1.296 -0.4036  0.7054 -0.1243
 9975TIP3    H151416   0.609   1.828   1.300 -1.6997 -0.2888  0.9961
 9975TIP3    H251417   0.583   1.955   1.221  1.9209  0.2674  0.4892
 9976TIP3   OH251418   5.718   1.630  15.839 -0.1488  0.1464  0.4149
 9976TIP3    H151419   5.642   1.637  15.782  0.0287 -1.6773 -0.1355
 9976TIP3    H251420   5.684   1.638  15.927 -1.2403 -1.8964  0.2475
 9977TIP3   OH251421   0.359   2.248   1.907  0.2316  0.3542 -0.4762
 9977TIP3    H151422   0.270   2.221   1.926  0.5404 -0.3834 -0.0532
 9977TIP3    H251423   0.367   2.240   1.811  1.3585 -4.6520 -0.2359
 9978TIP3   OH251424   3.624   2.840   3.001 -0.1734  0.2442 -0.1795
 9978TIP3    H151425   3.632   2.917   2.945  1.0824  0.2889  0.0159
 9978TIP3    H251426   3.711   2.832   3.042 -1.1477  0.4410  2.0667
 9979TIP3   OH251427   1.024   1.690  14.103 -0.3195  0.3888 -0.3681
 9979TIP3    H151428   0.950   1.707  14.161  1.0568 -0.5246  1.7972
 9979TIP3    H251429   1.058   1.605  14.132  0.7895  0.1705 -2.1600
 9980TIP3   OH251430   0.798   1.330   4.307 -0.0615  0.1744 -0.4432
 9980TIP3    H151431   0.823   1.251   4.356 -0.0142 -0.1062 -0.9086
 9980TIP3    H251432   0.711   1.352   4.341  0.5755  0.8391  0.7949
 9981TIP3   OH251433   4.120   0.794  14.353 -0.0286 -0.1455 -0.2946
 9981TIP3    H151434   4.123   0.838  14.438  0.4495  0.2814 -0.5291
 9981TIP3    H251435   4.116   0.701  14.374 -0.4941 -0.0190  0.2027
 9982TIP3   OH251436   5.008   4.257  12.312 -0.0484 -0.6568 -0.3606
 9982TIP3    H151437   4.977   4.181  12.262  2.8956 -3.1759  1.3215
 9982TIP3    H251438   4.959   4.253  12.394  2.3881 -2.9260  1.1190
 9983TIP3   OH251439   3.537   2.587  15.747 -0.3079 -0.4816 -0.7159
 9983TIP3    H151440   3.633   2.578  15.746 -0.2839 -0.1782 -1.2621
 9983TIP3    H251441   3.505   2.499  15.733 -0.1404 -0.9837  1.5804
 9984TIP3   OH251442   4.145   6.362   1.626 -0.1261 -0.6325  0.4277
 9984TIP3    H151443   4.215   6.412   1.669 -1.0978 -0.2293  1.6136
 9984TIP3    H251444   4.126   6.291   1.687  0.5418 -1.9023 -0.7838
 9985TIP3   OH251445   3.943   4.279   2.168  0.0225 -0.1563  0.0624
 9985TIP3    H151446   3.933   4.248   2.078  1.8538  0.7922 -0.4991
 9985TIP3    H251447   4.030   4.317   2.172 -0.7946  1.7353  1.6803
 9986TIP3   OH251448   4.278   0.894  14.163  0.2686  0.0336 -0.3787
 9986TIP3    H151449   4.213   0.879  14.232  0.2690  0.5834 -0.2551
 9986TIP3    H251450   4.251   0.836  14.092  0.8290 -1.2930  0.4340
 9987TIP3   OH251451   5.844   3.151  11.271  0.1225  0.3647  0.0278
 9987TIP3    H151452   5.828   3.216  11.202 -2.0639 -0.3877 -0.2421
 9987TIP3    H251453   5.903   3.087  11.231 -0.4449  0.3884 -0.8620
 9988TIP3   OH251454   5.944   1.067   3.399  0.2940  0.0675  0.9128
 9988TIP3    H151455   5.916   1.074   3.308  0.7747 -0.0599  0.7478
 9988TIP3    H251456   5.863   1.056   3.448 -0.0334  0.9467  0.5908
 9989TIP3   OH251457   3.748   4.240  11.654  0.1962  0.0652 -0.0236
 9989TIP3    H151458   3.805   4.301  11.607  1.8774  1.5329  3.5100
 9989TIP3    H251459   3.667   4.289  11.669  0.2942  0.2165  0.0112
 9990TIP3   OH251460   5.508   3.249   3.386 -0.5587  0.1850  0.1577
 9990TIP3    H151461   5.513   3.181   3.319 -0.4350  1.2398 -0.9190
 9990TIP3    H251462   5.477   3.202   3.464 -1.1290 -0.9808 -0.7342
 9991TIP3   OH251463   2.434   2.682   2.976  0.8687  0.4082  0.3201
 9991TIP3    H151464   2.416   2.592   3.003 -3.7674  0.9008 -0.3117
 9991TIP3    H251465   2.435   2.731   3.058  0.5695  0.1274  0.4983
 9992TIP3   OH251466   2.582   6.012  12.367  0.3117  0.4332  0.4283
 9992TIP3    H151467   2.665   6.054  12.388 -0.4572  0.9390  2.8320
 9992TIP3    H251468   2.590   5.924  12.405 -0.8460  1.0962  2.3372
 9993TIP3   OH251469   2.293   6.682  15.109 -0.1870 -0.4435 -0.1818
 9993TIP3    H151470   2.281   6.616  15.041 -0.0221 -0.2165 -0.4346
 9993TIP3    H251471   2.226   6.748  15.092 -0.4655 -0.6321  0.1763
 9994TIP3   OH251472   6.266   1.382  16.386 -0.1529  0.2301 -0.5579
 9994TIP3    H151473   6.253   1.380  16.481  0.1955 -0.2552 -0.5145
 9994TIP3    H251474   6.276   1.290  16.361 -2.6932  0.1255 -1.4295
 9995TIP3   OH251475   3.064   2.866   0.148  0.0014  0.3304  0.2606
 9995TIP3    H151476   3.135   2.804   0.163 -0.6169 -0.5355 -0.2716
 9995TIP3    H251477   2.996   2.814   0.105 -1.4388  0.8269  1.8055
 9996TIP3   OH251478   3.370   3.552   3.045  0.1643  0.0955 -0.6115
 9996TIP3    H151479   3.433   3.530   3.112  0.7462 -1.7020 -1.6745
 9996TIP3    H251480   3.421   3.594   2.976 -0.3833  1.6828 -0.0992
 9997TIP3   OH251481   3.878   3.256   1.758 -0.0244 -0.6124 -0.5086
 9997TIP3    H151482   3.840   3.191   1.817  0.9696 -0.5021  0.2903
 9997TIP3    H251483   3.833   3.338   1.781  0.3470 -0.5727  0.1075
 9998TIP3   OH251484   0.212   1.965   0.355  0.6397  0.6735  0.6089
 9998TIP3    H151485   0.168   1.938   0.435  0.7251 -0.3988  0.3136
 9998TIP3    H251486   0.214   2.060   0.359 -0.1322  0.6643  1.4610
 9999TIP3   OH251487   3.565   1.321  16.620  0.2942  0.1067  0.1992
 9999TIP3    H151488   3.612   1.403  16.606 -1.1875  0.9887  0.1451
 9999TIP3    H251489   3.555   1.315  16.715 -0.6280  0.6133  0.1418
10000TIP3   OH251490   0.926   1.409  11.268 -0.0563 -0.3335 -0.0084
10000TIP3    H151491   0.931   1.380  11.359 -1.6049 -0.2847  0.1118
10000TIP3    H251492   0.990   1.480  11.262  1.0070 -1.1952  0.6841
10001TIP3   OH251493   1.215   4.690  16.501  0.0072 -0.2285 -0.2650
10001TIP3    H151494   1.224   4.765  16.560 -0.1471  0.6495 -1.3441
10001TIP3    H251495   1.295   4.639  16.516  0.1213  0.1401  0.4675
10002TIP3   OH251496   1.427   3.383  13.800 -0.3315  0.4652  0.1278
10002TIP3    H151497   1.423   3.380  13.704  2.0289  0.4615 -0.0154
10002TIP3    H251498   1.419   3.291  13.827  1.1058  0.2166 -0.2150
10003TIP3   OH251499   2.760   3.809   4.229 -0.4677 -0.2738 -0.3898
10003TIP3    H151500   2.694   3.816   4.160 -0.9722 -1.0097  0.0076
10003TIP3    H251501   2.740   3.726   4.273  0.6847 -0.4716 -0.2216
10004TIP3   OH251502   5.350   1.199  16.972 -0.0116 -0.0743 -0.8450
10004TIP3    H151503   5.430   1.148  16.976 -0.2941 -0.4376  0.9908
10004TIP3    H251504   5.368   1.266  16.906  3.0916  1.9359  1.7302
10005TIP3   OH251505   2.724   5.148  13.686  0.1827  0.4730  0.1712
10005TIP3    H151506   2.804   5.169  13.638 -0.0061  0.7269 -0.0431
10005TIP3    H251507   2.674   5.092  13.626 -0.2423  1.1358 -0.1137
10006TIP3   OH251508   2.579   4.755  13.261 -0.2961  0.0815  0.6144
10006TIP3    H151509   2.572   4.848  13.239 -0.9609 -0.0740  0.1176
10006TIP3    H251510   2.556   4.710  13.180  1.3657 -0.5370  0.4376
10007TIP3   OH251511   1.344   1.843  17.080 -0.2274 -0.1124 -0.3968
10007TIP3    H151512   1.279   1.908  17.102 -0.6054 -0.6966  0.2551
10007TIP3    H251513   1.314   1.805  16.997  1.3043  2.2313 -2.1659
10008TIP3   OH251514   0.139   1.624  10.514 -0.1466 -0.2761 -0.1420
10008TIP3    H151515   0.065   1.589  10.564  0.1445  0.2790  0.7044
10008TIP3    H251516   0.214   1.616  10.574  0.8005 -2.1467 -1.4658
10009TIP3   OH251517   2.091   2.855  15.493 -0.3035  1.0905  0.3994
10009TIP3    H151518   2.052   2.885  15.575  1.0249  1.9624  0.7429
10009TIP3    H251519   2.171   2.907  15.485 -0.1782  0.6791 -1.2176
10010TIP3   OH251520   2.350   1.584   0.009  0.4705  0.3535  0.2405
10010TIP3    H151521   2.397   1.620   0.084  0.3150  1.1453 -0.0264
10010TIP3    H251522   2.418   1.555  -0.051  0.6135  0.8377  0.1653
10011TIP3   OH251523   4.405   4.145   5.996 -0.1895  0.1997 -0.1969
10011TIP3    H151524   4.384   4.072   5.937  0.2646  0.4773 -0.7087
10011TIP3    H251525   4.411   4.105   6.083  0.2887 -0.4069 -0.5083
10012TIP3   OH251526   6.717   3.217  11.147 -0.4601 -0.4302  0.2198
10012TIP3    H151527   6.776   3.157  11.103  1.5085  0.7766  1.0940
10012TIP3    H251528   6.710   3.292  11.088 -1.2829 -0.6315  0.0465
10013TIP3   OH251529   4.822   6.387   6.766 -0.5033  0.5787  0.0213
10013TIP3    H151530   4.750   6.423   6.713 -0.2113 -0.3902 -1.0700
10013TIP3    H251531   4.818   6.293   6.749  0.9015  0.4965  0.0972
10014TIP3   OH251532   3.949   0.260   0.354 -0.5292  0.1130 -0.5639
10014TIP3    H151533   4.006   0.315   0.301 -0.5961 -0.3088 -1.0844
10014TIP3    H251534   3.990   0.173   0.350 -0.7649 -0.0110 -0.2713
10015TIP3   OH251535   4.607   1.480  13.638 -0.7312  0.0350 -0.0102
10015TIP3    H151536   4.552   1.436  13.703 -1.2390  1.2644  0.4218
10015TIP3    H251537   4.675   1.524  13.690 -0.8075  0.5613 -0.3489
10016TIP3   OH251538   5.013   0.432  17.042  0.0834  0.2476 -0.1005
10016TIP3    H151539   4.920   0.454  17.033  0.0956  0.6172  0.6406
10016TIP3    H251540   5.058   0.516  17.029  0.2088  0.4142  1.2707
10017TIP3   OH251541   0.346   5.598   2.469 -0.0324  0.0349  0.2562
10017TIP3    H151542   0.436   5.569   2.485  0.0862  0.6173  0.6792
10017TIP3    H251543   0.351   5.693   2.470 -0.3307  0.1107 -1.6607
10018TIP3   OH251544   3.417   1.516   6.398  0.3397 -0.1206 -0.1490
10018TIP3    H151545   3.366   1.437   6.379  1.2477 -0.5109 -1.0897
10018TIP3    H251546   3.499   1.483   6.437 -0.0294  0.4821  1.1780
10019TIP3   OH251547   6.677   1.287  11.162 -0.1915 -0.4361  0.0306
10019TIP3    H151548   6.639   1.324  11.241  1.8693 -3.0304  2.4791
10019TIP3    H251549   6.645   1.197  11.160  0.3727 -0.6391 -1.7086
10020TIP3   OH251550   4.047   4.182   1.471 -0.2107  0.0555  0.4322
10020TIP3    H151551   4.124   4.193   1.527  0.4314  0.2341 -0.4627
10020TIP3    H251552   4.013   4.271   1.459  0.2027  0.1340 -0.2053
10021TIP3   OH251553   2.567   6.149  11.076 -0.2329  0.1486 -0.2434
10021TIP3    H151554   2.549   6.196  10.995 -1.7534 -2.0388 -1.2651
10021TIP3    H251555   2.584   6.059  11.049  0.1852 -0.4545  1.8126
10022TIP3   OH251556   6.805   0.182   5.151 -0.5173  0.2917  0.1875
10022TIP3    H151557   6.783   0.128   5.227 -0.2081 -0.2124 -0.0726
10022TIP3    H251558   6.730   0.241   5.140 -0.9789 -0.2597  0.3238
10023TIP3   OH251559   0.305   3.934  16.102  0.8528  0.1986 -0.1696
10023TIP3    H151560   0.244   3.881  16.051  0.5419  0.4758 -0.0852
10023TIP3    H251561   0.354   3.984  16.037  1.8079 -0.8858 -0.3130
10024TIP3   OH251562   0.209   3.323  12.149  0.1991 -0.0501 -0.1028
10024TIP3    H151563   0.252   3.403  12.175  0.1513 -0.1503  0.2896
10024TIP3    H251564   0.174   3.286  12.230 -0.4572 -0.0660 -0.3840
10025TIP3   OH251565   2.632   2.766  11.863  0.1846 -0.0352 -0.2320
10025TIP3    H151566   2.620   2.684  11.911 -0.4001 -0.1476 -0.5515
10025TIP3    H251567   2.695   2.745  11.794 -1.7521 -0.8977 -1.8280
10026TIP3   OH251568   0.223   6.374   2.446 -0.3966  0.4923 -0.4446
10026TIP3    H151569   0.297   6.426   2.480  0.3277 -0.3203 -0.7286
10026TIP3    H251570   0.250   6.283   2.461 -1.8252  0.1938  0.4350
10027TIP3   OH251571   6.713   5.436   3.120 -0.0745  0.2520 -0.5086
10027TIP3    H151572   6.754   5.431   3.206  0.1195 -0.8628 -0.6459
10027TIP3    H251573   6.769   5.381   3.064 -1.1319 -0.4158 -0.9518
10028TIP3   OH251574   6.745   1.832  12.839  0.4505 -0.0203  0.6176
10028TIP3    H151575   6.728   1.859  12.749  1.7522  0.6788  0.5528
10028TIP3    H251576   6.688   1.757  12.853 -0.6616  0.6106 -0.3849
10029TIP3   OH251577   2.135   2.454  10.547  0.1108 -0.2096 -0.1209
10029TIP3    H151578   2.120   2.402  10.468 -0.0022  0.1215 -0.3200
10029TIP3    H251579   2.067   2.522  10.545  0.8426  0.5256 -0.3615
10030TIP3   OH251580   5.067   5.651  10.838  0.3216 -0.0964  0.5299
10030TIP3    H151581   5.141   5.693  10.795 -0.0662 -0.9782 -1.1063
10030TIP3    H251582   4.990   5.693  10.800 -0.0340 -0.4964  0.7952
10031TIP3   OH251583   6.338   6.604  12.746 -0.2328 -0.1186  0.5672
10031TIP3    H151584   6.255   6.652  12.744 -0.9528 -1.2417 -2.7255
10031TIP3    H251585   6.394   6.651  12.684 -0.2542 -2.2551 -1.1699
10032TIP3   OH251586   6.480   2.415  12.847 -0.5314 -0.1184  0.1379
10032TIP3    H151587   6.449   2.330  12.877 -0.7032  0.1610  0.7653
10032TIP3    H251588   6.420   2.439  12.776 -1.3639  0.1223  0.9118
10033TIP3   OH251589   1.669   2.271   4.746  0.7382 -0.2009  0.0927
10033TIP3    H151590   1.587   2.320   4.738  0.7345 -0.2705 -0.2962
10033TIP3    H251591   1.646   2.195   4.799  0.5699 -0.1834  0.0462
10034TIP3   OH251592   1.216   1.474  15.221  0.1292 -0.1764 -0.0769
10034TIP3    H151593   1.175   1.504  15.302 -1.7585  1.5391 -1.5786
10034TIP3    H251594   1.309   1.493  15.232 -0.0523 -0.1625  1.7246
10035TIP3   OH251595   3.995   6.433   1.856  0.4032 -0.0677  0.3508
10035TIP3    H151596   3.988   6.469   1.768  2.8298 -1.6073 -0.5831
10035TIP3    H251597   3.906   6.439   1.892 -1.0414 -0.7309 -2.7532
10036TIP3   OH251598   1.602   6.252  15.410 -0.3091 -0.1624 -0.4443
10036TIP3    H151599   1.590   6.176  15.466  0.5675 -0.8127 -1.1139
10036TIP3    H251600   1.694   6.249  15.384 -0.6155  0.3072 -1.6431
10037TIP3   OH251601   2.494   2.387   0.854 -0.9139  0.9425 -0.1822
10037TIP3    H151602   2.439   2.447   0.906  0.0861  0.2435  1.7865
10037TIP3    H251603   2.584   2.416   0.872 -0.5237  0.5352 -1.4021
10038TIP3   OH251604   0.961   3.209   1.009 -0.4474  0.0777  0.4166
10038TIP3    H151605   0.997   3.196   1.097 -1.0963 -0.1548  0.6517
10038TIP3    H251606   1.019   3.274   0.969  2.1027 -2.3816 -0.3009
10039TIP3   OH251607   3.393   1.711   1.479 -0.4111 -0.0354 -0.3746
10039TIP3    H151608   3.347   1.741   1.400 -0.3275  1.0267 -0.0338
10039TIP3    H251609   3.480   1.750   1.471  0.1828 -1.3480 -0.6018
10040TIP3   OH251610   3.385   0.121   1.973  0.3589  0.1223 -0.2537
10040TIP3    H151611   3.340   0.122   2.057  2.6146 -0.0766  1.0181
10040TIP3    H251612   3.377   0.031   1.942 -2.1102  0.6017 -1.2671
10041TIP3   OH251613   1.285   0.868  16.179  0.3733  0.2552 -0.0198
10041TIP3    H151614   1.208   0.817  16.154 -0.0855  0.8702  0.1061
10041TIP3    H251615   1.265   0.957  16.151  0.5146  0.6569  1.0795
10042TIP3   OH251616   5.593   6.549   3.439 -0.8688  0.0860 -0.0209
10042TIP3    H151617   5.529   6.594   3.385  0.5970  2.3094 -0.0284
10042TIP3    H251618   5.665   6.611   3.449  1.2941 -2.2428  0.0384
10043TIP3   OH251619   0.771   4.146   5.497  0.6397 -0.2123 -0.4925
10043TIP3    H151620   0.813   4.063   5.474 -1.9850 -1.3691 -1.5671
10043TIP3    H251621   0.782   4.200   5.419  2.0742  0.3822  0.0908
10044TIP3   OH251622   3.549   4.514   2.503 -0.3001  0.1444 -0.2597
10044TIP3    H151623   3.469   4.495   2.454  0.3564 -1.6685 -0.7272
10044TIP3    H251624   3.548   4.452   2.576  0.4098  0.4690  0.0329
10045TIP3   OH251625   2.271   6.537  17.077  0.3049  0.7904 -0.3224
10045TIP3    H151626   2.216   6.499  17.145  2.2054  0.8941  1.3615
10045TIP3    H251627   2.240   6.627  17.068 -0.5247  0.5168 -0.2369
10046TIP3   OH251628   0.709   4.344  12.845  0.3151 -0.0176 -0.8208
10046TIP3    H151629   0.750   4.420  12.887  1.0810 -0.2272 -1.1786
10046TIP3    H251630   0.760   4.329  12.766 -0.4235 -0.3281 -1.2550
10047TIP3   OH251631   6.811   0.962  11.665  0.1260  0.1701 -0.0283
10047TIP3    H151632   6.831   1.018  11.740  0.3265 -0.5454  0.4695
10047TIP3    H251633   6.766   0.886  11.703  0.5497 -0.3736 -0.5779
10048TIP3   OH251634   1.759   1.654  14.217  0.5531 -0.4233  1.0019
10048TIP3    H151635   1.811   1.697  14.285  2.5379 -3.2160  1.3794
10048TIP3    H251636   1.689   1.610  14.265  0.0288  0.2226  0.8560
10049TIP3   OH251637   0.173   5.768  15.792  0.0508 -0.6306 -0.1232
10049TIP3    H151638   0.224   5.692  15.821  1.2386  0.5852  1.0765
10049TIP3    H251639   0.145   5.811  15.873 -1.8005 -0.5264 -0.7713
10050TIP3   OH251640   5.812   3.137   3.346 -0.1794 -0.1565  0.5528
10050TIP3    H151641   5.896   3.101   3.374 -0.0886 -1.4265 -1.1837
10050TIP3    H251642   5.749   3.066   3.360 -0.0439 -1.0736 -2.6692
10051TIP3   OH251643   4.594   3.673   3.519  0.6557 -0.0847 -0.1134
10051TIP3    H151644   4.564   3.666   3.609 -0.6324 -0.0057 -0.5238
10051TIP3    H251645   4.514   3.680   3.467  1.3916  1.7050 -1.1084
10052TIP3   OH251646   5.074   2.332   2.700 -0.3483 -0.1623 -0.1694
10052TIP3    H151647   5.017   2.383   2.641 -1.3660 -0.0568  0.8612
10052TIP3    H251648   5.153   2.385   2.708  0.1791 -0.5614 -2.0524
10053TIP3   OH251649   0.469   3.761   2.689 -0.0773 -0.2846  0.2867
10053TIP3    H151650   0.546   3.711   2.717 -0.7248 -0.9926  0.8765
10053TIP3    H251651   0.450   3.818   2.764  0.3290  0.4589 -0.1675
10054TIP3   OH251652   0.139   5.144   0.626  0.0693 -0.7220 -0.4822
10054TIP3    H151653   0.209   5.200   0.662  1.2988 -1.6060 -1.4071
10054TIP3    H251654   0.064   5.160   0.683  1.2239 -0.2479  0.9756
10055TIP3   OH251655   1.066   2.992   2.051  0.4385 -0.0197 -0.1979
10055TIP3    H151656   1.085   2.909   2.094  2.0584  0.0109 -0.7592
10055TIP3    H251657   1.073   3.058   2.120 -1.6367 -0.3760  0.4192
10056TIP3   OH251658   0.207   3.076   5.920 -0.4610 -0.3720 -0.5648
10056TIP3    H151659   0.145   3.142   5.950  0.1633 -1.1044  2.7711
10056TIP3    H251660   0.277   3.126   5.877 -0.5355  1.0544  0.8850
10057TIP3   OH251661   3.813   4.858   3.671  0.0487  0.2681 -0.8179
10057TIP3    H151662   3.762   4.801   3.729 -0.3744  1.9065  0.4633
10057TIP3    H251663   3.777   4.945   3.684  0.5838  0.8540 -2.8562
10058TIP3   OH251664   5.532   5.938  14.033  0.5932 -0.0767 -0.0490
10058TIP3    H151665   5.563   5.955  14.122  0.7623  1.7166 -0.4092
10058TIP3    H251666   5.440   5.966  14.034  0.7873  0.6157 -0.5983
10059TIP3   OH251667   3.642   5.005   1.954 -0.0901 -0.0743 -0.0280
10059TIP3    H151668   3.691   5.056   1.889 -0.7190  0.7260  0.1001
10059TIP3    H251669   3.588   4.945   1.902  2.1858 -2.1557 -0.1480
10060TIP3   OH251670   6.491   4.111  11.180 -0.1326  0.0174 -0.3147
10060TIP3    H151671   6.448   4.141  11.100 -0.1702  0.4546 -0.1358
10060TIP3    H251672   6.419   4.093  11.240 -0.0937  2.7482  0.7070
10061TIP3   OH251673   3.117   4.206  14.543  0.5970 -0.2929  0.3053
10061TIP3    H151674   3.094   4.292  14.508  1.2634 -0.6572 -1.1112
10061TIP3    H251675   3.052   4.146  14.506  1.0483 -0.6223  0.0353
10062TIP3   OH251676   2.960   0.148  15.590 -0.2833 -0.2938 -0.5769
10062TIP3    H151677   2.868   0.127  15.604 -0.2890 -1.1612 -1.7350
10062TIP3    H251678   2.999   0.066  15.560  0.8516  0.0880 -0.1965
10063TIP3   OH251679   2.233   2.803  11.796  0.6371 -0.0240 -0.5697
10063TIP3    H151680   2.275   2.740  11.854  3.0037  2.1337  0.2866
10063TIP3    H251681   2.288   2.806  11.718  1.0626  1.4880 -0.2563
10064TIP3   OH251682   0.581   2.932  16.712  0.0398 -0.8458 -0.4889
10064TIP3    H151683   0.665   2.889  16.725  0.4263  0.0621  0.2058
10064TIP3    H251684   0.572   2.989  16.788 -0.0424  0.9244 -1.7632
10065TIP3   OH251685   0.755   4.199   0.398  0.2142  0.1043 -0.3768
10065TIP3    H151686   0.672   4.247   0.399  0.7929  1.1192  0.0833
10065TIP3    H251687   0.816   4.255   0.445  0.7787 -1.3494  0.7033
10066TIP3   OH251688   2.742   0.993  16.069 -0.0616  0.3114  0.0388
10066TIP3    H151689   2.707   1.041  15.994  0.7559  2.2794  0.8303
10066TIP3    H251690   2.819   1.044  16.096  1.0138 -1.6130  0.8174
10067TIP3   OH251691   3.454   2.007   4.345  0.2715  0.1178  0.4076
10067TIP3    H151692   3.478   2.021   4.253  0.0755  1.6912  0.5670
10067TIP3    H251693   3.363   2.036   4.350 -0.0452 -0.9130  0.9037
10068TIP3   OH251694   2.367   1.614  15.067 -0.2265  0.0873  0.1030
10068TIP3    H151695   2.407   1.598  15.152  1.6406  0.6270 -0.6224
10068TIP3    H251696   2.273   1.615  15.084  0.0132 -1.5846  1.8449
10069TIP3   OH251697   4.706   0.981   1.919  0.3310 -0.1877  0.0619
10069TIP3    H151698   4.765   0.922   1.873 -0.1538 -1.1356  0.6202
10069TIP3    H251699   4.627   0.929   1.935  0.2804  0.2744  1.4866
10070TIP3   OH251700   2.295   0.469   1.382 -0.4190  0.3713 -0.4998
10070TIP3    H151701   2.343   0.436   1.306 -2.1682 -0.1655 -1.4030
10070TIP3    H251702   2.322   0.412   1.454 -1.1111 -1.1449 -1.4070
10071TIP3   OH251703   5.447   5.782   1.301  0.5356 -0.0657 -0.1217
10071TIP3    H151704   5.491   5.863   1.328  0.0110 -0.0976  0.9251
10071TIP3    H251705   5.483   5.715   1.359  0.5641 -0.4713 -0.6094
10072TIP3   OH251706   3.353   0.328  13.358 -0.3041  0.3911 -0.2823
10072TIP3    H151707   3.342   0.416  13.321  2.4134  1.6460  1.5534
10072TIP3    H251708   3.387   0.276  13.285 -2.3059  0.6836 -1.4985
10073TIP3   OH251709   5.261   5.988  13.778 -0.2873 -0.3205 -0.2980
10073TIP3    H151710   5.347   5.956  13.750  0.2621  0.7003  0.1508
10073TIP3    H251711   5.275   6.018  13.868 -1.0326  0.1625 -0.3362
10074TIP3   OH251712   5.078   6.022   4.484  0.0061  0.0120 -0.3580
10074TIP3    H151713   5.087   5.960   4.412 -0.5832 -0.9633  0.3810
10074TIP3    H251714   4.985   6.042   4.488 -0.2737 -1.3560  1.2354
10075TIP3   OH251715   5.807   0.200   3.827 -0.0277  0.5240 -0.5649
10075TIP3    H151716   5.803   0.189   3.922  1.4260  0.2021 -0.5196
10075TIP3    H251717   5.831   0.292   3.815  0.9370  0.2791 -0.5766
10076TIP3   OH251718   5.603   5.057  14.486 -0.3908  0.2615  0.6210
10076TIP3    H151719   5.658   5.111  14.429 -1.1557 -0.4798 -0.8748
10076TIP3    H251720   5.545   5.120  14.529  1.3202  1.0186  1.9669
10077TIP3   OH251721   0.337   2.541  13.342 -0.8362 -0.0063 -0.1969
10077TIP3    H151722   0.361   2.459  13.298 -0.8853  0.1139 -0.4492
10077TIP3    H251723   0.307   2.598  13.271 -0.0313  0.5144 -0.1392
10078TIP3   OH251724   0.427   6.379  15.906 -0.1026  0.4164  0.1309
10078TIP3    H151725   0.419   6.461  15.954  0.6357  0.6335 -0.0978
10078TIP3    H251726   0.355   6.325  15.937  0.0167  0.7732  1.0420
10079TIP3   OH251727   0.467   1.518  11.910  0.1781  0.3983 -0.4858
10079TIP3    H151728   0.454   1.596  11.964  1.2074  0.2635 -0.0179
10079TIP3    H251729   0.463   1.551  11.820 -0.5473  0.7950 -0.3175
10080TIP3   OH251730   1.121   4.440   4.139  0.0617  0.7978 -0.0856
10080TIP3    H151731   1.134   4.402   4.052  2.1812  0.7279  0.2170
10080TIP3    H251732   1.077   4.371   4.189  1.4432 -0.2750 -0.2992
10081TIP3   OH251733   0.852   3.239   4.055 -0.2603 -0.0442  0.2322
10081TIP3    H151734   0.875   3.208   3.967 -0.3956  0.5989 -0.0333
10081TIP3    H251735   0.934   3.273   4.091 -0.7548  2.4513 -0.7979
10082TIP3   OH251736   3.174   0.083  15.124  0.4413  0.7836 -0.1320
10082TIP3    H151737   3.245   0.026  15.096  0.6122  0.7070  0.4445
10082TIP3    H251738   3.105   0.023  15.154  0.6236  0.8735  0.4792
10083TIP3   OH251739   1.540   4.395  11.528 -0.6948 -0.3004  0.1165
10083TIP3    H151740   1.594   4.316  11.533 -1.2972 -0.6265  1.8520
10083TIP3    H251741   1.450   4.363  11.529 -0.9481  0.3656 -0.3881
10084TIP3   OH251742   5.741   2.384   3.336  0.0841 -0.1567 -0.4277
10084TIP3    H151743   5.653   2.361   3.366 -0.3074  1.3723 -0.3438
10084TIP3    H251744   5.737   2.372   3.241 -1.6190  3.9238 -1.0773
10085TIP3   OH251745   6.621   1.596  12.846 -0.4054 -0.2012 -0.6777
10085TIP3    H151746   6.570   1.536  12.900 -1.6475  0.6517 -0.8783
10085TIP3    H251747   6.682   1.539  12.798 -0.1146 -1.0820  0.6858
10086TIP3   OH251748   1.940   2.736   3.934  0.4060 -0.3372  0.3970
10086TIP3    H151749   1.903   2.650   3.914  0.5459 -0.1792 -0.5871
10086TIP3    H251750   1.865   2.787   3.967 -0.0726 -0.3136 -0.6830
10087TIP3   OH251751   4.945   4.704  14.869 -0.4215  0.3086  0.4789
10087TIP3    H151752   4.985   4.622  14.841  0.0099  0.7172 -0.1173
10087TIP3    H251753   4.954   4.703  14.965  1.8467  0.7953  0.3162
10088TIP3   OH251754   0.731   0.967   2.221  1.4745 -0.1622  0.6633
10088TIP3    H151755   0.636   0.958   2.225  1.4749 -1.0150 -0.6628
10088TIP3    H251756   0.749   1.048   2.269 -0.0668  0.8902 -0.4294
10089TIP3   OH251757   6.792   2.722   0.754  0.3161 -0.4097  0.1400
10089TIP3    H151758   6.786   2.672   0.836 -2.3470 -0.3839  0.0287
10089TIP3    H251759   6.702   2.737   0.728  1.0786  0.0382 -2.5724
10090TIP3   OH251760   3.654   5.267  14.401 -0.2831  0.4934  0.0340
10090TIP3    H151761   3.610   5.265  14.486 -0.6488  0.9316 -0.1422
10090TIP3    H251762   3.747   5.273  14.423 -0.2617 -0.8820  0.4070
10091TIP3   OH251763   6.586   6.611  13.655  0.4806  0.2816 -0.5750
10091TIP3    H151764   6.520   6.601  13.723 -0.4927 -0.1773 -1.5515
10091TIP3    H251765   6.650   6.671  13.692 -0.5091  0.7801  0.3851
10092TIP3   OH251766   1.810   4.998   2.015  0.4341 -0.4966  0.1745
10092TIP3    H151767   1.870   4.933   2.052 -0.3046 -0.7850  0.9163
10092TIP3    H251768   1.725   4.953   2.011 -0.4042  0.7973  1.9591
10093TIP3   OH251769   4.668   2.552   1.470 -0.4664  0.2676 -0.3150
10093TIP3    H151770   4.604   2.499   1.517  0.7413 -2.3933 -1.4915
10093TIP3    H251771   4.741   2.562   1.531  0.0519 -1.0112 -0.7105
10094TIP3   OH251772   0.772   3.126   2.849  0.0806  0.0710 -0.9774
10094TIP3    H151773   0.736   3.038   2.838  0.3611  0.0921 -2.2067
10094TIP3    H251774   0.857   3.122   2.806  0.4906  0.6944 -0.2246
10095TIP3   OH251775   1.308   0.701  15.261  0.0692 -0.2825 -0.1030
10095TIP3    H151776   1.400   0.723  15.269 -0.2108  1.1739 -0.5074
10095TIP3    H251777   1.272   0.712  15.349  0.1149  0.0101 -0.1197
10096TIP3   OH251778   0.304   6.605   2.773 -0.0641  0.4964  0.3993
10096TIP3    H151779   0.228   6.547   2.765 -1.6155  2.4710  0.0790
10096TIP3    H251780   0.324   6.630   2.682  1.3086 -0.3653  0.4361
10097TIP3   OH251781   4.442   3.764   1.467 -0.6509  0.4693 -0.0644
10097TIP3    H151782   4.441   3.698   1.537  0.0198  1.9874  1.4404
10097TIP3    H251783   4.351   3.796   1.463 -0.6897  0.3804  0.1060
10098TIP3   OH251784   5.629   5.994   1.156  0.0443 -0.0325  0.0127
10098TIP3    H151785   5.620   6.068   1.216  1.2658 -0.4663  0.7810
10098TIP3    H251786   5.656   6.034   1.073 -0.7037  0.4900  0.0055
10099TIP3   OH251787   5.656   0.070  13.385 -0.2810 -0.1673  0.4153
10099TIP3    H151788   5.613   0.079  13.470 -1.5905  1.8535 -0.3705
10099TIP3    H251789   5.625  -0.015  13.351 -3.0946  0.8142  0.2634
10100TIP3   OH251790   4.088   4.568   1.649 -0.9590  0.5721 -0.5586
10100TIP3    H151791   4.138   4.613   1.581 -0.6840  3.0166  1.0938
10100TIP3    H251792   4.027   4.512   1.602  0.8998  0.2107 -2.7109
10101TIP3   OH251793   5.947   1.890  13.937  0.2312 -0.4063 -0.4991
10101TIP3    H151794   5.867   1.844  13.963  0.0659  0.0349 -0.2152
10101TIP3    H251795   5.916   1.971  13.897  0.5459  0.0829  0.2233
10102TIP3   OH251796   2.321   3.647  13.357 -0.0445  0.1891 -0.2008
10102TIP3    H151797   2.391   3.646  13.291  0.3446 -2.3922  0.1734
10102TIP3    H251798   2.281   3.561  13.351 -2.1099  1.0130  0.8038
10103TIP3   OH251799   3.692   3.702   2.861 -0.4196 -0.2390  0.4291
10103TIP3    H151800   3.703   3.764   2.789 -2.3782 -0.8740 -0.5020
10103TIP3    H251801   3.755   3.730   2.927 -0.9400  2.4945 -0.1056
10104TIP3   OH251802   5.764   1.761   0.620 -0.6596 -0.0935 -0.0245
10104TIP3    H151803   5.788   1.785   0.710  0.6580 -0.8658 -0.1492
10104TIP3    H251804   5.708   1.684   0.630 -0.8089  0.0298  0.1280
10105TIP3   OH251805   1.352   3.994   5.931  0.5252  0.4352  0.1646
10105TIP3    H151806   1.310   4.071   5.970  0.4718  0.6521 -0.3127
10105TIP3    H251807   1.340   3.925   5.996 -1.2063  0.3044 -0.2544
10106TIP3   OH251808   0.458   0.171   3.046  0.0548 -0.7035  0.2397
10106TIP3    H151809   0.417   0.145   2.963  0.4929  0.6991 -0.4309
10106TIP3    H251810   0.394   0.144   3.112 -0.6490 -1.1630 -0.5939
10107TIP3   OH251811   0.189   0.057  14.187 -0.2964  0.2024  0.2015
10107TIP3    H151812   0.126   0.105  14.240 -1.0994 -0.6576  0.0420
10107TIP3    H251813   0.191   0.104  14.103 -1.1319 -0.0836  0.0181
10108TIP3   OH251814   6.818   3.247  13.417  0.0717 -0.2746 -0.0820
10108TIP3    H151815   6.864   3.183  13.470 -0.9108 -1.5667 -0.7100
10108TIP3    H251816   6.759   3.292  13.478 -1.1376 -1.8290 -0.0364
10109TIP3   OH251817   1.381   1.967  16.282 -0.4901 -0.5586 -0.0033
10109TIP3    H151818   1.415   2.006  16.363 -1.4366 -2.0167  1.1545
10109TIP3    H251819   1.298   2.012  16.266  0.1007  0.3142 -0.6501
10110TIP3   OH251820   6.815   5.416  14.216 -0.1131 -0.0234  0.6050
10110TIP3    H151821   6.905   5.385  14.208 -0.5278 -1.2585  0.5525
10110TIP3    H251822   6.772   5.387  14.135 -0.7049  0.0124  0.9012
10111TIP3   OH251823   5.684   3.780  14.125 -0.3787  0.3727 -0.0254
10111TIP3    H151824   5.744   3.825  14.066 -1.3302 -0.4758 -1.7192
10111TIP3    H251825   5.597   3.807  14.096 -0.8713  0.5161  1.5007
10112TIP3   OH251826   5.352   2.555  16.139  0.0097  0.3496 -0.1931
10112TIP3    H151827   5.389   2.639  16.114 -1.1598  0.8507 -0.3049
10112TIP3    H251828   5.265   2.576  16.172 -0.4678 -0.8620 -0.6184
10113TIP3   OH251829   2.450   6.565   4.742 -0.2539 -0.0199 -0.0372
10113TIP3    H151830   2.382   6.619   4.782 -0.1937  0.8533 -1.0632
10113TIP3    H251831   2.512   6.548   4.813 -0.1049  1.5630  0.2445
10114TIP3   OH251832   0.105   3.317   5.975  0.7639 -0.0301 -0.2052
10114TIP3    H151833   0.078   3.350   6.061  1.1450 -0.2246 -0.0048
10114TIP3    H251834   0.174   3.378   5.947  1.6557 -0.7816  0.2838
10115TIP3   OH251835   1.112   6.312  16.044  0.1126 -0.1023 -0.0198
10115TIP3    H151836   1.103   6.335  16.137 -0.7608  2.3260 -0.6253
10115TIP3    H251837   1.202   6.334  16.022  0.1140 -0.0139  0.0748
10116TIP3   OH251838   1.775   0.830  12.591  0.2683 -0.0274 -0.1082
10116TIP3    H151839   1.852   0.827  12.534  0.1932 -0.2650 -0.1980
10116TIP3    H251840   1.808   0.859  12.676  0.1128  2.2174 -0.7410
10117TIP3   OH251841   1.744   3.324   3.859  0.2713 -0.2697  0.2738
10117TIP3    H151842   1.658   3.326   3.900  0.2502 -1.7537  0.3601
10117TIP3    H251843   1.804   3.356   3.926 -0.0253 -0.7153  0.7589
10118TIP3   OH251844   5.323   1.814   2.043  0.1034  0.2642 -0.2419
10118TIP3    H151845   5.320   1.905   2.073 -2.3172  0.6974 -1.5736
10118TIP3    H251846   5.400   1.810   1.986  1.4591  0.8709  1.4449
10119TIP3   OH251847   2.089   0.010  13.259  0.7541  0.3809 -0.4456
10119TIP3    H151848   2.116   0.092  13.300 -0.3651 -0.1365  1.4303
10119TIP3    H251849   1.994   0.016  13.253  0.7080 -0.5402 -0.8194
10120TIP3   OH251850   4.185   0.628  11.334 -0.2882 -0.9014  0.4497
10120TIP3    H151851   4.175   0.721  11.355  2.8134 -0.1444 -0.8431
10120TIP3    H251852   4.135   0.615  11.254  0.1332 -0.0566  0.0398
10121TIP3   OH251853   2.788   1.951  12.059  0.1690 -0.1182  0.0467
10121TIP3    H151854   2.799   2.040  12.092  4.2474 -0.4048  0.0204
10121TIP3    H251855   2.706   1.953  12.010 -0.4385  3.2960  0.9754
10122TIP3   OH251856   4.997   3.217   4.349 -0.0210  0.3200  0.2506
10122TIP3    H151857   5.069   3.170   4.307  0.4105  0.9763  0.2375
10122TIP3    H251858   4.921   3.160   4.339  0.6850 -0.7801  1.0377
10123TIP3   OH251859   4.365   5.300   2.398  0.1824  0.2704 -0.5241
10123TIP3    H151860   4.385   5.338   2.483  0.4002  0.4573 -0.6589
10123TIP3    H251861   4.440   5.322   2.343  0.8750 -1.3639 -0.2901
10124TIP3   OH251862   0.800   0.922   2.706 -0.2815  0.4236  0.4017
10124TIP3    H151863   0.810   0.943   2.799  0.2888  1.2384  0.1635
10124TIP3    H251864   0.722   0.866   2.703 -1.2012  1.6153  1.1801
10125TIP3   OH251865   2.623   5.823   1.786  1.1425 -0.0843 -0.0822
10125TIP3    H151866   2.552   5.866   1.737  1.8048 -0.1113 -1.0933
10125TIP3    H251867   2.588   5.813   1.875  0.9693  2.5804  0.2161
10126TIP3   OH251868   2.777   4.629  15.670  0.6653  0.4451 -0.6973
10126TIP3    H151869   2.728   4.547  15.659 -0.0011  0.9133 -1.2781
10126TIP3    H251870   2.836   4.632  15.596  2.2957 -0.5820  0.4951
10127TIP3   OH251871   4.229   6.642   3.337  0.0569  0.4423 -0.5935
10127TIP3    H151872   4.200   6.622   3.248  0.1697  1.1241 -0.7900
10127TIP3    H251873   4.170   6.592   3.393  0.1156 -0.1557 -1.0528
10128TIP3   OH251874   0.178   0.963   3.357 -0.3756 -0.0031  0.1036
10128TIP3    H151875   0.140   1.049   3.338 -0.1245 -0.1025 -0.8647
10128TIP3    H251876   0.243   0.980   3.425  1.8587  1.0993 -2.1799
10129TIP3   OH251877   0.619   1.493  14.448 -0.0227 -0.0387 -0.5968
10129TIP3    H151878   0.691   1.502  14.387 -0.7165 -1.9796 -1.7971
10129TIP3    H251879   0.648   1.427  14.511 -0.3652 -0.1030 -0.4995
10130TIP3   OH251880   3.758   0.431  15.502  0.8232  0.4537 -0.0781
10130TIP3    H151881   3.698   0.358  15.515 -0.8756  1.7054 -0.4770
10130TIP3    H251882   3.783   0.426  15.410  0.1069  0.7909 -0.2972
10131TIP3   OH251883   5.947   4.228  13.063  0.0755  0.1270 -0.3633
10131TIP3    H151884   5.887   4.195  13.130 -0.2387  0.3780 -0.5176
10131TIP3    H251885   5.915   4.192  12.981  0.6929 -0.5009 -0.3405
10132TIP3   OH251886   3.448   3.796   4.476 -0.2288  0.0951 -0.1992
10132TIP3    H151887   3.437   3.885   4.510  0.8513  0.5023 -0.8758
10132TIP3    H251888   3.387   3.791   4.402  0.2244  0.5319 -0.6130
10133TIP3   OH251889   4.705   6.080   0.837 -0.4710 -0.4981  0.0997
10133TIP3    H151890   4.740   6.062   0.924 -1.5916 -0.8869  0.4953
10133TIP3    H251891   4.747   6.017   0.780 -2.2445 -2.6151  0.9808
10134TIP3   OH251892   3.111   2.677  13.138  0.4452  0.3696 -0.3550
10134TIP3    H151893   3.163   2.659  13.060  1.0502 -0.5770  0.2493
10134TIP3    H251894   3.162   2.742  13.187 -0.4657  1.8148 -1.2547
10135TIP3   OH251895   1.712   3.704   4.405 -0.2874  0.0501 -0.0787
10135TIP3    H151896   1.724   3.782   4.459 -0.2018 -1.0634  1.5793
10135TIP3    H251897   1.638   3.658   4.445 -0.4161 -0.6654 -1.0974
10136TIP3   OH251898   3.560   0.749  13.535  0.3948 -0.2841 -0.1366
10136TIP3    H151899   3.475   0.776  13.502  0.7136 -1.1607 -1.7681
10136TIP3    H251900   3.616   0.826  13.525  0.2111 -0.2120 -0.6024
10137TIP3   OH251901   6.447   5.529   2.614  0.0171 -0.3220  0.1526
10137TIP3    H151902   6.430   5.605   2.669 -3.7726 -1.3350  0.6987
10137TIP3    H251903   6.458   5.456   2.675  1.0177 -0.6508 -0.3957
10138TIP3   OH251904   4.484   3.161   4.083  0.0857 -0.2280 -0.4793
10138TIP3    H151905   4.425   3.176   4.009 -2.1331 -0.6711  1.0943
10138TIP3    H251906   4.546   3.096   4.050 -0.3053  0.2118 -2.2103
10139TIP3   OH251907   6.070   0.448  15.921  0.6136 -0.2463  0.1746
10139TIP3    H151908   6.103   0.538  15.922  1.4043 -0.4988 -1.1297
10139TIP3    H251909   6.012   0.445  15.845 -1.6460 -0.1199  1.7814
10140TIP3   OH251910   4.213   3.164   2.477 -0.2851  0.0783  0.1383
10140TIP3    H151911   4.308   3.176   2.466  0.0289 -0.0963  2.1806
10140TIP3    H251912   4.178   3.253   2.479 -0.2348  0.1357 -1.0002
10141TIP3   OH251913   1.374   4.378  17.273  0.3165  0.1449 -0.4025
10141TIP3    H151914   1.459   4.369  17.230  0.6314 -1.4191  0.4603
10141TIP3    H251915   1.392   4.433  17.350  0.5766 -0.2440 -0.1804
10142TIP3   OH251916   0.443   1.167   2.488  0.1022  0.2478 -0.3354
10142TIP3    H151917   0.509   1.174   2.558 -0.0882  1.5444 -0.2673
10142TIP3    H251918   0.394   1.249   2.492 -0.7621 -0.2048 -1.1595
10143TIP3   OH251919   5.312   1.903  15.219 -0.3491 -0.2668  1.0401
10143TIP3    H151920   5.368   1.947  15.282  0.6014 -1.8951  1.4034
10143TIP3    H251921   5.361   1.908  15.136  0.1034 -1.1702  1.2310
10144TIP3   OH251922   0.028   2.603  16.411 -0.2576  0.1045  0.3149
10144TIP3    H151923   0.074   2.609  16.495  1.8620  0.8300 -0.8414
10144TIP3    H251924   0.085   2.646  16.348 -0.7614 -2.2284 -1.9401
10145TIP3   OH251925   4.426   3.935  10.875  0.4343  0.2984  0.3646
10145TIP3    H151926   4.519   3.941  10.897  0.4281 -1.4030  0.9989
10145TIP3    H251927   4.425   3.926  10.779  0.9783 -0.2576  0.4035
10146TIP3   OH251928   3.613   0.324   2.762  0.1923  0.0840 -0.4814
10146TIP3    H151929   3.687   0.377   2.733 -0.2805  0.3589 -1.2222
10146TIP3    H251930   3.609   0.337   2.856 -0.6231  2.3062 -0.7773
10147TIP3   OH251931   5.106   4.483   1.846 -0.3315 -0.0399  0.1254
10147TIP3    H151932   5.038   4.427   1.808  0.7976 -1.6206  0.3879
10147TIP3    H251933   5.059   4.563   1.870 -1.8401 -0.5551 -0.9356
10148TIP3   OH251934   0.706   4.915   3.631  0.0469  0.2026  0.1183
10148TIP3    H151935   0.767   4.872   3.570  0.6634 -1.5280  1.8623
10148TIP3    H251936   0.620   4.906   3.590  0.5439 -0.2333 -0.8539
10149TIP3   OH251937   0.896   2.253   5.999  0.3676 -0.0075  0.3781
10149TIP3    H151938   0.990   2.262   6.017 -0.1169 -0.4444  3.7759
10149TIP3    H251939   0.854   2.317   6.057 -1.5075 -0.6520 -0.1823
10150TIP3   OH251940   0.988   4.016   2.056 -0.2035 -0.4168 -0.5445
10150TIP3    H151941   0.976   4.108   2.079  0.6496 -0.4909  0.2480
10150TIP3    H251942   1.078   4.010   2.026 -0.3544 -0.9337 -0.8981
10151TIP3   OH251943   1.325   3.821  15.121  0.2276 -0.4863  0.6899
10151TIP3    H151944   1.282   3.785  15.199  0.9121 -0.6370  1.0113
10151TIP3    H251945   1.400   3.870  15.157 -0.2408  0.6010  0.2153
10152TIP3   OH251946   3.565   1.426  11.499  0.2851  0.0986  0.0464
10152TIP3    H151947   3.496   1.361  11.513 -0.1858  0.6599  0.3532
10152TIP3    H251948   3.520   1.510  11.497  0.7922  0.3581 -1.1993
10153TIP3   OH251949   2.852   6.757   4.142 -0.6855 -0.0106  0.5046
10153TIP3    H151950   2.878   6.665   4.134 -0.1220  0.1688  0.2496
10153TIP3    H251951   2.762   6.760   4.109  0.0542 -0.0782 -1.7015
10154TIP3   OH251952   0.970   2.784  16.203 -0.3842 -0.0165  0.2366
10154TIP3    H151953   0.958   2.829  16.120 -0.2130 -0.1650  0.1308
10154TIP3    H251954   0.901   2.717  16.204 -0.0205 -0.4028 -0.0520
10155TIP3   OH251955   2.350   4.726  14.098  0.1117  0.1609  0.5388
10155TIP3    H151956   2.366   4.646  14.148 -0.9024 -0.5598 -0.2642
10155TIP3    H251957   2.417   4.726  14.029 -0.3250 -0.3642  0.1123
10156TIP3   OH251958   3.014   6.186  13.551 -0.2378 -0.2725 -0.0364
10156TIP3    H151959   3.044   6.271  13.582  1.3862 -0.8781  0.1623
10156TIP3    H251960   2.919   6.189  13.558 -0.2466  1.7342 -0.6026
10157TIP3   OH251961   2.981   2.483  12.357  0.2841  0.1265  0.5633
10157TIP3    H151962   3.049   2.490  12.289 -0.1755 -1.3309 -0.0861
10157TIP3    H251963   2.904   2.524  12.317  0.2072 -0.1102  0.4639
10158TIP3   OH251964   2.605   4.894   2.335 -0.3497 -0.2428 -0.2111
10158TIP3    H151965   2.619   4.803   2.306 -0.5647 -0.8346  1.4349
10158TIP3    H251966   2.664   4.946   2.280  0.4994 -1.4889 -0.5294
10159TIP3   OH251967   4.130   3.135   0.679 -0.7725 -0.3108 -0.1701
10159TIP3    H151968   4.127   3.134   0.774 -3.3317  0.5214 -0.1532
10159TIP3    H251969   4.210   3.184   0.658 -0.6522  0.3157  1.5698
10160TIP3   OH251970   0.046   0.228  14.938  0.1711  0.7673 -0.4514
10160TIP3    H151971   0.041   0.155  14.876 -1.3735  0.2571  0.2104
10160TIP3    H251972   0.020   0.305  14.886  2.2076  0.9717 -1.2553
10161TIP3   OH251973   3.209   3.231  14.041  0.4908 -0.3444 -0.2614
10161TIP3    H151974   3.196   3.157  14.101  1.2916 -1.1480 -1.0452
10161TIP3    H251975   3.211   3.308  14.098 -2.1246 -0.6859  0.4211
10162TIP3   OH251976   3.835   4.320   3.233 -0.1018 -0.0419  0.1184
10162TIP3    H151977   3.926   4.340   3.255 -0.3127  0.0477  0.9363
10162TIP3    H251978   3.784   4.364   3.301 -0.7642  0.0266 -0.4185
10163TIP3   OH251979   3.807   0.664   4.377  0.7676  0.7843 -0.0646
10163TIP3    H151980   3.795   0.656   4.471 -0.1567  1.0296 -0.1592
10163TIP3    H251981   3.732   0.618   4.339  0.7395  1.3324 -0.6765
10164TIP3   OH251982   6.550   6.793  16.723 -0.3184 -0.2137  0.1601
10164TIP3    H151983   6.549   6.726  16.654  0.2086  0.5468 -0.6118
10164TIP3    H251984   6.459   6.822  16.729 -0.4840 -0.7355  0.2467
10165TIP3   OH251985   0.251   3.746   2.451 -0.4108  0.1107  0.3740
10165TIP3    H151986   0.255   3.828   2.501 -0.2292  0.9151 -0.8819
10165TIP3    H251987   0.157   3.733   2.435 -0.4146  0.3301  0.2004
10166TIP3   OH251988   4.668   3.421   4.554 -0.0179 -0.4957 -0.6131
10166TIP3    H151989   4.651   3.369   4.476  1.2558  0.6072 -1.6971
10166TIP3    H251990   4.615   3.500   4.542  1.9720  0.7749 -1.6355
10167TIP3   OH251991   6.674   4.014  13.132  0.2951 -0.5033  1.3807
10167TIP3    H151992   6.657   3.994  13.224 -0.3627 -2.7539  0.8387
10167TIP3    H251993   6.718   3.936  13.098 -0.3976 -0.1552 -0.4491
10168TIP3   OH251994   6.800   5.566   2.702  0.1820  0.3907 -0.0467
10168TIP3    H151995   6.776   5.596   2.789  0.7258  1.0879 -0.1301
10168TIP3    H251996   6.814   5.645   2.651  0.9256  0.0063 -0.4682
10169TIP3   OH251997   1.274   2.814  14.114  0.3382  0.3439  0.4667
10169TIP3    H151998   1.236   2.892  14.154 -2.3440  1.0804 -2.9548
10169TIP3    H251999   1.236   2.741  14.162 -1.8190  1.1784  0.1448
10170TIP3   OH252000   0.187   4.374   4.331 -0.5281 -0.0380 -0.1757
10170TIP3    H152001   0.238   4.312   4.383  0.1200 -1.3389 -2.2268
10170TIP3    H252002   0.252   4.418   4.275 -1.2084  1.1589 -0.0557
10171TIP3   OH252003   1.457   4.086   1.788 -0.0697 -0.1811  0.0711
10171TIP3    H152004   1.503   4.089   1.871  1.3105  0.8622 -0.6978
10171TIP3    H252005   1.467   3.995   1.758  1.2804 -0.0330  0.0461
10172TIP3   OH252006   0.267   1.966   6.810  0.1838 -0.5241  0.0850
10172TIP3    H152007   0.311   2.047   6.782  0.2104 -0.9993 -1.3242
10172TIP3    H252008   0.331   1.897   6.795  0.4376 -0.7559  2.0057
10173TIP3   OH252009   6.822   0.394   2.802 -0.6424  0.0690  0.4884
10173TIP3    H152010   6.831   0.480   2.762 -2.4394 -0.6124 -1.5616
10173TIP3    H252011   6.875   0.399   2.882 -1.4219  3.3424  0.9482
10174TIP3   OH252012   1.547   6.053   0.223  0.6469  0.0988 -0.3895
10174TIP3    H152013   1.513   5.975   0.177  0.8762 -0.9010  1.0755
10174TIP3    H252014   1.585   6.018   0.303  0.2500  1.8085  0.5709
10175TIP3   OH252015   1.264   0.074  13.337 -0.1378 -1.1185  0.2349
10175TIP3    H152016   1.171   0.050  13.329 -0.7784  0.9802  0.7361
10175TIP3    H252017   1.271   0.115  13.423  1.0565 -0.4578 -0.1528
10176TIP3   OH252018   2.774   4.350   0.275  0.9069 -0.1228  0.5548
10176TIP3    H152019   2.719   4.350   0.354 -0.6715  0.0594 -0.5076
10176TIP3    H252020   2.846   4.409   0.296  0.6865 -0.3191  1.9728
10177TIP3   OH252021   5.875   6.069   3.105 -0.5071 -0.0059  0.0935
10177TIP3    H152022   5.846   6.037   3.019 -0.8834  0.9545 -0.1486
10177TIP3    H252023   5.901   6.160   3.089  4.9569 -1.2655 -0.2629
10178TIP3   OH252024   2.038   2.545  14.532 -0.6627  0.0587  0.0706
10178TIP3    H152025   2.021   2.639  14.532 -0.7896  0.0365  0.1679
10178TIP3    H252026   1.953   2.505  14.555 -0.5024 -0.0552  0.4819
10179TIP3   OH252027   2.891   1.249   4.900 -0.0363  0.3235  0.3491
10179TIP3    H152028   2.852   1.325   4.857 -0.1728 -0.1540 -0.3938
10179TIP3    H252029   2.817   1.200   4.934 -0.1411 -0.6532 -1.1780
10180TIP3   OH252030   2.528   5.547   0.872  0.0944  0.5090 -0.4110
10180TIP3    H152031   2.502   5.455   0.867  3.2848 -0.4806 -1.3647
10180TIP3    H252032   2.604   5.546   0.931 -0.1462  2.6453 -0.0069
10181TIP3   OH252033   0.253   6.768  11.218  1.0489 -0.3928  0.2366
10181TIP3    H152034   0.240   6.859  11.247  1.7173  0.7207 -2.6445
10181TIP3    H252035   0.211   6.764  11.133  1.2529 -2.7689  0.1856
10182TIP3   OH252036   1.140   6.789   1.432 -0.6081 -0.1762 -0.5437
10182TIP3    H152037   1.144   6.698   1.460 -0.0697 -0.2109 -0.7278
10182TIP3    H252038   1.070   6.791   1.367 -1.7774 -0.1241  0.6676
10183TIP3   OH252039   4.753   3.198  14.401 -0.4122 -0.1108 -0.2032
10183TIP3    H152040   4.836   3.162  14.370  1.1416  1.5383  1.7899
10183TIP3    H252041   4.748   3.285  14.361 -1.5477 -0.4347 -0.8193
10184TIP3   OH252042   1.433   1.710  13.101  0.5282 -0.4663  0.0033
10184TIP3    H152043   1.520   1.719  13.141  0.0379  0.1265  0.9438
10184TIP3    H252044   1.452   1.700  13.007  1.5850  0.2240  0.1210
10185TIP3   OH252045   4.333   1.961   2.321 -0.3690  0.7086  0.1380
10185TIP3    H152046   4.244   1.932   2.302  0.0609 -1.4612  1.1224
10185TIP3    H252047   4.330   2.057   2.312 -2.5310  0.6049 -0.7814
10186TIP3   OH252048   1.326   4.800   0.811  0.0769  0.3072 -0.2728
10186TIP3    H152049   1.317   4.708   0.787  0.1871  0.5469 -1.3020
10186TIP3    H252050   1.321   4.801   0.906 -2.2182 -0.5126 -0.3384
10187TIP3   OH252051   5.239   5.389   5.014  0.0889 -0.0561  0.1258
10187TIP3    H152052   5.306   5.454   4.995  0.0218  0.2757  0.9591
10187TIP3    H252053   5.273   5.308   4.977  2.7507 -0.7525  3.5377
10188TIP3   OH252054   0.712   1.400  16.991  1.0705  0.5961 -0.1968
10188TIP3    H152055   0.620   1.424  16.992  1.0355  0.7236  2.8644
10188TIP3    H252056   0.726   1.359  16.906 -2.4908 -1.9205  0.2218
10189TIP3   OH252057   0.018   1.741  11.390  0.0345 -0.5726 -0.1367
10189TIP3    H152058   0.060   1.681  11.328  1.7428  0.8121 -0.3872
10189TIP3    H252059  -0.015   1.684  11.460  1.4541 -1.8303 -0.4368
10190TIP3   OH252060   6.630   5.236  16.280 -0.2598  0.3110  0.0598
10190TIP3    H152061   6.568   5.163  16.277 -0.5473  0.5759 -1.3670
10190TIP3    H252062   6.693   5.211  16.348 -1.8298 -0.0282  1.4711
10191TIP3   OH252063   0.852   4.694  11.213 -0.2107  0.1061  0.6220
10191TIP3    H152064   0.920   4.683  11.147 -0.8995  0.1159 -0.1081
10191TIP3    H252065   0.774   4.718  11.163 -0.5923  0.7521  1.4952
10192TIP3   OH252066   3.346   6.549   0.675 -0.3413 -0.0279 -0.3380
10192TIP3    H152067   3.321   6.640   0.657 -1.1251 -0.2893 -0.5785
10192TIP3    H252068   3.399   6.523   0.600 -2.2644 -0.5940 -1.5464
10193TIP3   OH252069   1.509   4.805   4.274  0.5274  0.4168 -0.1058
10193TIP3    H152070   1.566   4.868   4.318 -2.1332  1.6473  1.8840
10193TIP3    H252071   1.425   4.850   4.266 -0.9246 -2.1685 -0.4578
10194TIP3   OH252072   0.611   2.305   4.600 -0.0640  0.7535 -0.4145
10194TIP3    H152073   0.683   2.335   4.656 -0.1057  1.0688 -0.5323
10194TIP3    H252074   0.584   2.222   4.640  0.6590  0.4068 -0.6263
10195TIP3   OH252075   2.309   0.154  17.233  0.4030  0.0776  0.3973
10195TIP3    H152076   2.216   0.157  17.211  0.4346  1.6776  0.3343
10195TIP3    H252077   2.348   0.099  17.165 -0.7586 -2.5082  1.6553
10196TIP3   OH252078   2.986   4.008  12.020  0.0196  0.0847  0.1653
10196TIP3    H152079   3.039   4.066  12.075  0.3267 -0.4986  0.5030
10196TIP3    H252080   3.001   3.921  12.057 -0.8833 -0.1379  0.0302
10197TIP3   OH252081   1.285   6.198   5.682  0.2286  0.1565  0.0908
10197TIP3    H152082   1.376   6.168   5.682 -0.0210 -0.6175  0.2832
10197TIP3    H252083   1.278   6.251   5.602  1.5746  2.5754  1.4570
10198TIP3   OH252084   2.199   2.718   0.862  0.0178  0.4035 -0.2328
10198TIP3    H152085   2.149   2.644   0.896 -0.3132  0.6297 -0.2184
10198TIP3    H252086   2.151   2.745   0.783  0.6106  0.0667 -0.7174
10199TIP3   OH252087   1.939   1.412   3.199  0.1571  0.2941 -0.6933
10199TIP3    H152088   1.928   1.501   3.165  2.9545  1.0467  0.1062
10199TIP3    H252089   1.968   1.424   3.289  0.0896 -1.4568 -0.4059
10200TIP3   OH252090   2.187   1.413  11.862 -0.0921 -0.1317  0.3512
10200TIP3    H152091   2.121   1.387  11.798 -0.6404  1.2250  0.3393
10200TIP3    H252092   2.157   1.376  11.944  1.1853 -2.8517 -0.2759
10201TIP3   OH252093   1.783   4.720   5.361 -0.1458  0.2499 -0.0121
10201TIP3    H152094   1.804   4.810   5.385 -0.4733 -0.0183  1.4073
10201TIP3    H252095   1.688   4.721   5.351  0.0088  0.4144 -1.6726
10202TIP3   OH252096   3.478   5.617  13.875 -0.1640 -0.6299  0.2117
10202TIP3    H152097   3.461   5.530  13.840  0.8941 -1.1309  0.9017
10202TIP3    H252098   3.510   5.602  13.964  0.1578  0.4506  0.2987
10203TIP3   OH252099   3.889   4.282   1.178  1.0586 -0.0982  0.3687
10203TIP3    H152100   3.963   4.337   1.206 -0.3661  1.7033  0.8220
10203TIP3    H252101   3.813   4.321   1.221 -0.3762 -0.9992 -1.2367
10204TIP3   OH252102   3.181   4.005  17.191 -0.3019  0.5140  0.3717
10204TIP3    H152103   3.094   4.045  17.185 -1.7614 -2.1977  1.5014
10204TIP3    H252104   3.199   3.973  17.103 -1.8204 -1.3611  0.6669
10205TIP3   OH252105   1.980   2.267  15.824 -0.4228  0.8093 -0.4794
10205TIP3    H152106   1.971   2.284  15.731  1.0373 -1.5220 -1.1305
10205TIP3    H252107   2.024   2.345  15.859 -0.1581  1.3124 -1.8908
10206TIP3   OH252108   0.610   6.479  12.903 -0.0472 -0.1580 -0.0986
10206TIP3    H152109   0.654   6.448  12.983  1.5478  1.3449 -0.3483
10206TIP3    H252110   0.597   6.399  12.851  1.9534 -0.7248  0.2099
10207TIP3   OH252111   3.319   1.240   2.392  0.2462  0.2420  0.0427
10207TIP3    H152112   3.376   1.171   2.425  0.0046  0.1169  0.2060
10207TIP3    H252113   3.369   1.321   2.406  1.1160 -0.0099 -1.4495
10208TIP3   OH252114   4.292   0.582  12.451  0.4251  0.1573  0.0187
10208TIP3    H152115   4.259   0.650  12.511 -2.1991 -0.0146 -1.0671
10208TIP3    H252116   4.315   0.509  12.508  0.3228  0.8622  0.9904
10209TIP3   OH252117   5.081   1.605   6.476  0.9308 -0.7010  0.3015
10209TIP3    H152118   5.034   1.549   6.538  0.3343  1.2034  1.6727
10209TIP3    H252119   5.143   1.654   6.530  1.9268 -0.5336 -0.9480
10210TIP3   OH252120   0.721   1.602  15.539  0.4734  0.1535 -0.7457
10210TIP3    H152121   0.715   1.695  15.561 -0.1570  0.3588 -1.7386
10210TIP3    H252122   0.728   1.600  15.444 -0.9167 -0.8622 -0.8570
10211TIP3   OH252123   5.873   1.925  15.999  0.0591 -0.6809  0.1203
10211TIP3    H152124   5.893   1.916  15.906 -2.7884  0.5904 -0.7470
10211TIP3    H252125   5.812   1.854  16.017  1.2175 -1.4214  1.2996
10212TIP3   OH252126   3.576   3.710  12.593 -0.4580 -0.3229  0.0194
10212TIP3    H152127   3.561   3.722  12.500 -1.0771  0.8754  0.2605
10212TIP3    H252128   3.494   3.673  12.626  0.3008 -2.2693 -0.1526
10213TIP3   OH252129   4.994   0.176  13.204  0.1728  0.6443  0.2807
10213TIP3    H152130   5.024   0.149  13.117 -2.5049  2.0957 -1.2404
10213TIP3    H252131   5.018   0.104  13.261 -0.9620 -2.0023 -2.3160
10214TIP3   OH252132   0.887   0.249   0.485  0.3023 -0.6587 -0.4548
10214TIP3    H152133   0.819   0.266   0.551  0.5122  1.0071 -0.6112
10214TIP3    H252134   0.967   0.239   0.536  0.3097 -0.2929 -0.3867
10215TIP3   OH252135   5.197   6.018   3.217  0.0764 -0.1290 -0.2624
10215TIP3    H152136   5.215   6.036   3.310 -0.3116 -1.3408  0.0632
10215TIP3    H252137   5.174   6.103   3.180 -1.0420  0.1660  1.0539
10216TIP3   OH252138   0.099   2.924  15.673 -0.4079  0.1565  0.0243
10216TIP3    H152139   0.128   2.998  15.620 -0.7173  0.4097  0.2045
10216TIP3    H252140   0.003   2.925  15.665 -0.7058  1.7543  2.5990
10217TIP3   OH252141   4.290   5.489  13.401 -0.7994 -0.3530  0.4750
10217TIP3    H152142   4.319   5.540  13.326  1.0135 -0.9087  0.7547
10217TIP3    H252143   4.231   5.548  13.448  0.6152  1.2249  0.3782
10218TIP3   OH252144   1.171   2.078   2.906 -0.3870  0.5700  0.2480
10218TIP3    H152145   1.158   2.173   2.903 -0.6562  0.5741  1.2756
10218TIP3    H252146   1.134   2.046   2.823  1.9428  1.5881 -1.2983
10219TIP3   OH252147   1.185   1.213   2.696  0.1290 -0.1714  0.0204
10219TIP3    H152148   1.125   1.207   2.621  2.9598  0.7144 -2.5336
10219TIP3    H252149   1.248   1.143   2.682  1.6342  0.9881  0.6628
10220TIP3   OH252150   5.731   4.480   1.131 -0.0489  0.0282 -0.2140
10220TIP3    H152151   5.643   4.506   1.103  0.4846  1.5690 -0.5973
10220TIP3    H252152   5.743   4.392   1.098 -0.6568  0.6077 -2.0821
10221TIP3   OH252153   3.073   3.110   3.648  0.1112 -0.3902 -0.5342
10221TIP3    H152154   3.161   3.077   3.631  0.5223  0.3016  0.1768
10221TIP3    H252155   3.056   3.171   3.575  0.2064 -0.5413 -0.6841
10222TIP3   OH252156   5.033   5.318   5.283  0.7540 -0.2658 -0.6135
10222TIP3    H152157   4.973   5.352   5.349 -1.2339 -0.8309 -2.0534
10222TIP3    H252158   5.092   5.260   5.331 -1.5480 -1.8217  0.4965
10223TIP3   OH252159   5.200   4.020  11.629 -0.2282 -0.2849 -0.0532
10223TIP3    H152160   5.256   4.078  11.577 -1.1249 -0.7557 -1.6306
10223TIP3    H252161   5.124   4.074  11.651  0.0258 -0.1671  0.5393
10224TIP3   OH252162   0.861   4.267   2.111  0.0002  0.0560  0.5793
10224TIP3    H152163   0.769   4.240   2.112  0.3774 -1.4448 -0.7188
10224TIP3    H252164   0.862   4.352   2.155 -2.0603  0.2893  0.2534
10225TIP3   OH252165   2.685   0.483  14.354 -0.2794 -0.0893  0.4011
10225TIP3    H152166   2.678   0.577  14.341 -2.5047 -0.0292  1.6004
10225TIP3    H252167   2.644   0.445  14.276  0.5481 -0.0976 -0.0452
10226TIP3   OH252168   4.716   0.224  17.117  0.2320 -0.4913  0.0364
10226TIP3    H152169   4.645   0.206  17.178  0.0311 -0.4053 -0.1661
10226TIP3    H252170   4.774   0.149  17.124 -0.8233 -1.4594 -1.1217
10227TIP3   OH252171   3.860   4.554  11.127  0.2659 -0.3318 -0.5000
10227TIP3    H152172   3.797   4.492  11.163 -0.3073  0.0078 -0.8958
10227TIP3    H252173   3.815   4.593  11.052  0.5096  0.7316 -0.1196
10228TIP3   OH252174   1.330   0.140   5.255  0.3801 -0.1835  0.3895
10228TIP3    H152175   1.349   0.158   5.347 -0.6444  0.2041  0.5316
10228TIP3    H252176   1.270   0.065   5.257 -2.9617  2.2632  0.3140
10229TIP3   OH252177   5.866   1.685   4.851 -0.2449  0.1600  0.3364
10229TIP3    H152178   5.815   1.617   4.808  0.7191  0.3408 -1.1441
10229TIP3    H252179   5.898   1.740   4.780 -0.0242  1.4779  1.4204
10230TIP3   OH252180   4.269   0.753   0.321  0.4014 -0.0299 -0.0135
10230TIP3    H152181   4.362   0.760   0.299  0.2802  0.0253 -0.5388
10230TIP3    H252182   4.233   0.695   0.253  0.2176 -0.7739  0.7024
10231TIP3   OH252183   5.204   0.090   3.421 -0.4232 -0.2889  0.1906
10231TIP3    H152184   5.193   0.183   3.440 -0.2824 -0.1405 -0.4331
10231TIP3    H252185   5.114   0.056   3.417 -0.4835 -0.1242  0.1468
10232TIP3   OH252186   0.725   2.045   1.743 -0.6981  0.1638 -0.0675
10232TIP3    H152187   0.756   2.106   1.676 -2.2046 -0.2451 -1.1773
10232TIP3    H252188   0.710   2.100   1.820 -0.6055  0.9279 -0.5836
10233TIP3   OH252189   1.456   2.403  11.282  0.6829  0.2355 -0.3972
10233TIP3    H152190   1.443   2.441  11.196  0.9872  0.9854 -0.1229
10233TIP3    H252191   1.394   2.330  11.286 -1.5871  2.0616 -0.0969
10234TIP3   OH252192   4.363   0.282   3.128 -0.1736  0.6404 -0.5131
10234TIP3    H152193   4.404   0.287   3.215 -1.0410 -0.6405  0.0148
10234TIP3    H252194   4.276   0.245   3.146  0.1840 -1.1021 -2.0797
10235TIP3   OH252195   1.438   1.556   3.144  0.0211  0.3534  0.1920
10235TIP3    H152196   1.508   1.495   3.169 -0.2879 -0.0237  0.1578
10235TIP3    H252197   1.481   1.621   3.089  0.7977  1.4374  2.0114
10236TIP3   OH252198   6.508   1.990  16.754  0.1323  0.4725 -0.1195
10236TIP3    H152199   6.495   2.005  16.660 -0.7557  1.2567  0.1074
10236TIP3    H252200   6.509   2.078  16.792  1.1486  0.1873  0.5359
10237TIP3   OH252201   0.222   6.221  15.652  0.5987  0.1803  0.0077
10237TIP3    H152202   0.282   6.210  15.578 -0.3435 -0.7130 -0.6470
10237TIP3    H252203   0.179   6.137  15.660 -0.2203  0.6624  0.7859
10238TIP3   OH252204   1.679   2.544  16.731 -0.0964  0.4553 -0.9045
10238TIP3    H152205   1.727   2.545  16.648 -0.3671 -0.4925 -1.0843
10238TIP3    H252206   1.741   2.577  16.796  1.0989 -1.5119 -0.9881
10239TIP3   OH252207   4.469   0.595  12.035 -0.1705  0.6042 -0.4270
10239TIP3    H152208   4.451   0.685  12.061  0.2860  0.8123 -0.8192
10239TIP3    H252209   4.394   0.545  12.068  0.9052  0.6315  2.3320
10240TIP3   OH252210   1.418   4.805  15.995 -0.1992  0.0390  0.3379
10240TIP3    H152211   1.508   4.811  15.962 -0.0999 -0.1887  0.5588
10240TIP3    H252212   1.364   4.838  15.924  0.1337  1.1879  0.5882
10241TIP3   OH252213   6.430   5.596   0.650 -0.3707  0.4979  0.7909
10241TIP3    H152214   6.372   5.667   0.676 -1.0261  0.7266 -1.1353
10241TIP3    H252215   6.416   5.587   0.556 -1.0444 -2.8248  1.0727
10242TIP3   OH252216   5.825   1.246  16.495 -0.2429  0.9243  0.3771
10242TIP3    H152217   5.797   1.303  16.567  1.7950  0.8094  1.3132
10242TIP3    H252218   5.919   1.261  16.487  0.3519 -2.1061  0.4969
10243TIP3   OH252219   1.495   0.362   6.534  0.3404 -0.4467 -0.0398
10243TIP3    H152220   1.588   0.365   6.513  0.3396  2.9879 -0.1131
10243TIP3    H252221   1.451   0.383   6.451 -0.3779 -0.2032  0.3879
10244TIP3   OH252222   3.788   3.440   6.038 -0.5195 -0.2347 -0.3356
10244TIP3    H152223   3.822   3.373   6.097  0.1431  0.9883  0.7472
10244TIP3    H252224   3.774   3.516   6.095  2.0186  1.6600 -2.0165
10245TIP3   OH252225   5.902   3.489  17.212 -0.2273  0.2268  0.0837
10245TIP3    H152226   5.976   3.476  17.153  0.5330  1.7498  0.6478
10245TIP3    H252227   5.941   3.524  17.292 -1.3883 -0.4821  0.9861
10246TIP3   OH252228   4.636   3.060   0.119 -0.3578  0.0242  0.5515
10246TIP3    H152229   4.573   3.130   0.136 -1.5712 -0.7125 -0.6744
10246TIP3    H252230   4.589   2.979   0.140  0.5538 -0.4962  0.6448
10247TIP3   OH252231   6.397   0.445  15.676 -0.1599  0.5843 -0.3999
10247TIP3    H152232   6.340   0.399  15.738  1.4819 -0.4333  0.4484
10247TIP3    H252233   6.391   0.537  15.702 -0.5587  0.3444  0.4046
10248TIP3   OH252234   0.312   4.436  12.075  0.3012 -0.0835  0.1162
10248TIP3    H152235   0.390   4.413  12.024  0.3223 -3.7549  1.5089
10248TIP3    H252236   0.240   4.391  12.030 -0.3995  0.3105  0.8284
10249TIP3   OH252237   4.208   1.252   5.482  0.0010 -0.4828 -0.2249
10249TIP3    H152238   4.162   1.265   5.565  2.6320  0.8371  1.1635
10249TIP3    H252239   4.259   1.332   5.470  0.9466 -1.3133 -2.2945
10250TIP3   OH252240   2.199   6.406   2.360  0.1323 -0.3708 -0.1007
10250TIP3    H152241   2.195   6.486   2.308 -0.4901  0.4452  1.1476
10250TIP3    H252242   2.112   6.397   2.398  1.4745  1.2472  3.8590
10251TIP3   OH252243   0.184   2.745   2.472  0.1571  0.8459 -0.1833
10251TIP3    H152244   0.202   2.781   2.559  0.1268  0.6443 -0.0934
10251TIP3    H252245   0.150   2.819   2.422  0.8041  1.1244 -0.2200
10252TIP3   OH252246   4.929   4.810  14.070  0.2389  0.1476  1.1153
10252TIP3    H152247   4.848   4.855  14.045 -0.2939 -0.1615  2.2116
10252TIP3    H252248   4.982   4.878  14.112  1.3027  0.7645 -1.0739
10253TIP3   OH252249   4.043   6.027  16.879  0.0577  0.8101  0.4120
10253TIP3    H152250   4.074   5.964  16.944 -0.6049  0.2424  0.1820
10253TIP3    H252251   3.950   6.039  16.899 -1.2264 -2.2942 -2.6718
10254TIP3   OH252252   5.715   0.329  13.651 -0.0276 -0.5322  0.7535
10254TIP3    H152253   5.716   0.395  13.582 -1.9673 -2.2990 -1.0836
10254TIP3    H252254   5.808   0.310  13.667  0.4926 -0.0811 -1.3891
10255TIP3   OH252255   3.054   6.733  16.442  0.0834  0.1200  0.2185
10255TIP3    H152256   3.034   6.718  16.349 -0.0615 -0.5816  0.3592
10255TIP3    H252257   2.970   6.725  16.486  0.3847 -1.1031  0.5963
10256TIP3   OH252258   3.668   5.439   4.319  0.1063  0.4117 -0.2445
10256TIP3    H152259   3.578   5.425   4.348  0.0466  0.6614 -0.3030
10256TIP3    H252260   3.660   5.453   4.224  0.0612  1.6854 -0.0691
10257TIP3   OH252261   1.146   1.989  15.267  0.0213 -0.1446 -0.8763
10257TIP3    H152262   1.200   2.069  15.269 -1.1494  0.6603  1.0297
10257TIP3    H252263   1.057   2.020  15.253 -0.5206 -1.0498  0.3866
10258TIP3   OH252264   4.611   5.958  15.525  0.2177 -0.0062 -0.1635
10258TIP3    H152265   4.551   6.011  15.577  1.0142 -0.0989  0.8783
10258TIP3    H252266   4.637   5.887  15.584 -0.1325 -1.0663 -1.2369
10259TIP3   OH252267   6.410   5.153   2.715 -0.0290  0.6503  0.2059
10259TIP3    H152268   6.357   5.181   2.789  1.0034  0.4850  1.0420
10259TIP3    H252269   6.467   5.228   2.696 -0.4030  0.7561 -0.5448
10260TIP3   OH252270   5.132   0.210   2.038 -0.0578 -0.0083 -0.4653
10260TIP3    H152271   5.194   0.178   2.104 -0.2710  1.5820  0.5670
10260TIP3    H252272   5.101   0.131   1.994  2.3964 -0.9074 -0.7608
10261TIP3   OH252273   0.376   0.751  15.631  0.5059  0.3388  0.1734
10261TIP3    H152274   0.380   0.824  15.569  0.9284 -0.7505 -1.1111
10261TIP3    H252275   0.420   0.679  15.586 -1.2939 -1.1827  0.7560
10262TIP3   OH252276   1.640   2.448  12.666  0.1119 -0.4919  0.3102
10262TIP3    H152277   1.692   2.490  12.598  0.7665 -2.4470 -0.4561
10262TIP3    H252278   1.551   2.479  12.651  0.5380  0.5133 -0.2696
10263TIP3   OH252279   5.444   3.995   2.639 -0.0845 -0.7605 -0.6780
10263TIP3    H152280   5.509   4.002   2.709 -0.8325 -2.9804  0.3455
10263TIP3    H252281   5.361   3.984   2.685 -1.0469  0.7603 -1.9693
10264TIP3   OH252282   3.607   1.356   0.667 -0.0557 -0.9836 -0.2507
10264TIP3    H152283   3.573   1.270   0.642 -1.8693  0.2322 -2.4280
10264TIP3    H252284   3.551   1.418   0.619  1.9918  1.3712  0.2109
10265TIP3   OH252285   0.353   2.913  10.951  0.3025 -0.1745 -0.0611
10265TIP3    H152286   0.282   2.849  10.957 -0.4486  0.4969 -1.2225
10265TIP3    H252287   0.309   2.996  10.934  1.0232  1.2733  3.9696
10266TIP3   OH252288   0.086   0.564  16.277  0.2010 -0.5412 -0.5360
10266TIP3    H152289   0.039   0.510  16.213  1.9664 -2.3152 -0.4542
10266TIP3    H252290   0.166   0.514  16.296  0.6580  0.8681  1.6012
10267TIP3   OH252291   2.904   6.479  11.669 -0.0568 -0.1789  0.1911
10267TIP3    H152292   2.952   6.493  11.588 -2.1069  0.0346 -1.0459
10267TIP3    H252293   2.971   6.482  11.737  1.6821 -0.0841 -1.4470
10268TIP3   OH252294   2.080   4.790  14.288 -0.3196 -0.7942  0.3143
10268TIP3    H152295   2.068   4.696  14.298  0.0880 -0.6920  1.9541
10268TIP3    H252296   2.120   4.819  14.369 -0.5344  0.8256 -0.1068
10269TIP3   OH252297   2.356   5.728  12.430 -0.0199 -0.2164 -0.2264
10269TIP3    H152298   2.264   5.752  12.440 -0.5646 -2.7052  1.4924
10269TIP3    H252299   2.392   5.732  12.518  1.7757  1.3717 -0.9448
10270TIP3   OH252300   5.577   4.789  11.026  0.8612  0.0219  0.1069
10270TIP3    H152301   5.501   4.767  10.973 -1.0332  2.4035  1.5941
10270TIP3    H252302   5.585   4.717  11.089 -0.0124 -0.3724 -0.2205
10271TIP3   OH252303   6.735   3.474   1.577  0.4772  0.1953 -0.6282
10271TIP3    H152304   6.663   3.514   1.627 -0.4549 -1.5086 -0.5043
10271TIP3    H252305   6.691   3.412   1.518  1.7778  0.0370 -1.4607
10272TIP3   OH252306   5.337   6.424   0.814 -0.2016  0.3245 -0.7951
10272TIP3    H152307   5.268   6.489   0.800 -1.5764 -0.6163  1.2981
10272TIP3    H252308   5.299   6.359   0.872  1.9215 -1.1448 -0.9150
10273TIP3   OH252309   0.968   0.003  11.239  0.0034  0.0109  0.1641
10273TIP3    H152310   1.019  -0.015  11.160  0.6491  0.3112  0.5015
10273TIP3    H252311   0.968   0.099  11.246 -0.2669 -0.0048  0.3871
10274TIP3   OH252312   1.809   3.811  16.285 -0.2980  0.0822 -0.4007
10274TIP3    H152313   1.786   3.892  16.239  0.7340 -0.3711 -1.7702
10274TIP3    H252314   1.843   3.840  16.370 -1.3006  0.9828 -0.2844
10275TIP3   OH252315   3.273   3.016  11.580  0.2465 -0.2917 -0.0334
10275TIP3    H152316   3.255   2.931  11.541  0.3198 -0.9866  1.3689
10275TIP3    H252317   3.339   2.998  11.648 -0.9097  0.5704  1.3880
10276TIP3   OH252318   1.888   3.484  16.768 -0.1518  0.2556 -0.1753
10276TIP3    H152319   1.934   3.551  16.820 -0.1094  0.1480 -0.0729
10276TIP3    H252320   1.956   3.422  16.743 -0.2765 -0.0234  0.1634
10277TIP3   OH252321   6.617   1.273  17.105  0.3649  0.4113  0.1704
10277TIP3    H152322   6.600   1.276  17.011  0.7904 -0.6488  0.0382
10277TIP3    H252323   6.585   1.187  17.132  2.2278 -0.2212  0.5516
10278TIP3   OH252324   3.836   0.978   0.648  0.3097 -0.4396  0.1979
10278TIP3    H152325   3.850   1.016   0.734  0.2550  0.4277 -0.1645
10278TIP3    H252326   3.922   0.980   0.606  0.6174 -2.0901  0.7013
10279TIP3   OH252327   2.139   0.086  13.959 -0.1340  0.3646 -0.0747
10279TIP3    H152328   2.222   0.041  13.973 -0.3116  0.5639  2.0037
10279TIP3    H252329   2.149   0.169  14.007  0.6814  3.3375 -4.7918
10280TIP3   OH252330   6.034   0.353  14.941  0.2540  0.3901  0.0070
10280TIP3    H152331   5.995   0.299  15.009  0.8419  1.5329  1.3181
10280TIP3    H252332   6.084   0.293  14.887 -0.3154 -0.5568  0.5152
10281TIP3   OH252333   1.469   6.584  14.949  0.2913  0.0749  0.2998
10281TIP3    H152334   1.376   6.567  14.934 -0.2041  2.0706  0.8495
10281TIP3    H252335   1.514   6.518  14.896 -1.4230  0.1009 -1.2920
10282TIP3   OH252336   3.819   2.671   5.590  0.3971 -0.0697  0.0470
10282TIP3    H152337   3.758   2.735   5.627  0.8768  0.3920  0.0499
10282TIP3    H252338   3.763   2.601   5.555 -0.1838  0.8590 -0.9328
10283TIP3   OH252339   1.742   0.719  13.019  0.4555 -0.0534 -0.1446
10283TIP3    H152340   1.801   0.649  12.990  0.9640  1.1782 -2.3767
10283TIP3    H252341   1.655   0.680  13.015  0.7496 -0.6591 -1.0542
10284TIP3   OH252342   3.766   0.546  13.908  0.2395 -0.0856  0.2085
10284TIP3    H152343   3.768   0.642  13.912 -2.9487  0.0513  0.9150
10284TIP3    H252344   3.794   0.525  13.819  3.1763  1.2820  0.6751
10285TIP3   OH252345   1.970   4.369   1.323 -0.0956  0.2753 -0.3937
10285TIP3    H152346   2.054   4.394   1.362 -0.2849 -0.0393  0.2279
10285TIP3    H252347   1.972   4.407   1.236  0.9666 -0.2635 -0.6170
10286TIP3   OH252348   4.854   3.294   0.821  0.1147 -0.4404 -0.4740
10286TIP3    H152349   4.777   3.237   0.819 -1.1446  1.1650  0.0380
10286TIP3    H252350   4.905   3.264   0.896  0.9409 -2.6183 -1.7938
10287TIP3   OH252351   4.618   2.253  16.096  0.6843  0.2577 -0.7890
10287TIP3    H152352   4.628   2.321  16.029  0.8340 -0.7391 -1.8187
10287TIP3    H252353   4.586   2.176  16.048  0.9824 -0.5534  0.2516
10288TIP3   OH252354   0.329   2.733   2.210 -0.3543  0.7320 -0.4840
10288TIP3    H152355   0.274   2.724   2.288 -0.1281  0.7972 -0.3170
10288TIP3    H252356   0.407   2.681   2.230 -1.2852 -1.2027 -1.5980
10289TIP3   OH252357   5.938   1.828  15.739 -0.0165  0.5087 -0.0622
10289TIP3    H152358   5.848   1.795  15.738  0.4983 -1.1296  1.7409
10289TIP3    H252359   5.981   1.785  15.665 -0.7083  1.3695 -0.9862
10290TIP3   OH252360   1.985   1.398   5.621 -0.2599 -0.5867  0.1859
10290TIP3    H152361   1.989   1.429   5.531 -1.7699 -0.6418  0.0759
10290TIP3    H252362   2.042   1.321   5.622 -0.4545 -0.7561 -0.7936
10291TIP3   OH252363   2.654   2.457   3.399  0.6289  0.3608 -0.0875
10291TIP3    H152364   2.571   2.485   3.361  0.7736 -0.5103 -1.1222
10291TIP3    H252365   2.720   2.508   3.352  0.7778 -0.3777 -0.7221
10292TIP3   OH252366   4.429   1.564  12.640 -0.1966  0.3112 -0.2586
10292TIP3    H152367   4.398   1.490  12.692 -1.5918  2.0259  1.5116
10292TIP3    H252368   4.372   1.565  12.564 -2.3255  1.3494  1.2583
10293TIP3   OH252369   6.302   0.570  15.395  0.2091 -0.2722 -0.5157
10293TIP3    H152370   6.262   0.585  15.309 -1.2151 -1.2015 -0.0418
10293TIP3    H252371   6.367   0.501  15.379 -0.0556 -0.4474 -0.8524
10294TIP3   OH252372   6.360   5.186   1.616  0.7065 -0.7205 -0.6625
10294TIP3    H152373   6.295   5.195   1.547 -0.1903  1.2570  0.3295
10294TIP3    H252374   6.315   5.137   1.685  0.7777 -0.6784 -0.5854
10295TIP3   OH252375   2.137   2.624   6.068 -0.4021  0.5257 -0.2673
10295TIP3    H152376   2.120   2.672   6.149 -1.9543  0.4446 -0.5135
10295TIP3    H252377   2.228   2.643   6.048 -0.3392  1.5336  0.8510
10296TIP3   OH252378   2.573   0.053  14.247 -0.2349  0.2273 -0.2220
10296TIP3    H152379   2.493   0.105  14.252  0.1015  0.6292  1.9353
10296TIP3    H252380   2.636   0.102  14.300  1.0646 -0.7712 -0.7827
10297TIP3   OH252381   5.574   6.435   6.275  0.2210  0.1820  0.5637
10297TIP3    H152382   5.669   6.438   6.282  0.2472  1.3446 -0.1459
10297TIP3    H252383   5.543   6.508   6.328 -0.3320 -0.5934  1.3502
10298TIP3   OH252384   3.511   4.697   0.005  0.1613  0.3589  0.0951
10298TIP3    H152385   3.496   4.602  -0.001  1.4043  0.1400  0.0691
10298TIP3    H252386   3.546   4.721  -0.081 -0.2477  0.8676  0.0675
10299TIP3   OH252387   2.518   1.255  13.353 -0.4137 -0.4555  0.2931
10299TIP3    H152388   2.540   1.337  13.396 -1.1026  0.2422 -0.6558
10299TIP3    H252389   2.429   1.267  13.322 -0.7530 -1.7972  0.6805
10300TIP3   OH252390   2.563   4.718  12.175  0.0965 -0.6018 -0.1848
10300TIP3    H152391   2.496   4.751  12.234  0.8263 -0.3970  0.5483
10300TIP3    H252392   2.638   4.775  12.189  0.1950 -0.3453 -1.5537
10301TIP3   OH252393   4.500   6.640  12.617  0.2125 -0.2919 -0.2249
10301TIP3    H152394   4.557   6.703  12.662  0.6067 -1.2486  0.6409
10301TIP3    H252395   4.511   6.660  12.524 -0.5289  1.6589  0.0425
10302TIP3   OH252396   4.836   6.490  12.971  0.7633  0.1970  0.5633
10302TIP3    H152397   4.775   6.555  12.935  0.3384 -1.1342 -1.2671
10302TIP3    H252398   4.904   6.543  13.014 -0.6616  1.7659  1.0010
10303TIP3   OH252399   4.264   2.613  13.255  0.5016  0.2848  0.4611
10303TIP3    H152400   4.346   2.569  13.236  1.1274  1.4984  0.2768
10303TIP3    H252401   4.275   2.647  13.343  0.6268  1.3827  0.0319
10304TIP3   OH252402   0.585   6.740   4.974 -0.9607  0.5314 -0.4119
10304TIP3    H152403   0.551   6.741   5.064 -0.2113  0.8790 -0.1151
10304TIP3    H252404   0.672   6.780   4.982  0.4523 -2.2699 -0.7607
10305TIP3   OH252405   6.649   2.169  15.132 -0.3480 -0.0589  0.2734
10305TIP3    H152406   6.743   2.177  15.120 -0.6186  0.4882 -1.7745
10305TIP3    H252407   6.635   2.077  15.154  0.5773 -0.3734 -0.3902
10306TIP3   OH252408   6.495   2.005  15.431  0.4093 -0.1452 -0.1188
10306TIP3    H152409   6.495   1.973  15.340 -1.7421  1.2165 -0.6666
10306TIP3    H252410   6.563   2.072  15.432  0.7731 -0.4901 -0.5839
10307TIP3   OH252411   6.465   1.595  16.932  0.3539  0.5766  0.2521
10307TIP3    H152412   6.487   1.505  16.905 -1.4640  0.4918 -1.1405
10307TIP3    H252413   6.504   1.650  16.864 -0.6259  0.6375 -0.2892
10308TIP3   OH252414   1.451   0.110   1.124 -0.1427 -0.3044  0.9107
10308TIP3    H152415   1.426   0.049   1.194 -2.3896  0.8650  1.2357
10308TIP3    H252416   1.451   0.056   1.045 -0.6270 -1.0429  1.3904
10309TIP3   OH252417   4.106   5.725   0.257  0.0592  0.3245 -0.0179
10309TIP3    H152418   4.128   5.806   0.302  0.6995  0.3751 -0.4075
10309TIP3    H252419   4.010   5.726   0.252  0.1023  1.9287 -1.5673
10310TIP3   OH252420   3.222   6.209  15.128 -0.2325  0.2174  0.0811
10310TIP3    H152421   3.211   6.304  15.129  0.2405  0.2782  0.0997
10310TIP3    H252422   3.248   6.189  15.038  1.8609  0.3924  0.5929
10311TIP3   OH252423   3.518   6.515   5.708  0.9546 -0.5459 -0.1276
10311TIP3    H152424   3.503   6.505   5.802 -0.1632 -0.0467 -0.2380
10311TIP3    H252425   3.581   6.446   5.686 -1.4477 -3.1108  0.3439
10312TIP3   OH252426   2.816   1.721   6.069  0.0770  0.3438  0.2031
10312TIP3    H152427   2.894   1.769   6.098  0.6303 -1.1117  1.2192
10312TIP3    H252428   2.848   1.635   6.042 -0.9472  0.3591 -1.1942
10313TIP3   OH252429   2.230   0.317   3.293 -0.1239  0.2737 -0.0494
10313TIP3    H152430   2.279   0.340   3.214 -0.0122 -0.3814 -0.1758
10313TIP3    H252431   2.161   0.258   3.262 -1.8529  2.1706 -0.0935
10314TIP3   OH252432   5.559   2.857   3.729  0.0508  0.0335 -0.5321
10314TIP3    H152433   5.542   2.764   3.714  0.2160 -0.6676  2.7209
10314TIP3    H252434   5.650   2.869   3.704  0.1757 -0.8092 -0.5155
10315TIP3   OH252435   6.782   2.405   1.267 -0.1237  0.0863  0.0072
10315TIP3    H152436   6.768   2.499   1.280  1.3665  0.5201 -1.1582
10315TIP3    H252437   6.845   2.381   1.335 -1.2430 -0.3089  0.9230
10316TIP3   OH252438   5.688   0.517  12.296  1.3048 -0.7391  0.4710
10316TIP3    H152439   5.736   0.453  12.244  1.9135 -1.2808  1.6589
10316TIP3    H252440   5.738   0.525  12.377  1.2052  1.2087  0.3946
10317TIP3   OH252441   2.934   6.331   7.061  0.0759 -0.3987 -0.2644
10317TIP3    H152442   2.988   6.385   7.003  1.0740 -0.2835  0.7249
10317TIP3    H252443   2.844   6.358   7.042  0.5349  1.6577  0.1985
10318TIP3   OH252444   2.494   6.177  12.045 -0.3561 -0.1842 -0.3748
10318TIP3    H152445   2.574   6.130  12.022  1.5499  2.6876 -0.1237
10318TIP3    H252446   2.447   6.116  12.103  1.6365 -1.9801 -0.4835
10319TIP3   OH252447   4.837   4.550  15.771  0.3246 -0.3133 -0.9556
10319TIP3    H152448   4.855   4.608  15.697  0.0007  1.3207  0.1713
10319TIP3    H252449   4.781   4.602  15.829  0.6902 -1.4608  0.4990
10320TIP3   OH252450   0.075   5.964  11.044  0.1279 -0.4208  0.2602
10320TIP3    H152451   0.004   5.966  11.109  0.2340  0.5399  0.3688
10320TIP3    H252452   0.107   5.874  11.045 -0.4548 -0.6264  0.9093
10321TIP3   OH252453   0.869   4.127  11.302  0.0912 -0.8867  0.4080
10321TIP3    H152454   0.903   4.210  11.269  2.0504 -0.5871  2.8912
10321TIP3    H252455   0.897   4.062  11.238  1.4804 -0.0345  0.1171
10322TIP3   OH252456   2.849   0.287   6.608  0.5147 -0.2363  0.3813
10322TIP3    H152457   2.918   0.271   6.673  0.9588 -1.1936 -0.3042
10322TIP3    H252458   2.771   0.246   6.646  0.2270  1.0755  1.2796
10323TIP3   OH252459   1.866   5.846   6.374 -0.5597 -0.3744  0.2863
10323TIP3    H152460   1.793   5.788   6.394 -2.1596  0.9945 -1.2007
10323TIP3    H252461   1.926   5.793   6.321 -0.3138 -1.5835  1.7343
10324TIP3   OH252462   4.940   6.014  13.103  0.1906  0.4058 -0.2274
10324TIP3    H152463   4.877   6.082  13.081 -0.5391 -0.3192 -0.4007
10324TIP3    H252464   5.025   6.052  13.079  0.1330  2.3518  2.2526
10325TIP3   OH252465   5.644   2.128  10.956  0.6299  0.5826 -0.6014
10325TIP3    H152466   5.641   2.223  10.956  1.3443  0.6105  0.3140
10325TIP3    H252467   5.553   2.101  10.953  0.4350  1.2760 -2.0546
10326TIP3   OH252468   4.101   3.495  11.746  0.0239 -0.1898  0.1222
10326TIP3    H152469   4.019   3.542  11.734  0.3974  0.3338 -0.4621
10326TIP3    H252470   4.075   3.409  11.780 -0.6571  0.4781  1.3500
10327TIP3   OH252471   4.076   4.358  11.818 -0.1701  0.1202 -0.0519
10327TIP3    H152472   4.128   4.431  11.850 -2.4777  1.4004  1.0259
10327TIP3    H252473   4.039   4.390  11.735 -0.2484 -0.2733 -0.1701
10328TIP3   OH252474   2.546   1.843  12.524  0.0463  0.1719 -0.3946
10328TIP3    H152475   2.599   1.822  12.600 -2.1432  0.7534  1.3961
10328TIP3    H252476   2.563   1.772  12.462  0.5596 -1.2817  1.3279
10329TIP3   OH252477   2.643   1.545   4.215  0.0210 -0.2987 -0.3060
10329TIP3    H152478   2.601   1.628   4.196  0.1864  0.3370  1.8675
10329TIP3    H252479   2.573   1.490   4.252  0.4529 -0.1990  0.7003
10330TIP3   OH252480   4.110   0.199  12.605  0.2118  0.3792 -0.6550
10330TIP3    H152481   4.184   0.252  12.576  0.6452  1.9524  2.8098
10330TIP3    H252482   4.149   0.115  12.632  0.2166  0.0274 -1.7030
10331TIP3   OH252483   1.011   6.086  16.537  0.5620  0.1470  0.9479
10331TIP3    H152484   1.014   6.038  16.454  1.9928  0.1237  0.9906
10331TIP3    H252485   0.928   6.061  16.576  1.1798 -2.2205  0.9052
10332TIP3   OH252486   3.206   3.353  16.093  0.2548  0.5064  0.0971
10332TIP3    H152487   3.240   3.345  16.004  1.4000 -1.8780  0.6703
10332TIP3    H252488   3.280   3.385  16.144  0.0247  0.5116  0.4269
10333TIP3   OH252489   2.962   3.445   4.998  0.5925  0.5411  0.2566
10333TIP3    H152490   3.017   3.458   5.075  1.5630  0.8109 -0.4580
10333TIP3    H252491   2.980   3.355   4.971  1.9747  1.1333 -0.9250
10334TIP3   OH252492   1.165   4.861   3.891  0.1788 -0.5667 -0.0753
10334TIP3    H152493   1.257   4.861   3.918  0.3106 -0.7614 -0.5091
10334TIP3    H252494   1.118   4.901   3.964  0.7538  0.6419 -0.3512
10335TIP3   OH252495   0.282   2.272   0.799 -0.8531  0.2838  0.3919
10335TIP3    H152496   0.233   2.325   0.862  1.8539 -0.3484  3.3279
10335TIP3    H252497   0.371   2.308   0.802 -0.4750 -0.0231 -2.9467
10336TIP3   OH252498   1.354   4.591   5.237  0.0491  0.3749  0.1957
10336TIP3    H152499   1.373   4.503   5.205  1.3703 -0.0387  1.9379
10336TIP3    H252500   1.366   4.648   5.161  1.4069 -0.7229 -0.4575
10337TIP3   OH252501   5.586   1.771   2.803 -0.2278 -0.4815 -0.1173
10337TIP3    H152502   5.590   1.694   2.746  3.6561  0.6657 -1.7206
10337TIP3    H252503   5.580   1.735   2.891 -0.7979 -2.5156 -0.9250
10338TIP3   OH252504   3.652   5.548  12.198 -0.3927 -0.3054  0.2242
10338TIP3    H152505   3.735   5.561  12.152 -0.3733 -0.6949  0.1428
10338TIP3    H252506   3.656   5.457  12.228 -1.8431 -1.1637 -1.9565
10339TIP3   OH252507   3.582   5.695  15.127  0.5146  0.0543  0.4696
10339TIP3    H152508   3.636   5.725  15.200 -0.1760  2.0177  0.2492
10339TIP3    H252509   3.505   5.656  15.168  0.7773 -0.1328  0.7852
10340TIP3   OH252510   0.209   1.488  11.520  0.1384  0.1979  0.0404
10340TIP3    H152511   0.131   1.522  11.564 -1.3491  0.2417 -2.4590
10340TIP3    H252512   0.234   1.411  11.572 -1.7770 -0.0323  0.6994
10341TIP3   OH252513   2.328   5.114   0.984  0.6608 -0.5364  0.8848
10341TIP3    H152514   2.287   5.050   0.927 -1.7586  0.5962  1.2234
10341TIP3    H252515   2.357   5.064   1.060  0.7120 -1.5082  0.2468
10342TIP3   OH252516   1.068   6.514  12.759 -0.8402 -0.9874 -0.4578
10342TIP3    H152517   1.048   6.512  12.853 -0.7767 -1.1365 -0.4463
10342TIP3    H252518   1.159   6.544  12.755 -0.6767 -1.4609 -0.4397
10343TIP3   OH252519   0.363   5.276  10.661 -0.0689  0.4140  0.0760
10343TIP3    H152520   0.312   5.238  10.733  0.0867 -0.2403 -0.1480
10343TIP3    H252521   0.347   5.370  10.667  1.3642  0.5915  2.0668
10344TIP3   OH252522   4.683   2.311   2.424 -0.3056 -0.0271 -0.0533
10344TIP3    H152523   4.771   2.319   2.388  0.3540  0.7876  1.6201
10344TIP3    H252524   4.647   2.399   2.419 -1.5494 -0.5801 -1.8545
10345TIP3   OH252525   1.120   2.874  12.341 -0.4785  0.6404  0.2051
10345TIP3    H152526   1.176   2.905  12.412  0.3505 -0.6248  0.1251
10345TIP3    H252527   1.064   2.808  12.381 -1.0518  1.0057  0.0088
10346TIP3   OH252528   4.923   3.916  11.265 -0.0666  0.4948 -0.3407
10346TIP3    H152529   4.924   3.898  11.359  1.8095  0.8630 -0.2482
10346TIP3    H252530   4.986   3.987  11.253 -0.2400  0.4350 -1.8874
10347TIP3   OH252531   3.428   2.437  10.596 -0.3341 -0.2233 -0.1399
10347TIP3    H152532   3.431   2.515  10.652  0.9712  0.2175 -0.7764
10347TIP3    H252533   3.454   2.365  10.654  0.6084  0.1639 -0.0532
10348TIP3   OH252534   2.199   6.211   6.540  0.2607 -0.0765  0.4531
10348TIP3    H152535   2.124   6.152   6.549  1.3833 -1.3625  1.7988
10348TIP3    H252536   2.275   6.156   6.556  1.6338  0.9486 -1.9402
10349TIP3   OH252537   6.321   6.515   4.117  0.0626 -0.1267  0.7797
10349TIP3    H152538   6.327   6.444   4.180  0.7065 -2.1065 -1.3724
10349TIP3    H252539   6.252   6.488   4.056  0.5228  0.9269 -0.2664
10350TIP3   OH252540   1.272   0.126  16.284 -0.4142  0.8642  0.2808
10350TIP3    H152541   1.261   0.043  16.238  1.4313  0.8804 -0.3003
10350TIP3    H252542   1.183   0.157  16.302 -1.1809  0.2279 -2.1277
10351TIP3   OH252543   0.915   6.697  17.074 -0.9826 -0.3830  0.8964
10351TIP3    H152544   0.970   6.637  17.124 -0.0685  0.0695  0.4400
10351TIP3    H252545   0.975   6.761  17.037 -2.0110  1.4967  2.2525
10352TIP3   OH252546   0.344   1.930  11.313 -0.1559 -0.1501 -0.9234
10352TIP3    H152547   0.255   1.897  11.298 -0.3228  0.1231 -0.5501
10352TIP3    H252548   0.401   1.863  11.274 -0.4904 -0.8450 -0.2636
10353TIP3   OH252549   3.916   4.953   4.546  0.1470  0.0715 -0.2547
10353TIP3    H152550   3.823   4.948   4.569  0.2422 -3.0048 -0.0516
10353TIP3    H252551   3.920   4.916   4.457  1.2605 -0.9461  0.1960
10354TIP3   OH252552   2.523   6.083  10.614  0.1968  0.5651 -0.1363
10354TIP3    H152553   2.451   6.022  10.597  0.7230 -0.1193  0.0463
10354TIP3    H252554   2.484   6.152  10.666 -0.3020  0.1283  0.0832
10355TIP3   OH252555   2.124   3.137   3.403 -0.0034  0.2866 -0.3079
10355TIP3    H152556   2.043   3.185   3.416 -0.6728 -0.9661  0.3241
10355TIP3    H252557   2.096   3.047   3.385  1.2483 -0.3760  0.8663
10356TIP3   OH252558   5.639   5.805  14.932  0.5615 -0.3357 -0.1170
10356TIP3    H152559   5.555   5.811  14.887  1.1169 -0.3568 -1.1897
10356TIP3    H252560   5.667   5.714  14.920  1.0174 -0.1771 -0.3097
10357TIP3   OH252561   4.585   6.703  12.368 -0.1827  0.2176  0.5142
10357TIP3    H152562   4.666   6.729  12.324 -0.4102  0.3225  0.1592
10357TIP3    H252563   4.525   6.679  12.298  0.6179 -3.1587  0.8227
10358TIP3   OH252564   6.698   3.850  11.049 -0.1088  0.7964 -0.4594
10358TIP3    H152565   6.731   3.791  10.982  2.1646  1.3706  0.0755
10358TIP3    H252566   6.630   3.902  11.004 -0.4022 -0.5039 -1.5793
10359TIP3   OH252567   5.650   1.006   2.302 -0.1707  0.1423 -0.3302
10359TIP3    H152568   5.667   1.077   2.364  0.4644  1.6945 -2.1526
10359TIP3    H252569   5.719   1.016   2.236 -0.6210 -1.6350 -1.1320
10360TIP3   OH252570   3.300   1.914  15.486 -0.1992  0.4248 -0.2708
10360TIP3    H152571   3.348   1.832  15.494  0.7736  1.0206  0.2352
10360TIP3    H252572   3.307   1.954  15.573  0.8846  1.8556 -0.9715
10361TIP3   OH252573   2.986   4.187  13.000  0.0989  0.0568 -0.2373
10361TIP3    H152574   3.066   4.196  13.053  0.3398 -0.8618 -0.4258
10361TIP3    H252575   2.919   4.234  13.050 -0.0408 -1.9638  1.6691
10362TIP3   OH252576   2.837   0.197   0.048 -0.1091 -0.2522  0.1458
10362TIP3    H152577   2.767   0.251   0.085 -0.9263 -1.3522  0.2755
10362TIP3    H252578   2.865   0.244  -0.030 -1.0365  0.1999  0.0662
10363TIP3   OH252579   3.877   4.936  10.993  0.5523 -0.3546  0.1951
10363TIP3    H152580   3.789   4.898  10.991 -0.9133  2.6213  1.4791
10363TIP3    H252581   3.883   4.986  10.912  0.2525  0.9378  0.9374
10364TIP3   OH252582   4.958   1.576   2.107  0.3538 -0.2003  0.0136
10364TIP3    H152583   4.964   1.654   2.051  0.0586 -1.0776 -1.2694
10364TIP3    H252584   4.922   1.609   2.189  1.9892  1.3470  0.1771
10365TIP3   OH252585   3.622   1.765  11.736  0.3255  0.5585 -0.1888
10365TIP3    H152586   3.653   1.839  11.788  2.9567  1.0764 -2.2801
10365TIP3    H252587   3.642   1.688  11.789 -1.3941  1.2168  1.5128
10366TIP3   OH252588   2.260   4.563  15.398 -0.7472  0.3289  0.3998
10366TIP3    H152589   2.248   4.657  15.386  0.5366  0.5055  0.3045
10366TIP3    H252590   2.348   4.546  15.364 -1.5064 -1.1685 -0.9385
10367TIP3   OH252591   3.492   1.240  12.978  0.3291  0.2816  0.0543
10367TIP3    H152592   3.466   1.148  12.976  0.8872  0.1275 -0.8903
10367TIP3    H252593   3.504   1.264  12.886 -0.7041  1.5739  0.2186
10368TIP3   OH252594   3.673   1.039  13.077  0.3080  0.2505 -0.4207
10368TIP3    H152595   3.683   1.114  13.135  0.0227 -1.5184  2.1106
10368TIP3    H252596   3.581   1.040  13.051  0.9176  2.3413 -2.8830
10369TIP3   OH252597   1.923   0.873  13.743  0.2252  0.1166  0.2664
10369TIP3    H152598   1.953   0.903  13.829  0.3165  1.4761 -0.2165
10369TIP3    H252599   1.959   0.937  13.682  0.8293 -1.2805 -0.8741
10370TIP3   OH252600   0.308   0.281  16.676  0.3292 -0.4892  0.2522
10370TIP3    H152601   0.362   0.206  16.700  0.6703 -0.0885  0.7750
10370TIP3    H252602   0.371   0.353  16.667  0.0221 -0.2949 -0.3737
10371TIP3   OH252603   6.434   0.610  10.736  0.2150 -0.2934  0.1956
10371TIP3    H152604   6.411   0.544  10.672 -0.1611  0.8358 -0.8689
10371TIP3    H252605   6.530   0.603  10.744  0.4937  0.6451 -1.7742
10372TIP3   OH252606   3.940   2.187  15.773  0.6713 -0.1555 -0.0662
10372TIP3    H152607   3.978   2.273  15.793  2.1051 -1.2657  2.3600
10372TIP3    H252608   3.974   2.166  15.686  3.1644  0.2882  0.7164
10373TIP3   OH252609   2.793   5.977   5.502 -0.1320 -0.6820 -0.4487
10373TIP3    H152610   2.841   5.966   5.420 -0.9174 -0.7031 -0.9165
10373TIP3    H252611   2.703   5.995   5.475 -0.3220 -0.3066  0.4080
10374TIP3   OH252612   2.827   2.064  16.873 -0.3303 -0.3399 -0.2637
10374TIP3    H152613   2.743   2.032  16.839 -0.4021  0.3643 -0.7558
10374TIP3    H252614   2.838   2.150  16.834  0.6279 -0.4213 -0.1999
10375TIP3   OH252615   5.637   6.683   0.856 -0.2235 -0.1291 -0.0043
10375TIP3    H152616   5.541   6.681   0.865 -0.2583  0.2082 -0.2782
10375TIP3    H252617   5.653   6.643   0.770 -0.1062 -0.3767  0.1343
10376TIP3   OH252618   2.922   0.819   5.013  0.0019 -0.1595  0.7373
10376TIP3    H152619   2.889   0.731   5.029  1.3360 -0.7188  0.6017
10376TIP3    H252620   2.988   0.807   4.944  1.4840  0.6574  1.9567
10377TIP3   OH252621   2.836   1.175  13.001 -0.0825 -0.4563 -0.1946
10377TIP3    H152622   2.868   1.087  12.979  0.5771 -0.3188  0.1720
10377TIP3    H252623   2.841   1.223  12.918  1.5027 -0.2046  0.0158
10378TIP3   OH252624   5.312   4.466  14.843 -0.3976  0.0734  0.0854
10378TIP3    H152625   5.240   4.487  14.902  0.6191 -0.2109  1.4659
10378TIP3    H252626   5.344   4.381  14.874  1.1907  0.6856  0.1748
10379TIP3   OH252627   5.186   4.827  15.253 -0.3597  0.4454  0.1402
10379TIP3    H152628   5.166   4.845  15.161  0.7910  1.1799  0.0195
10379TIP3    H252629   5.132   4.750  15.274  2.0543 -2.1746 -2.2358
10380TIP3   OH252630   3.399   6.333   1.304 -0.4806  0.3216 -0.8575
10380TIP3    H152631   3.420   6.243   1.327 -2.0135 -0.2473 -1.5317
10380TIP3    H252632   3.443   6.348   1.221  0.4066  0.4744 -0.3743
10381TIP3   OH252633   1.223   6.467  11.997 -0.1673  0.0715  0.0947
10381TIP3    H152634   1.162   6.484  12.069  0.8150 -0.0740  0.9886
10381TIP3    H252635   1.306   6.506  12.026  0.4426 -0.6648 -0.6154
10382TIP3   OH252636   2.849   2.381   0.652 -0.0946  0.0274  0.2741
10382TIP3    H152637   2.927   2.376   0.598 -1.2550 -0.3265 -1.4565
10382TIP3    H252638   2.841   2.473   0.676  0.5428  0.1601 -0.0141
10383TIP3   OH252639   0.073   5.453   2.065 -0.1930  0.3333 -0.0645
10383TIP3    H152640   0.162   5.485   2.075  0.4926 -1.1123 -1.1235
10383TIP3    H252641   0.029   5.521   2.013  0.5593  0.6372 -0.3221
10384TIP3   OH252642   6.785   2.918   0.321 -0.4510  0.2516  0.2349
10384TIP3    H152643   6.844   2.867   0.267 -0.7884 -0.4178  0.4920
10384TIP3    H252644   6.720   2.953   0.260 -0.3235  0.2345  0.0886
10385TIP3   OH252645   1.730   4.864   3.439 -0.1253 -0.2514 -0.4038
10385TIP3    H152646   1.689   4.804   3.501 -2.1327  3.2275  2.0237
10385TIP3    H252647   1.819   4.877   3.474  0.2897 -1.6465 -0.8951
10386TIP3   OH252648   2.601   1.608   2.888  0.2399 -0.1069  0.3241
10386TIP3    H152649   2.601   1.512   2.882  0.5762 -0.2201  1.8539
10386TIP3    H252650   2.631   1.637   2.801 -1.1921 -1.3186 -0.6193
10387TIP3   OH252651   3.853   0.765  15.547 -0.5482  0.2004  0.0999
10387TIP3    H152652   3.757   0.773  15.550 -0.5559  0.0345  0.3140
10387TIP3    H252653   3.878   0.811  15.467 -1.0266 -1.8588 -1.3212
10388TIP3   OH252654   6.638   5.608   0.866 -0.0035 -0.6849 -0.1941
10388TIP3    H152655   6.594   5.569   0.942 -1.0141  1.1301  0.2369
10388TIP3    H252656   6.582   5.586   0.792  0.6733 -1.9698 -0.3404
10389TIP3   OH252657   4.694   6.774  10.820  0.9162  0.5257  0.0727
10389TIP3    H152658   4.771   6.821  10.788  1.0092  0.9389  0.8720
10389TIP3    H252659   4.620   6.827  10.793  0.9385  0.3881 -0.2623
10390TIP3   OH252660   3.690   4.215  10.675 -0.2856  0.1836  0.1684
10390TIP3    H152661   3.686   4.281  10.606 -1.7312 -1.3141 -1.2643
10390TIP3    H252662   3.624   4.243  10.739 -0.9770  0.0598 -0.4871
10391TIP3   OH252663   4.413   0.540  14.285 -0.1133  0.3824  0.4083
10391TIP3    H152664   4.484   0.604  14.282  0.4572 -0.2901 -1.6695
10391TIP3    H252665   4.454   0.457  14.263 -1.2853 -0.2916  0.6959
10392TIP3   OH252666   2.236   1.667   4.252  0.1276 -0.2101 -0.0818
10392TIP3    H152667   2.190   1.585   4.268  0.0286  0.1642  1.8191
10392TIP3    H252668   2.167   1.733   4.246  0.2937  0.4296  3.2594
10393TIP3   OH252669   4.095   0.835   4.392  0.4222  0.2993  0.0722
10393TIP3    H152670   4.089   0.761   4.453  1.1072  0.5050  0.4006
10393TIP3    H252671   4.038   0.901   4.430  0.6335  0.3254  0.3502
10394TIP3   OH252672   6.159   6.445   2.612 -0.1153  0.7521  0.0173
10394TIP3    H152673   6.145   6.393   2.691  1.3135  0.7988  0.3140
10394TIP3    H252674   6.106   6.524   2.626  1.3937  1.5289  1.6943
10395TIP3   OH252675   3.493   3.043  16.145  0.3029  0.0103  0.3172
10395TIP3    H152676   3.426   2.976  16.153 -0.4629  0.7470  0.2327
10395TIP3    H252677   3.575   2.998  16.166 -0.1345 -1.0454 -0.1698
10396TIP3   OH252678   6.726   5.506  12.356  0.4704 -0.3144 -0.0521
10396TIP3    H152679   6.796   5.538  12.413 -1.8446  2.2970  1.5897
10396TIP3    H252680   6.671   5.453  12.414 -0.4025 -0.0047 -0.5871
10397TIP3   OH252681   2.666   2.673  16.040 -0.1098 -0.0619  0.1020
10397TIP3    H152682   2.750   2.627  16.039 -0.5989 -1.0270  0.8358
10397TIP3    H252683   2.673   2.739  15.971  1.3468  0.0616  0.3449
10398TIP3   OH252684   6.025   4.721   3.635 -0.5089 -0.2633  0.2814
10398TIP3    H152685   6.028   4.762   3.721 -1.2151 -1.8195  1.0998
10398TIP3    H252686   6.107   4.672   3.628 -0.3461  0.0554 -0.0262
10399TIP3   OH252687   1.031   2.769   4.252 -0.6033 -0.0081  0.4365
10399TIP3    H152688   1.084   2.780   4.173 -1.6190 -0.3821 -0.3140
10399TIP3    H252689   1.023   2.858   4.288 -1.0076  0.3320 -0.4612
10400TIP3   OH252690   4.208   3.017   1.255 -0.3876 -0.4224  0.6755
10400TIP3    H152691   4.154   2.940   1.269 -0.2738 -0.5991  0.1472
10400TIP3    H252692   4.198   3.068   1.336  0.6518 -1.6431  1.6220
10401TIP3   OH252693   6.406   3.793   3.968 -0.0943  0.6964  0.4594
10401TIP3    H152694   6.483   3.840   3.999  1.0723 -0.6133 -0.3384
10401TIP3    H252695   6.344   3.862   3.944  1.6617  1.8530 -0.9846
10402TIP3   OH252696   4.958   4.112  11.805 -0.5891  0.1380  0.0972
10402TIP3    H152697   5.001   4.037  11.846 -0.4169 -0.1944 -0.6680
10402TIP3    H252698   4.942   4.173  11.876  0.7943  0.1039  0.4617
10403TIP3   OH252699   2.545   6.142  16.568 -0.2678  0.3603 -0.4417
10403TIP3    H152700   2.469   6.153  16.511  0.0767  1.2611 -0.7469
10403TIP3    H252701   2.509   6.142  16.657 -0.4946  2.6606 -0.4636
10404TIP3   OH252702   5.797   5.765   0.943  0.6441 -0.1244 -0.1523
10404TIP3    H152703   5.808   5.846   0.992  0.5081 -0.1698 -0.0449
10404TIP3    H252704   5.754   5.705   1.004  1.0895 -0.3992 -0.1076
10405TIP3   OH252705   0.946   3.762   3.007 -0.3247 -0.9241 -0.1777
10405TIP3    H152706   0.970   3.765   2.915  0.3243 -1.5970 -0.0379
10405TIP3    H252707   0.945   3.668   3.029  0.6778 -0.7247  0.7909
10406TIP3   OH252708   0.840   2.061   2.987  0.5439 -0.1718 -0.0191
10406TIP3    H152709   0.890   1.981   2.974 -2.4915 -2.5736  1.7269
10406TIP3    H252710   0.814   2.089   2.899  2.5395 -0.4357 -0.7217
10407TIP3   OH252711   6.634   4.893  11.056 -0.8445  0.1734  0.6255
10407TIP3    H152712   6.699   4.952  11.093 -0.9260  0.4779  0.2908
10407TIP3    H252713   6.656   4.807  11.092 -1.1538  0.5145  1.6783
10408TIP3   OH252714   3.304   3.856   1.654  0.3736 -0.5537 -0.3357
10408TIP3    H152715   3.231   3.801   1.625  1.5759 -1.7426 -1.2359
10408TIP3    H252716   3.371   3.793   1.681  0.2257  0.4846  2.8144
10409TIP3   OH252717   3.542   3.649  13.831  0.2504  0.2528  0.3248
10409TIP3    H152718   3.518   3.638  13.739 -1.1021 -3.1970  0.9219
10409TIP3    H252719   3.636   3.629  13.834 -0.1753 -2.0687 -0.0778
10410TIP3   OH252720   2.111   3.064  13.685 -0.1302  0.2663 -0.6711
10410TIP3    H152721   2.045   3.120  13.644 -0.4961  0.4642  0.1591
10410TIP3    H252722   2.069   3.033  13.766 -0.3009 -1.9862 -1.5467
10411TIP3   OH252723   6.257   1.970  12.151 -0.0875 -0.2336 -0.3954
10411TIP3    H152724   6.197   2.033  12.112 -0.4877 -0.3615  0.0108
10411TIP3    H252725   6.322   2.023  12.196 -0.5083 -0.1124  0.0715
10412TIP3   OH252726   6.780   6.550   5.876 -0.6009  0.7416 -0.5185
10412TIP3    H152727   6.858   6.564   5.930 -1.4813  2.3408  0.4471
10412TIP3    H252728   6.772   6.455   5.869 -0.3686  0.4434  2.1445
10413TIP3   OH252729   3.992   1.200   4.512  0.8255 -0.1909  0.6591
10413TIP3    H152730   4.039   1.179   4.431 -1.1528  0.2002 -0.6853
10413TIP3    H252731   4.035   1.279   4.545  0.5783  0.7341 -1.0538
10414TIP3   OH252732   2.193   5.588   0.209 -0.2551  0.1754 -0.3673
10414TIP3    H152733   2.230   5.501   0.198 -1.9248 -0.6709  0.2506
10414TIP3    H252734   2.171   5.616   0.120  2.0928  0.8611 -0.7824
10415TIP3   OH252735   4.301   1.289   5.911  0.2933 -0.0800  0.1418
10415TIP3    H152736   4.263   1.236   5.982  0.5527  1.3435  1.3887
10415TIP3    H252737   4.393   1.261   5.907  0.4213  0.2401  0.7713
10416TIP3   OH252738   0.182   6.670   3.569 -0.3802  0.3107 -0.0923
10416TIP3    H152739   0.193   6.595   3.511  0.4279  1.4219 -1.4668
10416TIP3    H252740   0.224   6.644   3.651 -0.6441 -0.9339 -0.3388
10417TIP3   OH252741   6.376   1.738   1.384 -0.3634 -0.4212  0.0512
10417TIP3    H152742   6.409   1.804   1.323  0.2297  0.1232  0.9282
10417TIP3    H252743   6.349   1.788   1.461  1.4929 -1.2955  1.3381
10418TIP3   OH252744   0.451   1.730  13.955  0.2965 -0.8416 -0.4745
10418TIP3    H152745   0.371   1.780  13.972  0.5083 -0.6691  0.0206
10418TIP3    H252746   0.439   1.696  13.866  0.3696  0.5049 -1.0266
10419TIP3   OH252747   5.015   0.240   6.266 -0.6473 -0.2470 -0.4066
10419TIP3    H152748   4.991   0.230   6.358 -0.6545 -0.7756 -0.4638
10419TIP3    H252749   4.957   0.310   6.233 -0.0684  0.5301  0.1961
10420TIP3   OH252750   4.586   3.749  16.949 -0.0523  0.1332 -0.3143
10420TIP3    H152751   4.541   3.833  16.944 -0.1977  0.0315 -0.8759
10420TIP3    H252752   4.610   3.730  16.858  4.1916  1.7932  0.2252
10421TIP3   OH252753   2.723   0.063   2.672  0.0873 -0.1810 -0.0544
10421TIP3    H152754   2.664  -0.013   2.669 -1.3860  0.9168 -0.2719
10421TIP3    H252755   2.677   0.126   2.727  1.8283  0.1616  1.1038
10422TIP3   OH252756   5.139   6.098  17.207  0.6863 -0.2449 -0.7510
10422TIP3    H152757   5.083   6.071  17.134  1.3733  0.0407 -1.3924
10422TIP3    H252758   5.079   6.138  17.270  0.0670 -0.6437 -1.0845
10423TIP3   OH252759   4.744   0.606   4.056 -0.2530  0.3495  1.0231
10423TIP3    H152760   4.798   0.537   4.094  0.9258  0.5977 -0.1355
10423TIP3    H252761   4.791   0.687   4.078  1.3817  0.4387 -2.1645
10424TIP3   OH252762   5.695   1.965   2.123  0.1453  0.4619 -0.2994
10424TIP3    H152763   5.702   2.018   2.203 -1.1981  0.9709 -0.4786
10424TIP3    H252764   5.749   1.888   2.140  0.1075  0.6900  0.9903
10425TIP3   OH252765   3.974   3.773  12.086  0.5505 -0.2697 -0.1156
10425TIP3    H152766   4.043   3.733  12.032 -0.0879 -1.6068  0.0173
10425TIP3    H252767   3.964   3.712  12.160  0.4366  0.8204  0.7850
10426TIP3   OH252768   3.780   4.168   4.253 -0.3749  0.4521 -0.6451
10426TIP3    H152769   3.722   4.091   4.254 -0.4048  0.3492 -3.2270
10426TIP3    H252770   3.739   4.229   4.314 -1.9087 -0.5424 -0.6112
10427TIP3   OH252771   1.197   5.421  15.328  0.4098  0.5379  0.1623
10427TIP3    H152772   1.291   5.434  15.341  0.0908  2.3646  0.9475
10427TIP3    H252773   1.164   5.401  15.415 -0.1226  1.3680  0.1586
10428TIP3   OH252774   5.505   2.771  16.197 -0.5348 -0.7183 -0.1408
10428TIP3    H152775   5.549   2.755  16.281 -0.0792 -1.7080 -0.5470
10428TIP3    H252776   5.576   2.799  16.139 -1.1541  2.0405  0.2817
10429TIP3   OH252777   6.583   2.713  16.337  0.5112 -0.1650  0.3166
10429TIP3    H152778   6.675   2.692  16.349  0.5387 -0.4956 -0.3975
10429TIP3    H252779   6.551   2.734  16.425  1.2031 -0.2869  0.6041
10430TIP3   OH252780   4.825   6.012   4.401 -0.0424 -0.4361 -0.5845
10430TIP3    H152781   4.731   6.033   4.406  0.1657  0.2833  0.8851
10430TIP3    H252782   4.828   5.919   4.379 -1.1181 -0.6529  0.1164
10431TIP3   OH252783   4.486   0.250   5.743  0.0139 -0.2667 -0.1003
10431TIP3    H152784   4.541   0.312   5.791 -1.0435 -1.2361  2.5291
10431TIP3    H252785   4.477   0.175   5.801 -2.7560 -0.8283 -1.0865
10432TIP3   OH252786   2.711   0.511   0.293  0.3123 -0.0561 -0.1771
10432TIP3    H152787   2.714   0.538   0.384 -1.4220  0.0714 -0.1296
10432TIP3    H252788   2.708   0.593   0.243 -0.7828 -0.1115 -0.2292
10433TIP3   OH252789   0.644   6.736   1.457 -0.2388 -0.5465 -0.3137
10433TIP3    H152790   0.596   6.658   1.483 -3.8368  1.0571 -1.5036
10433TIP3    H252791   0.608   6.759   1.371 -1.7289  4.0724  1.2543
10434TIP3   OH252792   4.120   3.992  14.489  0.5131 -1.1393 -0.9836
10434TIP3    H152793   4.069   3.927  14.441 -1.0661 -0.1126 -0.7490
10434TIP3    H252794   4.134   3.952  14.576  0.6794 -1.6866 -1.2531
10435TIP3   OH252795   3.767   3.940  17.136 -0.5780 -0.0803  0.0674
10435TIP3    H152796   3.740   4.031  17.151 -0.3249  0.0500 -0.2504
10435TIP3    H252797   3.809   3.942  17.050 -1.1976 -0.6370 -0.2566
10436TIP3   OH252798   3.086   5.645  14.995  0.4729 -0.2714 -0.3227
10436TIP3    H152799   3.149   5.605  15.055  1.0598  1.3378  0.2065
10436TIP3    H252800   3.139   5.672  14.919  0.5426  1.4283  0.2890
10437TIP3   OH252801   0.007   1.358  16.014 -0.0019 -0.1847 -0.4546
10437TIP3    H152802  -0.007   1.438  16.064  1.9905 -0.1726  0.1504
10437TIP3    H252803   0.093   1.327  16.041 -0.2773 -1.9713 -1.4664
10438TIP3   OH252804   4.217   4.136  12.657 -0.1214 -0.0065  0.5342
10438TIP3    H152805   4.184   4.225  12.648  0.6644  0.5444  2.5271
10438TIP3    H252806   4.296   4.134  12.604 -0.0428  0.5456  0.6249
10439TIP3   OH252807   6.031   5.128  16.419 -0.2319 -0.3992 -0.3618
10439TIP3    H152808   6.037   5.033  16.404 -1.1098 -0.6247  0.6135
10439TIP3    H252809   5.939   5.148  16.407  0.0098  0.4229 -0.9451
10440TIP3   OH252810   1.819   6.686  11.904 -0.9614 -0.3477  0.4004
10440TIP3    H152811   1.760   6.645  11.841 -0.7706  0.3907 -0.2811
10440TIP3    H252812   1.900   6.701  11.855 -1.2642  1.4791  0.3945
10441TIP3   OH252813   1.494   2.248   5.269 -0.0799 -0.6200 -0.0279
10441TIP3    H152814   1.497   2.265   5.175  0.9228 -0.3136  0.0425
10441TIP3    H252815   1.537   2.163   5.280  3.9215  1.2529  0.5128
10442TIP3   OH252816   1.351   4.974   1.538 -0.1683 -0.3422 -0.2051
10442TIP3    H152817   1.395   4.890   1.555 -0.6741 -0.9075 -1.5553
10442TIP3    H252818   1.260   4.950   1.520 -0.7039  0.6710  1.0100
10443TIP3   OH252819   4.633   2.511   2.116  0.4211 -0.4346  0.3620
10443TIP3    H152820   4.572   2.445   2.084 -0.3306 -1.6960  3.9108
10443TIP3    H252821   4.710   2.461   2.144  1.0621  0.5719  0.4517
10444TIP3   OH252822   2.115   2.090  15.096  0.1338 -0.0150  0.5779
10444TIP3    H152823   2.025   2.089  15.064 -0.4695 -2.2970  2.0704
10444TIP3    H252824   2.169   2.090  15.016 -1.2678 -3.7709 -0.6005
10445TIP3   OH252825   2.731   4.281   4.803  0.1303 -0.1249  0.2225
10445TIP3    H152826   2.787   4.250   4.874  0.5049  0.3480  0.1457
10445TIP3    H252827   2.789   4.282   4.726  0.1694  0.8637  0.2523
10446TIP3   OH252828   4.800   5.859   5.358  0.0544 -0.2249  0.2422
10446TIP3    H152829   4.794   5.885   5.450 -0.0928  1.4145 -0.1994
10446TIP3    H252830   4.892   5.834   5.346  0.5576  1.4177  0.4061
10447TIP3   OH252831   2.879   6.532  14.419 -0.2243  0.0897  0.1541
10447TIP3    H152832   2.786   6.552  14.403 -0.4657 -1.2395 -0.2442
10447TIP3    H252833   2.882   6.501  14.510 -0.3130 -0.5703 -0.0593
10448TIP3   OH252834   5.675   5.098   6.417 -0.4747  0.5784 -0.0349
10448TIP3    H152835   5.723   5.167   6.371 -1.0331 -0.3374 -2.1120
10448TIP3    H252836   5.744   5.042   6.453 -0.0236  1.3458  0.3319
10449TIP3   OH252837   4.483   6.235   0.466  0.3824  0.7232  0.0029
10449TIP3    H152838   4.441   6.275   0.390 -0.7637 -1.1315 -0.4283
10449TIP3    H252839   4.572   6.270   0.466  0.2381  1.2080 -1.8680
10450TIP3   OH252840   0.774   1.649   4.045 -0.0483 -0.3335 -0.1054
10450TIP3    H152841   0.834   1.721   4.024  0.0514 -0.3347  0.1653
10450TIP3    H252842   0.825   1.570   4.031 -0.1438 -0.3522 -0.3587
10451TIP3   OH252843   2.522   3.847  13.218  0.2318  0.0748 -0.6833
10451TIP3    H152844   2.435   3.843  13.179  0.0311 -1.6765 -0.0977
10451TIP3    H252845   2.574   3.896  13.154 -0.2984 -1.9424 -2.8000
10452TIP3   OH252846   6.768   5.667  16.833  1.0465 -1.0818 -0.1780
10452TIP3    H152847   6.688   5.720  16.831  0.8571 -1.3797 -0.5050
10452TIP3    H252848   6.831   5.717  16.781  0.8518 -1.1990 -0.5288
10453TIP3   OH252849   1.849   5.470   2.575  0.0347 -0.0360 -0.4243
10453TIP3    H152850   1.781   5.406   2.555 -0.6771  0.6557 -0.2793
10453TIP3    H252851   1.801   5.549   2.601  0.7771  1.5189 -3.3334
10454TIP3   OH252852   2.800   4.461   1.900 -0.3973 -0.4093  0.2549
10454TIP3    H152853   2.731   4.395   1.906  1.5640 -2.7515 -1.2470
10454TIP3    H252854   2.867   4.431   1.962  0.2740  0.5436  0.0091
10455TIP3   OH252855   2.164   6.726  14.244 -0.3239  0.4955  0.0313
10455TIP3    H152856   2.176   6.821  14.252 -0.1466  0.5844 -1.1988
10455TIP3    H252857   2.070   6.713  14.256 -0.4584  0.9105 -0.5605
10456TIP3   OH252858   1.486   1.477  13.538 -0.2998 -0.2228  0.4570
10456TIP3    H152859   1.507   1.560  13.579 -0.3272  0.0946 -0.1674
10456TIP3    H252860   1.428   1.434  13.601 -0.7295  0.4650  0.5441
10457TIP3   OH252861   4.449   2.044  11.820 -0.0617  0.4971  0.0840
10457TIP3    H152862   4.540   2.021  11.803 -0.5464 -2.1284  0.6672
10457TIP3    H252863   4.454   2.111  11.889  1.4404  2.0298 -1.4404
10458TIP3   OH252864   2.252   5.850  13.069  0.4922  0.4052 -0.5665
10458TIP3    H152865   2.330   5.888  13.109  0.0579  0.8041 -0.0994
10458TIP3    H252866   2.263   5.868  12.975  1.5227 -0.5623 -0.6640
10459TIP3   OH252867   4.635   4.554   2.578 -0.1332  0.6108 -0.1819
10459TIP3    H152868   4.562   4.565   2.640  1.0286  0.4152  1.2735
10459TIP3    H252869   4.686   4.635   2.587  0.5204  0.2075 -0.2309
10460TIP3   OH252870   1.119   5.088  15.235  0.3048 -0.6381  0.0773
10460TIP3    H152871   1.155   5.026  15.171  1.3029 -0.1030  0.0951
10460TIP3    H252872   1.061   5.143  15.184  1.5497  0.1670 -0.5340
10461TIP3   OH252873   4.184   5.560   2.575 -0.3157 -0.0612 -0.4602
10461TIP3    H152874   4.114   5.523   2.521 -0.4575 -0.0336 -0.2990
10461TIP3    H252875   4.254   5.494   2.573  0.0079  0.2989 -1.3344
10462TIP3   OH252876   4.819   2.375  10.702 -0.4476 -0.4992  0.4407
10462TIP3    H152877   4.806   2.281  10.687 -1.4769 -0.1968 -0.6710
10462TIP3    H252878   4.880   2.402  10.632  0.0937 -0.3849  0.9442
10463TIP3   OH252879   0.355   1.141  11.589 -0.4245 -0.3505 -0.0863
10463TIP3    H152880   0.394   1.207  11.532  1.1980 -0.9141  0.3136
10463TIP3    H252881   0.277   1.111  11.542  0.1990  0.0608 -1.4104
10464TIP3   OH252882   0.126   1.930   3.907 -0.5969  0.0801  0.3833
10464TIP3    H152883   0.122   2.013   3.859 -1.1566  0.3463  0.8679
10464TIP3    H252884   0.143   1.864   3.840  0.6772  0.6711  0.0931
10465TIP3   OH252885   6.358   3.441  15.066  0.3777  0.6185 -0.5803
10465TIP3    H152886   6.364   3.381  15.140  0.3501  1.6115  0.2652
10465TIP3    H252887   6.450   3.460  15.044  0.3860  0.2502 -0.8632
10466TIP3   OH252888   3.832   0.258  16.926  0.2477  0.1722 -0.2340
10466TIP3    H152889   3.875   0.325  16.874 -1.1763  0.1182 -1.5481
10466TIP3    H252890   3.785   0.204  16.862 -1.5959  0.1181  1.0737
10467TIP3   OH252891   6.549   1.041  11.177 -0.2900 -0.2384  0.1367
10467TIP3    H152892   6.456   1.054  11.157 -0.4307  1.1971  1.4752
10467TIP3    H252893   6.571   0.957  11.138 -2.7450 -1.7502  1.7167
10468TIP3   OH252894   4.060   5.241   1.780 -0.7310  0.4288  0.3249
10468TIP3    H152895   4.041   5.306   1.712  0.5737 -0.4883 -0.9966
10468TIP3    H252896   4.074   5.160   1.731  0.0837 -0.3078  1.7184
10469TIP3   OH252897   3.477   3.626   2.641  0.1265 -0.0773 -0.3192
10469TIP3    H152898   3.391   3.655   2.610  0.6081 -0.9757 -2.6571
10469TIP3    H252899   3.472   3.636   2.736 -1.7858  1.9450 -0.5350
10470TIP3   OH252900   3.764   2.538  11.558 -0.3697 -0.1088  0.1825
10470TIP3    H152901   3.827   2.517  11.489  0.8494 -0.5270  1.3928
10470TIP3    H252902   3.733   2.453  11.589 -0.5859  0.0668  0.4528
10471TIP3   OH252903   1.995   1.244   0.081  0.1928 -0.3024 -0.3190
10471TIP3    H152904   2.030   1.313   0.026  1.0867  0.2532  0.9087
10471TIP3    H252905   1.929   1.287   0.135  0.8623 -0.3417  0.5583
10472TIP3   OH252906   6.021   6.002  10.405 -0.2267 -0.8361  0.0390
10472TIP3    H152907   6.053   6.087  10.432 -1.4725 -0.6747  1.0901
10472TIP3    H252908   5.980   6.018  10.320 -2.1669  0.0516  1.0849
10473TIP3   OH252909   2.971   1.821  14.400 -0.2686  0.2098  0.9543
10473TIP3    H152910   3.054   1.776  14.386  1.2941  3.2301 -0.6067
10473TIP3    H252911   2.996   1.902  14.446 -2.2718  1.3582  0.1253
10474TIP3   OH252912   3.792   4.187   2.986  0.6012  0.1944 -0.5142
10474TIP3    H152913   3.792   4.244   3.062  0.3523  0.4772 -0.7259
10474TIP3    H252914   3.701   4.160   2.976  0.6802 -0.0724 -0.5437
10475TIP3   OH252915   2.198   0.408  11.672  1.2218 -0.2451 -0.3578
10475TIP3    H152916   2.146   0.341  11.716  0.7410  1.0904  1.1921
10475TIP3    H252917   2.285   0.401  11.712  1.0693  0.2844  0.0759
10476TIP3   OH252918   4.788   0.795  13.064  0.1145  0.1034  0.0411
10476TIP3    H152919   4.713   0.736  13.068  1.2449 -1.4618  3.9997
10476TIP3    H252920   4.852   0.749  13.010 -0.0538 -1.0273  0.7661
10477TIP3   OH252921   3.393   2.730  16.857 -0.1179  0.2330  0.1238
10477TIP3    H152922   3.321   2.673  16.832  0.3514  0.0490 -0.8808
10477TIP3    H252923   3.355   2.818  16.858 -0.7653 -0.0481  1.3582
10478TIP3   OH252924   5.344   3.492   1.270 -0.7024 -0.2194  0.6597
10478TIP3    H152925   5.257   3.525   1.294 -0.9771  0.0277 -0.5911
10478TIP3    H252926   5.342   3.486   1.174  0.6318 -0.3018  0.6138
10479TIP3   OH252927   5.459   2.591  14.887  0.5739 -0.5947 -0.2750
10479TIP3    H152928   5.376   2.607  14.842  0.9017 -0.9943 -1.0307
10479TIP3    H252929   5.503   2.676  14.887  0.6927 -0.6552 -0.9601
10480TIP3   OH252930   2.032   0.394  12.040 -0.2126  0.1784 -0.6509
10480TIP3    H152931   2.109   0.366  11.990 -1.5131  0.6510 -3.0866
10480TIP3    H252932   2.032   0.338  12.117  1.3002 -1.4178 -1.7257
10481TIP3   OH252933   5.412   2.280  14.533  0.0175 -0.7528  0.1978
10481TIP3    H152934   5.343   2.222  14.563  0.1113  0.2183  2.5365
10481TIP3    H252935   5.402   2.359  14.587  0.9436  0.7374 -1.6604
10482TIP3   OH252936   6.825   3.970   5.279  0.2322  0.3454  0.0246
10482TIP3    H152937   6.735   4.004   5.280 -1.2872 -3.0448 -1.6236
10482TIP3    H252938   6.827   3.907   5.351 -0.0976 -2.3057 -2.1169
10483TIP3   OH252939   5.213   5.052   5.125 -0.6210  0.1313 -0.2530
10483TIP3    H152940   5.256   5.082   5.045  0.5937  0.9562  0.6743
10483TIP3    H252941   5.273   5.077   5.196 -1.7901 -0.3213  0.9442
10484TIP3   OH252942   0.482   2.585  12.108  0.2728  0.2231 -0.0543
10484TIP3    H152943   0.572   2.584  12.074  0.2312  0.0786 -0.1572
10484TIP3    H252944   0.471   2.675  12.141 -0.3296  0.9818 -2.1529
10485TIP3   OH252945   4.501   2.794   5.938 -0.1648  0.6196  0.2695
10485TIP3    H152946   4.503   2.702   5.965 -0.4444  0.0181 -1.6693
10485TIP3    H252947   4.420   2.828   5.976  0.0897  0.1752  1.2586
10486TIP3   OH252948   3.510   0.826   1.850 -0.1659  0.0501  0.0377
10486TIP3    H152949   3.565   0.777   1.911 -3.4422 -0.9229  2.5517
10486TIP3    H252950   3.473   0.759   1.792  1.0335  0.6632 -1.5100
10487TIP3   OH252951   0.869   4.933   6.077  0.4818  0.6087  0.6018
10487TIP3    H152952   0.887   5.023   6.050  1.0227  0.0366 -1.0696
10487TIP3    H252953   0.798   4.941   6.141  0.3910  2.2011  0.3537
10488TIP3   OH252954   5.175   4.365   0.434  0.1159 -0.1756 -0.5851
10488TIP3    H152955   5.221   4.283   0.419 -1.6627 -1.0585 -1.5202
10488TIP3    H252956   5.244   4.431   0.439  1.6375 -1.7905  0.9644
10489TIP3   OH252957   3.635   6.297   4.093  0.3565 -0.2888 -0.3644
10489TIP3    H152958   3.599   6.369   4.144  0.9375 -1.3547  1.6680
10489TIP3    H252959   3.615   6.319   4.002 -1.0310  1.5353  0.3265
10490TIP3   OH252960   0.976   1.731  11.466  0.3836 -0.2927 -0.3287
10490TIP3    H152961   0.990   1.822  11.491  1.2908 -0.2655 -0.9009
10490TIP3    H252962   0.947   1.735  11.375  0.5386 -0.5821 -0.3912
10491TIP3   OH252963   1.178   0.766   6.535  0.1607 -0.2989  0.2707
10491TIP3    H152964   1.089   0.731   6.540 -0.3081  0.6419 -0.8577
10491TIP3    H252965   1.166   0.858   6.509  1.4835 -0.3350 -0.5649
10492TIP3   OH252966   4.176   4.071   3.340 -0.3572  0.0478  0.0051
10492TIP3    H152967   4.195   3.989   3.385 -0.4194  0.3008  0.5051
10492TIP3    H252968   4.201   4.139   3.403 -0.0814  0.4151 -0.4961
10493TIP3   OH252969   3.201   4.277  13.772 -0.0527 -0.1145 -0.1110
10493TIP3    H152970   3.202   4.365  13.809  0.0567 -0.5008  0.8451
10493TIP3    H252971   3.112   4.266  13.738 -0.2283  0.1803  0.2427
10494TIP3   OH252972   6.371   6.632  13.162  0.0306 -0.2556  0.1173
10494TIP3    H152973   6.280   6.649  13.137  0.3965  3.2500  0.6700
10494TIP3    H252974   6.408   6.586  13.087 -1.6710  0.1336 -1.0214
10495TIP3   OH252975   2.644   2.598  17.253 -0.6134  0.6211  0.2209
10495TIP3    H152976   2.599   2.569  17.332 -1.7964 -1.8622 -1.2394
10495TIP3    H252977   2.581   2.655  17.208 -0.6129  0.6401  0.2452
10496TIP3   OH252978   5.085   2.712  16.069 -0.2210 -0.0698  0.2605
10496TIP3    H152979   5.036   2.793  16.050  0.6855 -0.0164 -2.2878
10496TIP3    H252980   5.111   2.680  15.983 -0.1828 -2.8878  1.2359
10497TIP3   OH252981   2.095   1.205   0.696  0.0336 -0.0564 -0.0263
10497TIP3    H152982   2.078   1.257   0.775  1.5906  1.3010 -0.5415
10497TIP3    H252983   2.124   1.120   0.730 -2.7145 -0.7374  0.8277
10498TIP3   OH252984   2.177   0.554   3.673  0.5036  0.1026 -0.3411
10498TIP3    H152985   2.139   0.608   3.742  1.3828  0.8801 -0.4529
10498TIP3    H252986   2.174   0.465   3.708  0.3216  0.4027  0.4199
10499TIP3   OH252987   0.087   2.481  16.085  0.0230 -0.4348  0.5874
10499TIP3    H152988   0.067   2.567  16.124  3.1725 -0.1138  1.7704
10499TIP3    H252989   0.165   2.496  16.032 -0.1757 -2.3208 -0.3226
10500TIP3   OH252990   3.025   1.007  17.216  0.4105 -0.4865  0.0760
10500TIP3    H152991   3.050   0.934  17.272 -0.0999  1.7644  3.5217
10500TIP3    H252992   2.929   1.004  17.215  0.4124 -0.4751 -0.6806
10501TIP3   OH252993   6.126   2.091   0.902 -0.1484  0.0056 -0.0899
10501TIP3    H152994   6.188   2.152   0.942  1.1425  0.4067 -2.5497
10501TIP3    H252995   6.166   2.005   0.915  0.0599  0.0902 -0.1673
10502TIP3   OH252996   0.198   6.346  12.864 -0.2779  0.3280 -0.0293
10502TIP3    H152997   0.160   6.276  12.811  0.5364 -2.5255  2.8593
10502TIP3    H252998   0.292   6.337  12.851 -0.1712  0.9517  0.2869
10503TIP3   OH252999   4.286   0.263  16.798  0.2928 -0.0329 -0.3116
10503TIP3    H153000   4.216   0.218  16.750 -2.1481 -0.2463  3.0467
10503TIP3    H253001   4.340   0.192  16.833 -1.2142 -0.2808  1.6853
10504TIP3   OH253002   0.178   5.018  11.360  0.3054 -0.2287 -0.2377
10504TIP3    H153003   0.255   5.023  11.303  1.6092  0.5080  1.5223
10504TIP3    H253004   0.203   5.066  11.439 -1.4950 -1.1083  0.9243
10505TIP3   OH253005   3.665   0.246  16.231 -0.2605 -0.0005  0.4863
10505TIP3    H153006   3.691   0.173  16.286  2.6083  0.0102 -0.6924
10505TIP3    H253007   3.611   0.206  16.162 -0.0431 -0.7626  0.7481
10506TIP3   OH253008   4.711   4.820   2.461  0.8554 -0.0582 -0.7438
10506TIP3    H153009   4.759   4.845   2.540  0.3322 -2.4016  0.4186
10506TIP3    H253010   4.619   4.838   2.482  0.7669 -0.1804 -1.0153
10507TIP3   OH253011   2.772   4.020   6.051 -0.5707  0.7455 -0.2438
10507TIP3    H153012   2.854   4.043   6.006  0.1109  0.4014  0.7758
10507TIP3    H253013   2.796   3.944   6.105 -1.9764 -0.3888 -1.1598
10508TIP3   OH253014   3.356   3.521  14.467  0.3589  0.3703  0.1041
10508TIP3    H153015   3.315   3.602  14.439 -1.9745 -0.3969  1.0366
10508TIP3    H253016   3.438   3.548  14.508 -0.7347  2.3569  1.1279
10509TIP3   OH253017   6.224   2.161   1.971 -0.1378  0.1718 -0.4946
10509TIP3    H153018   6.178   2.078   1.979 -1.3112  0.6688 -1.7184
10509TIP3    H253019   6.171   2.222   2.023  1.5020 -0.0755  1.6235
10510TIP3   OH253020   1.454   5.382  14.253  0.1426 -0.8333 -0.2102
10510TIP3    H153021   1.456   5.371  14.158  3.5917 -0.6665 -0.2873
10510TIP3    H253022   1.372   5.340  14.280 -0.2185 -2.2487 -3.0940
10511TIP3   OH253023   1.190   4.107   3.621  0.2032 -0.1551  0.0542
10511TIP3    H153024   1.263   4.053   3.592 -0.8305 -2.1662  1.0167
10511TIP3    H253025   1.231   4.187   3.654  2.0643 -1.6048  1.4671
10512TIP3   OH253026   4.534   5.991   5.146  0.3226 -0.0066 -0.4108
10512TIP3    H153027   4.570   6.074   5.115 -0.6932 -0.2705 -2.5207
10512TIP3    H253028   4.534   5.998   5.241 -1.5744  3.2393 -0.5138
10513TIP3   OH253029   6.258   1.103  16.308  0.8953 -0.2328  0.0899
10513TIP3    H153030   6.275   1.152  16.227  0.8613  2.1196  1.4162
10513TIP3    H253031   6.201   1.031  16.281 -0.7893  1.6511 -1.6846
10514TIP3   OH253032   0.541   0.330  15.717 -0.7219  0.5141  0.1684
10514TIP3    H153033   0.454   0.289  15.716  0.3974 -2.0339  0.3134
10514TIP3    H253034   0.539   0.392  15.644 -1.2715 -2.7366 -2.8212
10515TIP3   OH253035   5.100   3.649  14.035  0.5134 -0.5247  0.1598
10515TIP3    H153036   5.157   3.582  13.998 -0.0647  0.1674 -2.1190
10515TIP3    H253037   5.080   3.707  13.962 -0.6807  0.9722  1.5922
10516TIP3   OH253038   4.955   4.863  13.441 -0.7326  0.1917 -0.2901
10516TIP3    H153039   4.872   4.862  13.392 -0.0310 -1.5803 -1.5498
10516TIP3    H253040   4.929   4.859  13.533 -2.0963 -2.3935 -0.7013
10517TIP3   OH253041   2.650   0.719  16.862  0.2694 -0.5328 -0.0863
10517TIP3    H153042   2.692   0.725  16.776  1.0788 -0.7540  0.2821
10517TIP3    H253043   2.630   0.809  16.886  1.9394 -0.2489  0.3930
10518TIP3   OH253044   0.018   2.016   2.148  0.3866 -0.0982 -0.1002
10518TIP3    H153045   0.084   2.086   2.154 -0.4007  0.6893 -0.3835
10518TIP3    H253046   0.045   1.953   2.214 -0.3857  1.7894  2.1597
10519TIP3   OH253047   3.870   5.665  13.130  0.2164  0.0169  0.2750
10519TIP3    H153048   3.862   5.629  13.042 -0.0205  1.2786 -0.2535
10519TIP3    H253049   3.848   5.592  13.188 -2.0159 -0.2537 -0.7765
10520TIP3   OH253050   0.631   3.540  11.407  0.4092 -0.4754  0.1778
10520TIP3    H153051   0.723   3.530  11.431  0.0736 -0.9632  1.2871
10520TIP3    H253052   0.597   3.606  11.468  0.5004  1.2502 -1.5368
10521TIP3   OH253053   0.548   0.123   3.378 -0.2835  0.6685  0.3674
10521TIP3    H153054   0.553   0.215   3.351 -1.6372  1.0490  1.2673
10521TIP3    H253055   0.487   0.124   3.452  0.2512 -0.8644  0.8609
10522TIP3   OH253056   5.117   5.322  17.076 -0.1718  0.5115  0.3616
10522TIP3    H153057   5.092   5.232  17.096  1.5438  0.0267  0.5315
10522TIP3    H253058   5.142   5.360  17.160 -0.8762  1.1440  0.2885
10523TIP3   OH253059   6.356   1.514   1.230 -0.9683 -0.1721  0.2933
10523TIP3    H153060   6.401   1.452   1.288 -2.1227 -1.4018 -0.0804
10523TIP3    H253061   6.354   1.596   1.280 -2.1375 -1.2500  2.1333
10524TIP3   OH253062   6.641   3.184  16.527  0.1090  0.5856  0.3584
10524TIP3    H153063   6.680   3.240  16.460 -1.9132  0.5345 -0.9500
10524TIP3    H253064   6.683   3.211  16.609  2.3999  0.8962 -0.8397
10525TIP3   OH253065   3.157   4.179  12.156  0.3346 -0.3462  0.6848
10525TIP3    H153066   3.159   4.264  12.200  0.7383  0.4801 -0.8642
10525TIP3    H253067   3.227   4.184  12.091 -1.7436 -0.5528 -1.7240
10526TIP3   OH253068   5.892   1.386   5.208 -0.6755 -0.1744 -0.3610
10526TIP3    H153069   5.894   1.318   5.141 -1.4380  0.7541 -1.3662
10526TIP3    H253070   5.948   1.455   5.173  2.0945 -1.1686  1.7368
10527TIP3   OH253071   1.218   6.361  13.978 -0.3279  0.1207 -0.0281
10527TIP3    H153072   1.151   6.296  13.958  1.2831 -2.2447  1.6800
10527TIP3    H253073   1.260   6.378  13.894  0.1402 -2.2834 -0.3777
10528TIP3   OH253074   2.845   4.238   4.446  0.2505 -0.1937  0.0467
10528TIP3    H153075   2.891   4.171   4.395  1.2997  0.0016  0.7059
10528TIP3    H253076   2.870   4.321   4.406 -1.7131 -0.1923 -1.2984
10529TIP3   OH253077   2.326   3.888  13.505 -0.1191 -0.2944 -0.0763
10529TIP3    H153078   2.314   3.810  13.450 -0.2035  0.5962 -1.3610
10529TIP3    H253079   2.271   3.872  13.582 -0.8284 -1.1224 -0.7338
10530TIP3   OH253080   3.769   4.768  15.163  0.0152 -0.0932 -0.0349
10530TIP3    H153081   3.691   4.759  15.217 -0.8542  0.0700 -1.2044
10530TIP3    H253082   3.759   4.854  15.120  0.3466 -0.4799 -0.9173
10531TIP3   OH253083   0.507   0.779  12.392  0.0630 -0.0202 -0.4460
10531TIP3    H153084   0.539   0.695  12.424 -1.9594 -0.8865 -0.5568
10531TIP3    H253085   0.549   0.844  12.448  0.5761 -1.1877  0.5685
10532TIP3   OH253086   1.394   1.553  14.807 -0.4352 -0.4367  0.0551
10532TIP3    H153087   1.316   1.529  14.856 -1.0994  1.3115 -0.0870
10532TIP3    H253088   1.460   1.573  14.873 -0.5272 -0.5897  0.1918
10533TIP3   OH253089   0.276   3.606  12.172 -0.1705 -0.3412 -0.4229
10533TIP3    H153090   0.195   3.623  12.123 -0.4237  0.7228  0.3523
10533TIP3    H253091   0.337   3.672  12.141 -0.6652  1.0710  1.4270
10534TIP3   OH253092   1.088   1.348   1.684  0.0779  0.1146 -0.0445
10534TIP3    H153093   1.075   1.352   1.779 -0.3259  0.3621 -0.1029
10534TIP3    H253094   1.014   1.399   1.649  0.9096  1.0760 -0.4380
10535TIP3   OH253095   2.309   5.514   0.471  0.3967 -0.1081  0.3757
10535TIP3    H153096   2.232   5.503   0.415 -0.5264  0.6398  1.4733
10535TIP3    H253097   2.275   5.519   0.560  1.6269  1.1155  0.8176
10536TIP3   OH253098   2.604   3.866  12.331 -0.5905 -0.4589  0.1257
10536TIP3    H153099   2.680   3.901  12.379 -0.7368 -1.0865  0.8324
10536TIP3    H253100   2.642   3.806  12.267 -0.5331 -1.5756  1.1758
10537TIP3   OH253101   4.455   1.157  13.284 -0.3148  0.3017  0.5912
10537TIP3    H153102   4.423   1.080  13.236  1.8578 -0.7766  0.7555
10537TIP3    H253103   4.533   1.184  13.236  0.3038  0.9527  1.9125
10538TIP3   OH253104   3.305   4.462  16.803 -0.6590 -0.1154 -0.3798
10538TIP3    H153105   3.223   4.448  16.757 -1.9444  1.5205  1.2807
10538TIP3    H253106   3.352   4.527  16.751 -0.7809 -0.4054 -0.8609
10539TIP3   OH253107   2.230   4.292  17.215 -0.3589 -0.1559  0.1191
10539TIP3    H153108   2.136   4.311  17.220 -0.0464  1.5295  0.1469
10539TIP3    H253109   2.259   4.333  17.134  0.4766 -0.1066  0.4330
10540TIP3   OH253110   5.262   3.583  16.275  0.2534 -0.2986  0.1344
10540TIP3    H153111   5.224   3.504  16.312 -0.1975 -0.4367 -0.5865
10540TIP3    H253112   5.343   3.554  16.234  0.6666 -0.1750  0.8478
10541TIP3   OH253113   2.079   5.593  14.345 -0.2622 -0.3486 -0.0710
10541TIP3    H153114   2.083   5.508  14.301  2.4149  0.1913 -1.0392
10541TIP3    H253115   2.068   5.656  14.274  1.5008  0.3551  0.2545
10542TIP3   OH253116   3.835   0.161  15.288  0.1370  0.0794  0.0702
10542TIP3    H153117   3.829   0.229  15.221 -0.0510 -0.8907 -0.9247
10542TIP3    H253118   3.901   0.193  15.350 -0.6900  1.6228  0.1895
10543TIP3   OH253119   3.210   6.763   1.041  0.0669  0.2840  0.0076
10543TIP3    H153120   3.176   6.810   0.965 -1.1535  1.3484  1.1628
10543TIP3    H253121   3.256   6.830   1.092  1.2418 -0.5047  0.0046
10544TIP3   OH253122   5.369   0.398  14.405  0.3450  0.1291  0.0379
10544TIP3    H153123   5.432   0.373  14.473 -0.8998  0.2387  1.2721
10544TIP3    H253124   5.289   0.350  14.427 -0.5637  1.3535 -0.4315
10545TIP3   OH253125   3.349   0.730  13.777  0.1661 -0.4715  0.3307
10545TIP3    H153126   3.360   0.703  13.869  1.8970 -0.4242  0.1571
10545TIP3    H253127   3.380   0.654  13.727 -5.3451 -2.6791 -0.4504
10546TIP3   OH253128   3.686   3.626   0.193  0.2336 -0.1283 -0.2766
10546TIP3    H153129   3.654   3.544   0.155  1.8735 -2.0790  2.2549
10546TIP3    H253130   3.614   3.656   0.249 -0.0139 -0.2887 -0.5029
10547TIP3   OH253131   3.942   1.602  15.170 -0.2931  0.5774  0.5152
10547TIP3    H153132   3.894   1.628  15.091 -0.4781 -1.4180 -0.1065
10547TIP3    H253133   3.875   1.565  15.227  0.3387 -1.7221 -0.1266
10548TIP3   OH253134   6.795   2.295   5.028  0.4001  0.2515 -0.0954
10548TIP3    H153135   6.829   2.314   4.941  1.6933  0.2949  0.3985
10548TIP3    H253136   6.861   2.331   5.088 -0.1331 -0.3688  0.8928
10549TIP3   OH253137   3.119   4.213   3.373  0.1720  0.3081  0.4494
10549TIP3    H153138   3.119   4.263   3.292  1.1081  0.4922  0.5497
10549TIP3    H253139   3.047   4.250   3.424  0.4690  1.1591  0.2760
10550TIP3   OH253140   1.376   2.583  12.705  0.0940  0.1624 -0.1766
10550TIP3    H153141   1.424   2.665  12.699  1.8480 -0.8773 -1.2853
10550TIP3    H253142   1.389   2.554  12.795  0.8294  0.3342 -0.2223
10551TIP3   OH253143   4.296   2.849  10.226  0.4439  0.6647 -0.1127
10551TIP3    H153144   4.203   2.827  10.237  0.4053  1.6419  1.9043
10551TIP3    H253145   4.340   2.764  10.227 -0.4811  0.0083 -2.9407
10552TIP3   OH253146   3.500   6.600  13.986  0.5151  0.5422  0.5467
10552TIP3    H153147   3.546   6.518  14.003  1.9972  1.6306  2.0288
10552TIP3    H253148   3.414   6.588  14.025 -0.3375 -1.2861 -1.6881
10553TIP3   OH253149   5.786   3.468   2.770 -0.0370  0.4178 -0.0235
10553TIP3    H153150   5.750   3.552   2.801 -0.1302  0.3014  0.1903
10553TIP3    H253151   5.870   3.461   2.816  1.4385  1.8371 -2.3293
10554TIP3   OH253152   6.768   4.532  13.589  0.4760 -0.0314 -0.3281
10554TIP3    H153153   6.761   4.599  13.521 -0.7851 -0.7434 -0.9325
10554TIP3    H253154   6.754   4.450  13.543  0.0814 -0.5641  0.7237
10555TIP3   OH253155   6.685   6.622   4.440 -0.4042 -0.5018 -0.0039
10555TIP3    H153156   6.592   6.643   4.433 -0.3900 -0.7574 -1.4811
10555TIP3    H253157   6.729   6.692   4.392  0.1598 -0.4516  0.5723
10556TIP3   OH253158   5.673   2.437  12.891 -0.0210  0.3980 -0.1855
10556TIP3    H153159   5.595   2.388  12.916  1.0380 -1.1573  0.2413
10556TIP3    H253160   5.723   2.375  12.837  1.5499  0.8576  0.7058
10557TIP3   OH253161   2.553   6.656   3.784 -0.1536 -0.1945 -0.4526
10557TIP3    H153162   2.561   6.566   3.814  0.3252  0.2623  0.8667
10557TIP3    H253163   2.559   6.709   3.864 -2.6181  0.9257 -0.8940
10558TIP3   OH253164   6.358   1.386  12.453  0.2031  0.0330  0.2328
10558TIP3    H153165   6.391   1.335  12.527  0.5310 -0.7961 -0.4684
10558TIP3    H253166   6.431   1.388  12.391  0.2205  1.4150  0.2597
10559TIP3   OH253167   3.350   1.670   6.620  0.0206  0.3300  0.0984
10559TIP3    H153168   3.375   1.626   6.538  1.7940 -1.5188  1.5225
10559TIP3    H253169   3.262   1.637   6.639 -0.5746  1.0775 -1.2005
10560TIP3   OH253170   4.556   3.045  13.089 -0.4469  0.1128  0.4982
10560TIP3    H153171   4.603   3.060  13.007 -0.8536  1.7225  0.5245
10560TIP3    H253172   4.466   3.028  13.063 -0.1510 -1.6848  0.5198
10561TIP3   OH253173   2.315   0.725   2.080  0.2177  0.5483  0.8574
10561TIP3    H153174   2.346   0.641   2.115 -0.3541 -0.2804 -0.5595
10561TIP3    H253175   2.224   0.731   2.109  0.4146  0.9407  1.4053
10562TIP3   OH253176   5.962   5.757  15.184  0.1529 -0.0464  0.7766
10562TIP3    H153177   5.958   5.806  15.266 -2.7588  1.5302 -0.1743
10562TIP3    H253178   6.037   5.794  15.138  1.7278 -0.8312  2.5547
10563TIP3   OH253179   2.965   0.957  11.956 -0.2724 -0.5130  0.1159
10563TIP3    H153180   2.967   1.021  12.027 -0.3220  0.6154 -0.8839
10563TIP3    H253181   2.980   0.873  12.000  0.0332  0.1926  1.4127
10564TIP3   OH253182   4.910   6.134   3.306  0.4868 -0.0408 -0.5429
10564TIP3    H153183   4.826   6.159   3.267 -0.2584  1.3560  1.7477
10564TIP3    H253184   4.968   6.208   3.289  1.2524 -0.9010 -1.9098
10565TIP3   OH253185   2.778   5.218  15.216  0.1120 -0.2800  0.2998
10565TIP3    H153186   2.775   5.140  15.270 -2.1528 -0.7745 -0.4627
10565TIP3    H253187   2.866   5.254  15.231  1.4503 -3.2339  0.2509
10566TIP3   OH253188   6.642   6.172  12.748 -0.0278  0.0792 -0.2820
10566TIP3    H153189   6.686   6.094  12.781  0.9629 -0.2343 -2.1778
10566TIP3    H253190   6.603   6.144  12.665  0.3242  1.5619 -0.9819
10567TIP3   OH253191   3.817   3.873  16.840  0.1030  0.1829 -0.3543
10567TIP3    H153192   3.826   3.787  16.800 -0.1915 -0.4499  0.8943
10567TIP3    H253193   3.735   3.908  16.803 -0.0881 -0.3263 -0.4174
10568TIP3   OH253194   4.216   4.893  11.187  0.0805  0.0848 -0.2003
10568TIP3    H153195   4.207   4.988  11.201 -0.2777  0.0254 -0.0291
10568TIP3    H253196   4.177   4.878  11.101  0.7868  0.1964 -0.5530
10569TIP3   OH253197   5.748   6.052   5.803 -0.2324  0.8505  0.3994
10569TIP3    H153198   5.841   6.030   5.804 -0.1389  1.2390  0.3102
10569TIP3    H253199   5.703   5.970   5.825  0.0804  0.3751 -0.6733
10570TIP3   OH253200   0.552   3.317  15.503  0.4579 -0.2946 -0.1088
10570TIP3    H153201   0.572   3.357  15.587 -0.6747  1.0141 -0.4189
10570TIP3    H253202   0.624   3.343  15.445  0.6428 -0.2094  0.1612
10571TIP3   OH253203   6.286   5.593  15.545  0.1978 -0.2608  0.7478
10571TIP3    H153204   6.322   5.531  15.480 -0.1287  1.1910 -0.9028
10571TIP3    H253205   6.220   5.542  15.592  0.1910 -1.2868 -0.3048
10572TIP3   OH253206   2.547   2.399  10.566 -0.2432  0.5637  0.4926
10572TIP3    H153207   2.568   2.363  10.479 -0.8252  1.5639 -0.0851
10572TIP3    H253208   2.503   2.327  10.612  0.8983 -0.2800  0.3117
10573TIP3   OH253209   5.853   4.336   2.325 -0.3064  0.3645 -0.1251
10573TIP3    H153210   5.935   4.288   2.313 -1.2701 -1.4334  0.0905
10573TIP3    H253211   5.876   4.409   2.382  0.6698 -1.6004  2.1689
10574TIP3   OH253212   5.800   0.708   2.110 -0.3459  0.6987 -0.2526
10574TIP3    H153213   5.814   0.708   2.015 -0.0273 -0.2488 -0.2087
10574TIP3    H253214   5.861   0.774   2.143 -1.3319  1.9546 -0.8086
10575TIP3   OH253215   0.565   1.292   5.173  0.1489 -0.1415  0.2603
10575TIP3    H153216   0.568   1.385   5.193  0.1473  0.1070 -0.8114
10575TIP3    H253217   0.513   1.253   5.243  0.6229  0.5722  1.0211
10576TIP3   OH253218   1.171   6.611   3.947 -0.0680  0.1867  0.3212
10576TIP3    H153219   1.139   6.588   3.860 -1.0995 -0.1642  0.7739
10576TIP3    H253220   1.248   6.556   3.960 -0.3531 -0.3106 -0.0755
10577TIP3   OH253221   2.923   3.650   0.439  0.1026 -0.2410 -0.3887
10577TIP3    H153222   2.944   3.724   0.381 -0.6420  0.4721  0.2233
10577TIP3    H253223   2.923   3.688   0.527 -1.1810 -0.7618 -0.1414
10578TIP3   OH253224   0.295   3.117   0.098  0.1832  0.4764  0.2531
10578TIP3    H153225   0.385   3.116   0.065  0.2980 -0.1078  0.5659
10578TIP3    H253226   0.298   3.179   0.171  0.4096  0.2138  0.4701
10579TIP3   OH253227   4.954   3.317  14.098 -0.6816  0.3318  0.0839
10579TIP3    H153228   4.975   3.295  14.188 -0.9394  0.1692  0.1049
10579TIP3    H253229   4.866   3.283  14.085  0.5743 -2.7927 -1.2983
10580TIP3   OH253230   1.806   2.394   6.039  0.4846  0.2110  0.3716
10580TIP3    H153231   1.854   2.477   6.034 -0.6463  0.8439 -0.5388
10580TIP3    H253232   1.831   2.347   5.960  0.7314 -0.0985  0.6322
10581TIP3   OH253233   4.981   1.502   4.106  0.3966  0.7395 -0.0885
10581TIP3    H153234   5.010   1.594   4.102  0.5669  0.6533 -1.5383
10581TIP3    H253235   4.943   1.486   4.020 -1.3821 -0.0148  0.7975
10582TIP3   OH253236   2.669   1.443  14.335  0.1543 -0.0186 -0.1227
10582TIP3    H153237   2.713   1.477  14.413 -0.6143  0.1437  0.2459
10582TIP3    H253238   2.736   1.391  14.290  0.0044 -2.0552  1.8308
10583TIP3   OH253239   3.660   1.530   4.294  0.0482 -0.1773 -0.3667
10583TIP3    H153240   3.611   1.507   4.373  2.3419 -1.1656  0.8480
10583TIP3    H253241   3.679   1.623   4.303 -0.8618  0.0276 -0.4636
10584TIP3   OH253242   6.458   3.365  16.669 -0.2929  0.5682 -0.2136
10584TIP3    H153243   6.408   3.289  16.637  0.7176 -0.6080  0.8896
10584TIP3    H253244   6.546   3.353  16.632 -0.2017  1.3997 -0.2949
10585TIP3   OH253245   5.997   5.059   0.295 -0.3368  0.0345  0.3874
10585TIP3    H153246   6.076   5.029   0.340 -0.4133  0.3804  0.7615
10585TIP3    H253247   6.015   5.151   0.274 -0.6161  0.0966  0.4181
10586TIP3   OH253248   3.134   5.586  17.059 -0.5471 -0.3581  0.9777
10586TIP3    H153249   3.106   5.543  17.140 -0.4648 -2.7763 -0.1746
10586TIP3    H253250   3.056   5.585  17.004  0.1957 -1.7769 -0.1206
10587TIP3   OH253251   3.065   2.865   3.820  0.4126  0.3093  0.0427
10587TIP3    H153252   3.158   2.854   3.800  0.5025 -0.6043  0.8659
10587TIP3    H253253   3.032   2.925   3.753  1.0402 -1.3153 -1.8220
10588TIP3   OH253254   4.208   4.472   0.191  0.4663  0.1571 -0.1891
10588TIP3    H153255   4.187   4.545   0.133  0.5652  0.6469  0.3895
10588TIP3    H253256   4.279   4.504   0.245 -0.5903  0.2346  1.2062
10589TIP3   OH253257   0.449   2.988   2.200 -0.5922  0.5044 -0.0167
10589TIP3    H153258   0.478   2.994   2.109 -1.9508  1.4007 -0.4181
10589TIP3    H253259   0.396   2.908   2.203 -1.9936  1.3661 -0.4872
10590TIP3   OH253260   2.728   2.582  11.338 -0.0848 -0.3522 -0.1598
10590TIP3    H153261   2.647   2.541  11.370  0.6952 -1.6573  0.1932
10590TIP3    H253262   2.722   2.575  11.243 -0.9468  0.6984 -0.2082
10591TIP3   OH253263   3.823   5.810   6.718 -0.2123  0.7333  0.4624
10591TIP3    H153264   3.740   5.762   6.715  0.3074 -0.3188  1.7016
10591TIP3    H253265   3.815   5.877   6.650 -1.5129 -0.2500 -0.4052
10592TIP3   OH253266   4.061   6.106   0.430 -0.5849 -0.0388 -0.4580
10592TIP3    H153267   4.040   6.037   0.492  0.3081  0.7093  0.7218
10592TIP3    H253268   4.020   6.184   0.467 -1.1086  0.1908 -1.4821
10593TIP3   OH253269   1.808   3.342  15.542  0.0353  0.3257 -0.2710
10593TIP3    H153270   1.759   3.301  15.614 -0.2031  1.9718  0.5666
10593TIP3    H253271   1.899   3.340  15.572  0.4263 -1.9038 -1.4174
10594TIP3   OH253272   2.493   4.426  13.916 -0.3521 -0.6873 -0.3626
10594TIP3    H153273   2.547   4.355  13.883 -1.0634 -1.1887 -0.4653
10594TIP3    H253274   2.555   4.495  13.939  0.4194 -1.6653  0.5825
10595TIP3   OH253275   5.851   6.075  15.610  0.1825 -0.2893  0.1118
10595TIP3    H153276   5.919   6.014  15.638  0.1671  0.5369  2.1202
10595TIP3    H253277   5.895   6.132  15.547  1.1941 -0.1351  0.9316
10596TIP3   OH253278   5.492   2.261   1.145  0.4130  0.1581 -0.7444
10596TIP3    H153279   5.458   2.335   1.194 -1.6177 -1.7555  0.9955
10596TIP3    H253280   5.554   2.219   1.205 -1.1798 -1.5163 -0.1521
10597TIP3   OH253281   0.965   5.623  12.347 -0.3506  0.0534  0.7218
10597TIP3    H153282   0.895   5.589  12.291 -1.3745  0.4310  1.7401
10597TIP3    H253283   1.045   5.589  12.308 -0.8886  1.4814 -1.8155
10598TIP3   OH253284   3.589   6.440  15.175 -0.3539  0.5413 -0.0129
10598TIP3    H153285   3.680   6.463  15.198 -0.5240  1.8029 -0.5500
10598TIP3    H253286   3.591   6.423  15.081 -0.1191 -2.3893  0.4218
10599TIP3   OH253287   1.998   4.224   3.964 -0.4679  0.1576 -0.2637
10599TIP3    H153288   1.945   4.163   3.913 -1.5437 -0.0405  1.0574
10599TIP3    H253289   2.082   4.228   3.916 -1.1020 -0.7272 -1.5107
10600TIP3   OH253290   3.153   1.231   5.029 -0.1573  0.5494  0.0052
10600TIP3    H153291   3.065   1.260   5.005  0.2955  0.8674 -1.3790
10600TIP3    H253292   3.139   1.158   5.089 -1.3815 -0.1479 -1.0849
10601TIP3   OH253293   4.659   1.985   1.141 -0.0955 -0.0265  0.2938
10601TIP3    H153294   4.628   2.024   1.060  0.3211 -0.0185  0.1342
10601TIP3    H253295   4.588   1.927   1.169  0.4267 -1.3361 -0.9600
10602TIP3   OH253296   0.376   4.816  12.428 -0.4138 -0.0608 -0.2081
10602TIP3    H153297   0.444   4.753  12.405 -0.0348  0.0479  0.5765
10602TIP3    H253298   0.364   4.806  12.523  0.2607  1.6086  0.1027
10603TIP3   OH253299   3.576   4.521  14.578  0.4084 -0.7172 -0.6266
10603TIP3    H153300   3.581   4.598  14.635  3.5065 -2.1524  1.3347
10603TIP3    H253301   3.512   4.464  14.620 -0.0712 -0.2469 -0.7087
10604TIP3   OH253302   4.112   2.353   5.112  0.0803 -0.2047 -0.2001
10604TIP3    H153303   4.184   2.290   5.115  0.3670  0.1519  2.3848
10604TIP3    H253304   4.089   2.358   5.019  1.1739 -2.7946 -0.6961
10605TIP3   OH253305   0.850   2.165   0.691 -0.9165  0.8832  0.6764
10605TIP3    H153306   0.842   2.245   0.742  1.3622  2.0714 -0.6728
10605TIP3    H253307   0.894   2.104   0.751  1.7026  2.2462  0.2639
10606TIP3   OH253308   3.872   0.252   1.617  0.0380  0.3203 -0.0127
10606TIP3    H153309   3.822   0.307   1.557 -0.0187 -0.0020 -0.2670
10606TIP3    H253310   3.930   0.201   1.560 -0.0127  0.0157  0.2052
10607TIP3   OH253311   1.978   5.560   2.344 -0.0733  0.0169 -0.6760
10607TIP3    H153312   2.041   5.488   2.338 -0.4196 -0.2140 -1.9717
10607TIP3    H253313   1.932   5.546   2.427 -0.7195 -1.7825 -1.2904
10608TIP3   OH253314   0.544   2.372   0.757  0.5056 -0.1311 -0.7792
10608TIP3    H153315   0.509   2.460   0.764  0.5494 -0.2173  1.2836
10608TIP3    H253316   0.601   2.373   0.680 -0.2433  1.3504 -1.3313
10609TIP3   OH253317   0.190   2.929  17.041  0.0242  0.3176 -0.1559
10609TIP3    H153318   0.197   2.951  16.948 -0.9036  0.1522 -0.2664
10609TIP3    H253319   0.224   3.007  17.086 -1.4252  1.2292 -0.5950
10610TIP3   OH253320   1.369   6.490  16.667  0.0446  0.2327 -0.4072
10610TIP3    H153321   1.338   6.405  16.636  0.1554  0.3120 -0.7413
10610TIP3    H253322   1.420   6.525  16.594 -0.1919  0.6847 -0.3602
10611TIP3   OH253323   1.963   6.015   6.555  0.1078 -0.0985 -0.0760
10611TIP3    H153324   1.928   5.962   6.483  0.2960 -0.0997 -0.1686
10611TIP3    H253325   1.912   5.989   6.632 -1.2068  1.0923 -0.5233
10612TIP3   OH253326   1.913   1.806   1.071  0.1141 -0.3709  0.0719
10612TIP3    H153327   1.860   1.731   1.098  0.3893  0.0738  2.0144
10612TIP3    H253328   1.885   1.877   1.128  0.7729  0.6654 -0.8551
10613TIP3   OH253329   0.520   2.405  15.688 -0.0778  0.1134  0.4974
10613TIP3    H153330   0.447   2.387  15.748  1.0381  1.4074  2.3339
10613TIP3    H253331   0.484   2.469  15.626 -1.0848 -0.8193  0.0818
10614TIP3   OH253332   2.097   3.635  12.889 -0.0909 -0.2978  0.0456
10614TIP3    H153333   2.060   3.618  12.975  0.1272 -0.6502  0.0710
10614TIP3    H253334   2.123   3.727  12.891  0.4134 -0.4496  0.5378
10615TIP3   OH253335   0.205   6.750  16.970  0.3521 -0.4115  0.0314
10615TIP3    H153336   0.163   6.828  16.932 -0.1247 -0.6724  0.0187
10615TIP3    H253337   0.266   6.785  17.035 -1.6076 -0.0833  1.8064
10616TIP3   OH253338   5.389   2.703  14.288  0.3383  0.4398  0.5519
10616TIP3    H153339   5.464   2.707  14.229  0.7270 -0.0555  1.0057
10616TIP3    H253340   5.412   2.761  14.360  0.5204 -0.1162  0.9498
10617TIP3   OH253341   5.480   4.941   4.686  0.1667 -0.0934  0.2597
10617TIP3    H153342   5.387   4.919   4.698  0.1814  0.7173  2.4665
10617TIP3    H253343   5.480   5.016   4.626 -0.5446 -0.5301 -0.2993
10618TIP3   OH253344   1.719   3.501   0.868 -0.5415  0.4392 -0.1694
10618TIP3    H153345   1.746   3.447   0.942 -2.0712  0.6291  0.5844
10618TIP3    H253346   1.756   3.588   0.887  0.7014  0.0286 -0.6431
10619TIP3   OH253347   1.649   6.543  13.949 -0.7136 -0.1832  0.3271
10619TIP3    H153348   1.635   6.477  13.881 -2.2560 -0.9498  1.3336
10619TIP3    H253349   1.701   6.611  13.906 -0.2697 -1.3946 -1.1391
10620TIP3   OH253350   3.025   5.395   5.441  0.4165 -0.1222 -0.7055
10620TIP3    H153351   3.060   5.316   5.482  0.3931 -1.1082 -2.4914
10620TIP3    H253352   3.014   5.456   5.513  0.5857 -1.6886  0.7112
10621TIP3   OH253353   5.701   1.775  16.974 -0.4970  0.5282 -0.0065
10621TIP3    H153354   5.656   1.858  16.989 -0.8114 -0.1002  3.2880
10621TIP3    H253355   5.794   1.798  16.970 -0.6481  1.1353 -0.1009
10622TIP3   OH253356   6.626   0.325  15.684  0.4695 -0.4546  0.4178
10622TIP3    H153357   6.677   0.406  15.675  0.8121 -0.7840 -0.8263
10622TIP3    H253358   6.538   0.349  15.656 -0.4727  0.4173  3.6772
10623TIP3   OH253359   1.561   1.596  16.986  0.7548 -0.2248 -0.1954
10623TIP3    H153360   1.562   1.518  16.931  0.5318 -0.3277 -0.0560
10623TIP3    H253361   1.471   1.629  16.979  0.9439  0.2231 -0.5359
10624TIP3   OH253362   4.319   2.656   3.435 -0.1581  0.1524 -0.3778
10624TIP3    H153363   4.298   2.565   3.412 -1.2485 -0.3953  2.3923
10624TIP3    H253364   4.242   2.688   3.480 -0.0699  2.7765 -1.9117
10625TIP3   OH253365   2.790   6.406  13.611  0.3785  0.9743  0.2946
10625TIP3    H153366   2.812   6.314  13.598  1.6078  1.5263 -2.3316
10625TIP3    H253367   2.697   6.406  13.633  0.0257 -0.8324 -0.9703
10626TIP3   OH253368   0.183   3.097  11.849  0.1525 -0.6354  0.1628
10626TIP3    H153369   0.265   3.124  11.890 -0.0093 -1.1491  0.8438
10626TIP3    H253370   0.124   3.171  11.863  0.2403 -0.6162  0.4359
10627TIP3   OH253371   1.342   4.230  15.507  0.3108 -0.5819 -0.0393
10627TIP3    H153372   1.382   4.304  15.463  0.7500  0.4089  1.9147
10627TIP3    H253373   1.289   4.268  15.577 -2.7082 -1.9391 -1.3790
10628TIP3   OH253374   5.652   3.584  16.339  0.0950  0.2333 -0.1169
10628TIP3    H153375   5.741   3.550  16.348  0.1896  0.7883  1.3566
10628TIP3    H253376   5.606   3.551  16.416 -1.0190 -0.1397 -0.9219
10629TIP3   OH253377   4.188   4.733  14.690  0.6868 -0.2147  0.1835
10629TIP3    H153378   4.163   4.751  14.781  0.9266 -1.0157  0.4191
10629TIP3    H253379   4.276   4.697  14.696  0.4541 -0.8823 -0.3083
10630TIP3   OH253380   6.258   5.123  15.744 -0.0464 -0.1858  0.1765
10630TIP3    H153381   6.214   5.038  15.736  1.3704 -0.8599 -0.8763
10630TIP3    H253382   6.348   5.100  15.767 -0.0712  1.1339  1.7144
10631TIP3   OH253383   5.248   4.995  16.521 -0.2361 -0.6902  0.5274
10631TIP3    H153384   5.248   4.913  16.471 -1.7656 -0.4027 -0.0243
10631TIP3    H253385   5.320   4.986  16.583  1.1146 -1.4839 -1.0648
10632TIP3   OH253386   0.140   3.544  16.521 -0.1653 -0.4844 -0.1762
10632TIP3    H153387   0.161   3.475  16.583 -1.1510  0.9765  1.8843
10632TIP3    H253388   0.218   3.600  16.521 -0.9068  0.6159  1.3772
10633TIP3   OH253389   5.203   0.336  13.609  0.1439 -0.3707 -0.7648
10633TIP3    H153390   5.112   0.365  13.606 -0.4411 -2.1636 -1.5416
10633TIP3    H253391   5.251   0.403  13.561 -0.4431  1.5419  1.1617
10634TIP3   OH253392   0.432   0.376   4.269 -0.0290  0.1355  0.0788
10634TIP3    H153393   0.363   0.427   4.226  1.1087 -0.3088 -2.4780
10634TIP3    H253394   0.507   0.435   4.272  0.4233 -0.4167 -0.1813
10635TIP3   OH253395   0.902   6.259  12.201  0.3443  0.0630  0.2881
10635TIP3    H153396   0.956   6.291  12.273 -0.8412  0.6414  0.9427
10635TIP3    H253397   0.839   6.328  12.185  0.1353 -0.3639 -0.8443
10636TIP3   OH253398   0.698   3.715   6.070 -0.4818  0.3982  0.1769
10636TIP3    H153399   0.666   3.803   6.089  0.2316  0.1314  3.0511
10636TIP3    H253400   0.635   3.679   6.008 -2.0122  2.1600  0.6466
10637TIP3   OH253401   5.458   0.675  15.883  0.2906 -0.2079 -0.7894
10637TIP3    H153402   5.396   0.655  15.953  0.9133 -0.2455 -0.2421
10637TIP3    H253403   5.427   0.759  15.848 -0.4431 -0.5381 -0.9611
10638TIP3   OH253404   3.509   6.200  15.358 -0.2452  0.1813  0.3789
10638TIP3    H153405   3.556   6.238  15.284  2.7085 -0.8688  1.5426
10638TIP3    H253406   3.503   6.107  15.337  0.9458 -0.1964  1.5063
10639TIP3   OH253407   3.975   0.146  13.758 -0.0900  0.2607  0.0871
10639TIP3    H153408   3.941   0.098  13.682 -0.0566 -0.7457  0.6914
10639TIP3    H253409   4.051   0.095  13.786  1.9769  2.4244 -1.1989
10640TIP3   OH253410   1.188   5.554  14.883 -0.1724 -0.7899 -0.2702
10640TIP3    H153411   1.154   5.566  14.795  0.8541 -2.2798 -0.9033
10640TIP3    H253412   1.241   5.474  14.879  1.2871  0.0045  1.2631
10641TIP3   OH253413   1.340   3.451   1.771  0.2155  0.2395 -0.5745
10641TIP3    H153414   1.370   3.389   1.838 -0.5437 -0.4097 -0.8221
10641TIP3    H253415   1.419   3.500   1.748  0.1068  2.0647  2.3797
10642TIP3   OH253416   4.924   1.760  11.906  0.2372 -0.0734  0.0302
10642TIP3    H153417   4.953   1.806  11.984 -2.2815  0.8875  0.5068
10642TIP3    H253418   4.877   1.684  11.939  0.8596 -0.7617 -0.6393
10643TIP3   OH253419   5.819   3.970   3.529 -0.4469  0.2348 -0.5545
10643TIP3    H153420   5.842   3.906   3.596  0.2518  0.8090 -0.2246
10643TIP3    H253421   5.739   3.937   3.490  0.4999 -1.4226 -1.1762
10644TIP3   OH253422   4.113   5.755  16.786 -0.1650 -0.1823  1.0351
10644TIP3    H153423   4.131   5.753  16.880  1.2464  2.5201  0.9464
10644TIP3    H253424   4.023   5.787  16.779  0.4939  1.9858  1.5543
10645TIP3   OH253425   6.030   1.506  11.028 -0.1262 -0.0803  0.4870
10645TIP3    H153426   5.940   1.528  11.003 -0.6428 -1.2699  1.2487
10645TIP3    H253427   6.021   1.442  11.098  1.3250 -0.6605  0.1762
10646TIP3   OH253428   4.014   5.902   2.561  0.0946 -0.0167 -0.1689
10646TIP3    H153429   3.995   5.980   2.614  0.6349  0.0112 -0.0053
10646TIP3    H253430   3.991   5.829   2.618 -0.0114  0.0218 -0.1627
10647TIP3   OH253431   5.281   6.234  16.742  0.1774  0.6408  0.1164
10647TIP3    H153432   5.195   6.194  16.749  0.1569  0.9702  2.5893
10647TIP3    H253433   5.266   6.327  16.762  1.0746  0.7466  0.3348
10648TIP3   OH253434   0.200   4.083   2.124 -0.3129  0.2141  0.4298
10648TIP3    H153435   0.152   4.096   2.042  1.1507  0.9879 -0.3337
10648TIP3    H253436   0.291   4.069   2.097  0.4020  1.5758  1.9478
10649TIP3   OH253437   3.640   5.403   5.997  0.6349 -0.2678 -0.2290
10649TIP3    H153438   3.706   5.342   5.965  0.1916 -0.4747 -0.7706
10649TIP3    H253439   3.588   5.352   6.059  0.3876 -0.3900 -0.5327
10650TIP3   OH253440   1.606   4.311   5.923  0.2931  0.1745 -0.0604
10650TIP3    H153441   1.529   4.295   5.868  1.1715 -3.5057 -0.4392
10650TIP3    H253442   1.571   4.316   6.012 -0.5553  0.1122 -0.3816
10651TIP3   OH253443   1.161   1.696   2.486 -0.0069  0.2531 -0.5833
10651TIP3    H153444   1.190   1.610   2.454 -2.4484 -1.5359  1.5650
10651TIP3    H253445   1.205   1.705   2.571 -1.9054 -0.2873  0.5127
10652TIP3   OH253446   1.458   0.724  10.835 -0.1959 -0.5081  0.0868
10652TIP3    H153447   1.404   0.706  10.911  0.3957 -2.4986  0.0826
10652TIP3    H253448   1.397   0.731  10.762 -0.6496  0.0876  0.5136
10653TIP3   OH253449   0.980   1.944  17.296 -0.1658  0.2775 -0.5457
10653TIP3    H153450   1.069   1.916  17.321  0.0198 -0.6430 -2.1138
10653TIP3    H253451   0.992   2.031  17.259  0.1541  0.0209 -1.0651
10654TIP3   OH253452   3.009   4.882  12.441  0.1345  0.6162  0.4814
10654TIP3    H153453   2.929   4.912  12.484 -0.0497  0.0029  0.5747
10654TIP3    H253454   2.978   4.825  12.370  0.5153 -0.6145  1.2770
10655TIP3   OH253455   4.584   0.279   1.193 -0.0107 -0.0118  0.1440
10655TIP3    H153456   4.674   0.300   1.169 -0.7122 -0.1190 -3.0264
10655TIP3    H253457   4.536   0.360   1.180 -0.7690 -0.5751 -0.7017
10656TIP3   OH253458   0.011   1.609  14.078  0.1920  0.3503  0.5585
10656TIP3    H153459   0.038   1.698  14.099  0.2499  0.1174  1.5347
10656TIP3    H253460   0.065   1.554  14.135  1.6275 -0.4466 -1.4652
10657TIP3   OH253461   1.868   3.486   0.436  0.0653 -0.2727  0.2370
10657TIP3    H153462   1.884   3.396   0.463  0.4055 -0.2817  0.0212
10657TIP3    H253463   1.932   3.501   0.366  0.4428  0.3315  0.6951
10658TIP3   OH253464   4.968   2.637   2.799  0.1500  0.6038 -0.1746
10658TIP3    H153465   4.975   2.730   2.781 -0.3624  1.3416  2.9334
10658TIP3    H253466   4.875   2.617   2.785  0.7815 -0.3731 -4.1873
10659TIP3   OH253467   1.651   2.613  16.189  0.0660 -0.7324 -0.2281
10659TIP3    H153468   1.588   2.670  16.233  1.3195  0.8628 -0.3870
10659TIP3    H253469   1.639   2.528  16.230 -2.4875 -0.6315 -0.5775
10660TIP3   OH253470   5.780   5.670   4.981 -0.2651 -0.4819  0.5220
10660TIP3    H153471   5.831   5.745   5.010 -1.7883  0.8280  0.0152
10660TIP3    H253472   5.765   5.618   5.060 -2.5264  1.8842  1.8095
10661TIP3   OH253473   2.687   5.615   6.365  0.1336 -0.0937  0.8937
10661TIP3    H153474   2.740   5.694   6.366 -0.2580  0.1709  1.0869
10661TIP3    H253475   2.612   5.636   6.420  0.2368 -0.7467  1.2963
10662TIP3   OH253476   2.118   6.638   3.349 -0.1898  0.7146 -0.5188
10662TIP3    H153477   2.181   6.570   3.324 -0.2750  0.6649 -0.5993
10662TIP3    H253478   2.050   6.634   3.281 -0.3182  0.7166 -0.3892
10663TIP3   OH253479   5.934   2.627  14.175 -0.1870 -0.2219  0.0549
10663TIP3    H153480   5.902   2.537  14.182  0.7647 -0.5410  0.4740
10663TIP3    H253481   5.983   2.641  14.255  2.4168 -0.4698 -1.3867
10664TIP3   OH253482   4.662   5.854  15.938  0.5938  0.1976  0.5568
10664TIP3    H153483   4.614   5.850  16.021  1.2761  1.6078  1.0489
10664TIP3    H253484   4.607   5.806  15.876  1.7225 -4.1590  2.5194
10665TIP3   OH253485   1.641   1.687  14.645  0.8466  0.1652 -0.3233
10665TIP3    H153486   1.560   1.648  14.678  0.0733  1.9253 -0.0115
10665TIP3    H253487   1.708   1.659  14.708  0.5710 -1.5526 -0.7462
10666TIP3   OH253488   3.719   6.647   0.653 -0.0919  0.3233 -0.0967
10666TIP3    H153489   3.810   6.648   0.623 -0.5273 -0.3014 -1.5000
10666TIP3    H253490   3.673   6.592   0.590 -2.0083  2.8348 -1.0837
10667TIP3   OH253491   1.845   3.587   2.117  0.0397 -0.3888  0.3286
10667TIP3    H153492   1.794   3.653   2.071  0.3810 -0.8834 -0.8017
10667TIP3    H253493   1.786   3.512   2.124  0.4005 -0.7465 -0.4254
10668TIP3   OH253494   3.052   3.528  13.595  0.4263 -0.1974 -0.3034
10668TIP3    H153495   3.085   3.491  13.677  2.0372 -0.9119 -1.2311
10668TIP3    H253496   3.034   3.452  13.540 -4.2882 -0.0071  0.5455
10669TIP3   OH253497   4.645   3.613   4.973 -0.1452  0.4944  0.6570
10669TIP3    H153498   4.604   3.537   4.933 -0.4442  1.3097 -0.6457
10669TIP3    H253499   4.716   3.638   4.914  0.5783  0.6605  1.5635
10670TIP3   OH253500   1.477   0.159  14.471 -0.3869  0.0673  0.0237
10670TIP3    H153501   1.443   0.226  14.531 -0.5507  1.6341 -1.7205
10670TIP3    H253502   1.568   0.185  14.456  0.5491 -1.9376  1.6998
10671TIP3   OH253503   1.430   1.356   6.160  0.1795 -0.5653 -0.1394
10671TIP3    H153504   1.375   1.424   6.121 -0.0466  0.8612  2.4209
10671TIP3    H253505   1.367   1.294   6.198  0.2525  0.4059  1.6935
10672TIP3   OH253506   1.164   1.730  12.878 -0.0977 -0.4361  0.1862
10672TIP3    H153507   1.110   1.652  12.867  1.6657 -1.6737 -0.0827
10672TIP3    H253508   1.243   1.698  12.923  0.7696  1.1388 -0.1585
10673TIP3   OH253509   2.135   6.722  12.540 -0.2708 -0.1043 -0.3004
10673TIP3    H153510   2.127   6.817  12.550 -2.4183 -0.3430  0.9514
10673TIP3    H253511   2.222   6.702  12.574  0.2558  1.4129 -0.6691
10674TIP3   OH253512   6.376   1.657  11.712  1.0995  0.1912  0.4056
10674TIP3    H153513   6.326   1.688  11.789  1.5497 -0.2538  0.8851
10674TIP3    H253514   6.452   1.715  11.709  1.2394  0.0104  0.4804
10675TIP3   OH253515   4.000   1.655   5.345 -0.0165 -0.0695  0.1696
10675TIP3    H153516   4.030   1.725   5.286 -0.7939  0.4744  0.4120
10675TIP3    H253517   3.920   1.689   5.385 -0.1445 -0.9096  0.6566
10676TIP3   OH253518   2.650   5.697   1.461 -0.2451  0.1330 -0.3245
10676TIP3    H153519   2.610   5.678   1.546  0.0844 -0.4422 -0.2925
10676TIP3    H253520   2.589   5.660   1.397 -0.3155  0.2474 -0.3238
10677TIP3   OH253521   1.462   1.104  13.552  0.1892 -0.1244 -0.2907
10677TIP3    H153522   1.440   1.112  13.459 -0.5133  2.4174  0.0121
10677TIP3    H253523   1.440   1.189  13.589  1.3568 -0.7484  2.0424
10678TIP3   OH253524   6.241   5.416   5.291 -0.4212  0.5910 -0.2380
10678TIP3    H153525   6.176   5.381   5.352 -0.2496  0.5662 -0.0715
10678TIP3    H253526   6.319   5.362   5.304 -0.1957  0.9542 -0.0686
10679TIP3   OH253527   2.450   1.104   1.466 -0.6903 -0.1527 -0.0049
10679TIP3    H153528   2.479   1.052   1.541  0.0615  0.8195  0.3887
10679TIP3    H253529   2.367   1.142   1.493 -0.0545  0.8063  0.6338
10680TIP3   OH253530   3.926   2.006  15.068  0.9154 -1.0372 -0.0714
10680TIP3    H153531   4.000   2.067  15.072  0.2376 -0.2349  1.8037
10680TIP3    H253532   3.928   1.962  15.154  1.5886 -4.0051 -1.4694
10681TIP3   OH253533   0.695   0.203   2.216  0.6916 -0.2195  0.0814
10681TIP3    H153534   0.730   0.285   2.182  1.3796 -1.3470 -2.1454
10681TIP3    H253535   0.615   0.188   2.164  0.2418 -0.6519  0.8843
10682TIP3   OH253536   6.460   1.412   1.685 -0.1189  0.4434  0.5446
10682TIP3    H153537   6.390   1.363   1.641  0.7855 -1.0168  0.6795
10682TIP3    H253538   6.497   1.350   1.747  0.9379  1.3747  0.8635
10683TIP3   OH253539   0.627   6.821  13.164  0.9157  0.8368 -0.8305
10683TIP3    H153540   0.566   6.895  13.157  1.5975  1.2813 -3.1127
10683TIP3    H253541   0.662   6.811  13.075  1.6005 -1.6129 -0.3541
10684TIP3   OH253542   3.234   4.119   4.895 -0.1849 -0.4129  0.2841
10684TIP3    H153543   3.326   4.095   4.908  0.1167  0.4059 -0.2687
10684TIP3    H253544   3.236   4.213   4.877 -0.9348 -0.7584 -1.8007
10685TIP3   OH253545   6.741   1.616  15.448  0.5472 -0.0304  0.3610
10685TIP3    H153546   6.822   1.665  15.459 -0.1240  1.1572  0.1090
10685TIP3    H253547   6.683   1.649  15.516 -0.2928  0.3334 -0.5087
10686TIP3   OH253548   4.910   1.337  13.811  0.1912  0.4783  0.5443
10686TIP3    H153549   4.869   1.423  13.803 -0.6336  0.2351  1.8913
10686TIP3    H253550   4.988   1.342  13.756 -1.6055  0.9522 -2.1352
10687TIP3   OH253551   5.189   5.924   1.663 -0.1523  0.5647  0.2068
10687TIP3    H153552   5.096   5.929   1.682 -0.5362  1.9530 -1.7917
10687TIP3    H253553   5.196   5.939   1.569  2.0462 -0.1473  0.1946
10688TIP3   OH253554   4.131   1.064  14.763 -0.2178 -0.0701 -0.5278
10688TIP3    H153555   4.073   1.140  14.759 -1.6443 -0.9689  1.4161
10688TIP3    H253556   4.171   1.069  14.850 -0.9371 -1.9316 -0.0486
10689TIP3   OH253557   5.146   3.972   5.332 -0.7710 -0.0209  0.2194
10689TIP3    H153558   5.169   3.972   5.424  0.1665 -1.0816  0.0091
10689TIP3    H253559   5.154   4.064   5.305  2.7717 -0.1440  0.3238
10690TIP3   OH253560   5.242   5.957  14.657  0.2203 -0.1596  0.4733
10690TIP3    H153561   5.247   6.036  14.711  1.2987  0.4892 -0.5164
10690TIP3    H253562   5.314   5.902  14.688  0.3260 -0.1441  0.2576
10691TIP3   OH253563   1.820   6.711  11.439 -0.0304  0.2119 -0.2150
10691TIP3    H153564   1.835   6.762  11.519 -0.6808 -0.1444  0.1436
10691TIP3    H253565   1.827   6.774  11.368 -0.2877  0.7009  0.1883
10692TIP3   OH253566   5.811   2.909   3.973 -0.1703 -0.0735  0.6239
10692TIP3    H153567   5.722   2.933   4.001 -0.2566  1.1875 -0.6125
10692TIP3    H253568   5.858   2.992   3.971  1.0038 -0.7049  1.0765
10693TIP3   OH253569   2.676   0.648   4.951 -0.1572  0.2473  0.3519
10693TIP3    H153570   2.757   0.610   4.985  0.3809  1.5780  0.6475
10693TIP3    H253571   2.685   0.643   4.856  0.8455  1.4449  0.3532
10694TIP3   OH253572   2.643   4.299   3.779  0.1084  0.0397  0.4975
10694TIP3    H153573   2.683   4.229   3.727  0.2363 -0.0843  0.7640
10694TIP3    H253574   2.600   4.253   3.851  1.0811  0.3079  1.2678
10695TIP3   OH253575   2.698   2.228  12.337  0.0233 -0.1976  0.0222
10695TIP3    H153576   2.648   2.155  12.373  1.7627 -1.4940 -0.0533
10695TIP3    H253577   2.788   2.213  12.366  0.9048  0.4857 -2.1061
10696TIP3   OH253578   2.382   0.209  10.532 -0.3412 -0.6021  0.6285
10696TIP3    H153579   2.357   0.128  10.577 -1.8843 -0.1335  0.6797
10696TIP3    H253580   2.312   0.224  10.469  0.5643  0.0419 -0.2467
10697TIP3   OH253581   1.522   3.648  13.766 -0.8506 -0.2029  0.1418
10697TIP3    H153582   1.502   3.555  13.756 -0.1613 -0.5163  1.4981
10697TIP3    H253583   1.605   3.659  13.719 -1.9879  0.2223 -1.8865
10698TIP3   OH253584   3.122   0.555  14.524  0.2162 -0.2003  0.4921
10698TIP3    H153585   3.036   0.597  14.531  0.3079 -0.1818  1.7875
10698TIP3    H253586   3.130   0.505  14.606  0.5042 -1.9783 -0.5686
10699TIP3   OH253587   5.638   4.900  15.716 -0.0939  0.0018  0.1735
10699TIP3    H153588   5.654   4.819  15.668 -2.4241 -0.6497  0.3776
10699TIP3    H253589   5.705   4.902  15.784  1.2132 -0.7331 -1.0404
10700TIP3   OH253590   2.252   4.577  12.793  0.0730  0.3711  0.0498
10700TIP3    H153591   2.212   4.491  12.803 -1.4587  0.8233 -1.6978
10700TIP3    H253592   2.270   4.606  12.883 -2.3645 -0.4297  0.8751
10701TIP3   OH253593   6.815   0.576   1.528  0.0771 -0.0845  0.1361
10701TIP3    H153594   6.794   0.523   1.452  3.5784 -2.0327  0.3188
10701TIP3    H253595   6.877   0.641   1.496 -1.0235  1.3314  0.7422
10702TIP3   OH253596   1.385   0.987  11.715 -0.1823 -0.3761 -0.0714
10702TIP3    H153597   1.290   0.976  11.721 -0.2381 -0.1116 -0.4104
10702TIP3    H253598   1.419   0.899  11.701 -0.4335 -0.3931 -0.5925
10703TIP3   OH253599   3.962   4.624   3.924 -0.2409  0.2830  0.1872
10703TIP3    H153600   3.883   4.663   3.887 -0.2867 -0.0439 -0.0664
10703TIP3    H253601   3.998   4.692   3.981  0.0600  0.9452 -0.7785
10704TIP3   OH253602   3.233   2.346   5.436 -0.0399  0.2190 -0.1710
10704TIP3    H153603   3.150   2.386   5.462 -0.5911  0.9965 -2.9005
10704TIP3    H253604   3.299   2.412   5.456 -0.2754  0.2909  0.3829
10705TIP3   OH253605   0.105   6.105   2.571  0.0807  0.4327  0.6207
10705TIP3    H153606   0.104   6.110   2.666 -0.1790  2.8692  0.5619
10705TIP3    H253607   0.017   6.132   2.544  0.1598 -0.1887 -0.3134
10706TIP3   OH253608   0.480   1.881  14.840 -0.1093 -0.0283 -0.5725
10706TIP3    H153609   0.530   1.890  14.759  1.4645  1.9199  0.5300
10706TIP3    H253610   0.526   1.814  14.890  1.1818  1.3828  0.2129
10707TIP3   OH253611   0.882   5.709  11.954 -0.4391  0.0172 -0.4475
10707TIP3    H153612   0.967   5.730  11.994 -0.8421 -0.8987  0.9500
10707TIP3    H253613   0.904   5.655  11.878  0.2115 -0.8622  0.3464
10708TIP3   OH253614   0.330   4.473   5.746  0.1908  0.1592 -0.0659
10708TIP3    H153615   0.269   4.413   5.702  0.1753  0.1357 -0.0134
10708TIP3    H253616   0.360   4.533   5.677 -1.3298  1.3654  0.2629
10709TIP3   OH253617   2.595   6.506  12.522 -0.2636  0.5301  0.5569
10709TIP3    H153618   2.607   6.489  12.428 -0.1186  0.6151  0.5598
10709TIP3    H253619   2.570   6.422  12.559  0.0990  0.4028  0.5124
10710TIP3   OH253620   0.115   1.459   3.010 -0.1569 -0.5647  0.4709
10710TIP3    H153621   0.196   1.458   3.059 -0.0044  0.6129  0.2537
10710TIP3    H253622   0.131   1.399   2.936  1.2612  1.1886 -0.7211
10711TIP3   OH253623   6.566   4.402   2.268 -0.4056  0.2978  1.1679
10711TIP3    H153624   6.595   4.492   2.284 -2.0192  1.2077 -0.6619
10711TIP3    H253625   6.637   4.362   2.219 -0.8626  1.5536 -0.6196
10712TIP3   OH253626   5.457   5.455   1.083 -0.2154 -0.8198  0.0292
10712TIP3    H153627   5.415   5.382   1.128  0.3247 -1.9352 -1.1853
10712TIP3    H253628   5.421   5.452   0.994  0.6395 -0.3105 -0.3456
10713TIP3   OH253629   4.809   5.860  12.700  0.1140  0.7310 -0.1932
10713TIP3    H153630   4.752   5.899  12.633 -2.2528 -1.4271  0.3813
10713TIP3    H253631   4.749   5.839  12.772  1.8216 -0.9065  0.8257
10714TIP3   OH253632   0.259   4.506   4.685  0.2632  0.0888  0.1757
10714TIP3    H153633   0.284   4.443   4.753 -1.2615 -0.0111  0.6775
10714TIP3    H253634   0.290   4.590   4.717 -0.2344  0.0064  0.9062
10715TIP3   OH253635   3.567   6.609  17.288  0.1725  0.0411  0.2250
10715TIP3    H153636   3.513   6.638  17.215 -0.8520 -2.4449 -0.1026
10715TIP3    H253637   3.528   6.651  17.365 -2.1480 -1.4794 -0.0426
10716TIP3   OH253638   1.989   6.616   6.435 -0.2778 -0.4306  0.4070
10716TIP3    H153639   2.077   6.581   6.451 -1.3599 -3.1181  0.9577
10716TIP3    H253640   1.947   6.616   6.521 -0.7201  1.2901  0.2329
10717TIP3   OH253641   1.960   0.531  12.975  0.9797 -0.3130  0.3267
10717TIP3    H153642   2.042   0.482  12.964  1.6444  1.2216 -2.6101
10717TIP3    H253643   1.984   0.605  13.030  0.7522 -1.5037  2.0854
10718TIP3   OH253644   5.675   1.384  12.202  0.4516 -0.1435 -0.1332
10718TIP3    H153645   5.689   1.442  12.127  1.2670 -2.8069 -2.1831
10718TIP3    H253646   5.750   1.401  12.259  0.7854  0.6199 -0.7755
10719TIP3   OH253647   3.378   3.379  12.192 -0.3540 -0.1270 -0.2459
10719TIP3    H153648   3.346   3.446  12.251  1.3931 -0.4091  1.0975
10719TIP3    H253649   3.299   3.345  12.149 -1.7798 -0.3407  2.3587
10720TIP3   OH253650   0.613   2.651   1.003 -0.2833 -0.3236  0.4208
10720TIP3    H153651   0.591   2.736   1.040 -1.0533 -0.2169 -0.2446
10720TIP3    H253652   0.605   2.590   1.076 -0.6432  0.0428  0.6903
10721TIP3   OH253653   6.768   0.121  16.664 -0.0879  0.3376  0.1723
10721TIP3    H153654   6.690   0.066  16.663 -0.0597  0.2357 -2.2559
10721TIP3    H253655   6.840   0.061  16.645 -0.0068  1.0422 -2.0466
10722TIP3   OH253656   0.060   6.564  14.649  0.0202 -0.8011  0.3230
10722TIP3    H153657   0.041   6.471  14.653  0.2784 -0.8296  1.0503
10722TIP3    H253658   0.002   6.598  14.581  0.8760 -1.7057 -0.8828
10723TIP3   OH253659   2.480   1.371  15.638  0.1115 -0.1603 -0.4283
10723TIP3    H153660   2.503   1.287  15.600  2.0567  0.2163 -0.2048
10723TIP3    H253661   2.402   1.354  15.691 -0.0609 -1.6027 -1.1217
10724TIP3   OH253662   3.516   6.081  11.791 -0.1344 -0.0354  0.4944
10724TIP3    H153663   3.449   6.105  11.856 -1.2416 -0.8901 -0.3015
10724TIP3    H253664   3.506   6.145  11.721 -1.3270 -1.2124 -0.4323
10725TIP3   OH253665   1.216   5.547  16.204 -0.1499  0.2170  0.4321
10725TIP3    H153666   1.122   5.560  16.214 -0.2580 -0.3150  0.1350
10725TIP3    H253667   1.256   5.610  16.265 -0.6655  1.3990 -0.4050
10726TIP3   OH253668   5.458   6.766  16.755 -0.4142 -0.3689 -0.2179
10726TIP3    H153669   5.554   6.761  16.750 -0.3933  1.0341 -2.2880
10726TIP3    H253670   5.441   6.839  16.814 -0.0889  1.6238 -2.4647
10727TIP3   OH253671   0.947   5.600   0.229 -0.5291 -0.2837  0.1466
10727TIP3    H153672   0.973   5.518   0.186 -0.4746 -0.5359  0.6617
10727TIP3    H253673   0.901   5.572   0.308 -0.5247  0.1831  0.3146
10728TIP3   OH253674   2.058   3.131   2.374 -0.2406 -0.0340  0.0340
10728TIP3    H153675   2.100   3.216   2.381  1.5234 -0.8626 -0.0485
10728TIP3    H253676   1.968   3.146   2.405 -0.5093  2.2014 -1.6126
10729TIP3   OH253677   3.500   2.023  16.892  0.2521  0.8722 -0.1546
10729TIP3    H153678   3.429   2.086  16.882 -0.9458 -0.2100  1.0571
10729TIP3    H253679   3.456   1.941  16.917  1.8798 -0.0183 -0.0623
10730TIP3   OH253680   2.035   6.328   6.004 -0.4182 -0.0413 -0.7298
10730TIP3    H153681   2.125   6.318   6.036 -1.0715 -3.4331  0.4751
10730TIP3    H253682   1.991   6.378   6.073  0.5880  2.2120 -1.6222
10731TIP3   OH253683   2.954   1.597  16.882 -0.1117  0.2053 -0.2169
10731TIP3    H153684   3.030   1.592  16.825 -0.2239 -2.1958 -0.2554
10731TIP3    H253685   2.966   1.678  16.932  1.8953  0.4150 -0.9589
10732TIP3   OH253686   5.974   4.697   5.892  0.1007 -0.1861  0.4950
10732TIP3    H153687   6.062   4.684   5.926  0.9187  1.2657 -0.9403
10732TIP3    H253688   5.930   4.614   5.909  2.1810 -1.4796  0.0056
10733TIP3   OH253689   1.743   2.414   2.650 -0.0474 -0.2104 -0.6083
10733TIP3    H153690   1.658   2.389   2.685 -0.1300  0.1033 -0.5806
10733TIP3    H253691   1.757   2.355   2.576 -1.1340  0.9141 -1.7751
10734TIP3   OH253692   6.577   1.016  10.805 -0.4074 -0.0057  0.0257
10734TIP3    H153693   6.491   0.988  10.775 -0.7856 -0.2127  1.2261
10734TIP3    H253694   6.575   1.112  10.798 -0.4594 -0.0562 -0.6573
10735TIP3   OH253695   4.917   2.725   4.559  0.2102  0.7396  0.0975
10735TIP3    H153696   4.855   2.653   4.571 -1.4637  2.2038  0.8276
10735TIP3    H253697   4.987   2.708   4.622 -0.8460  0.4331  1.2214
10736TIP3   OH253698   5.681   6.801  11.610  0.5109 -0.2416 -0.5296
10736TIP3    H153699   5.674   6.767  11.521  1.4176 -0.8621 -0.3770
10736TIP3    H253700   5.627   6.880  11.610  2.3549  1.1037 -2.2931
10737TIP3   OH253701   5.733   3.821   4.531 -0.7989 -0.2941 -0.0762
10737TIP3    H153702   5.824   3.795   4.517 -0.1012  2.0255 -0.2899
10737TIP3    H253703   5.702   3.765   4.602  2.0377  1.3621  2.7459
10738TIP3   OH253704   0.099   0.093  15.268 -0.0767 -0.1814 -0.0469
10738TIP3    H153705   0.167   0.060  15.209 -1.1973  1.2330 -2.2818
10738TIP3    H253706   0.022   0.040  15.249  0.1572 -1.3694  2.0326
10739TIP3   OH253707   3.248   6.334  16.426 -0.1010 -0.6181  0.3807
10739TIP3    H153708   3.207   6.248  16.431 -1.0777 -0.1612  0.6319
10739TIP3    H253709   3.340   6.317  16.407 -0.6034 -1.6509 -1.3198
10740TIP3   OH253710   6.818   5.723  16.312  0.1498  0.0931 -0.1463
10740TIP3    H153711   6.900   5.748  16.355 -0.1753 -0.3840  0.7848
10740TIP3    H253712   6.806   5.631  16.334  0.1099 -0.2589 -1.5261
10741TIP3   OH253713   1.402   1.340   5.082 -1.2934 -0.3274  0.5784
10741TIP3    H153714   1.383   1.413   5.140 -0.2895  1.3076 -1.0632
10741TIP3    H253715   1.318   1.320   5.040 -1.0040  2.1397 -1.3821
10742TIP3   OH253716   2.575   3.569   5.960  0.2859  0.0070  0.6340
10742TIP3    H153717   2.644   3.539   6.019  0.5723 -1.5783 -0.4503
10742TIP3    H253718   2.574   3.664   5.971  3.2301  0.1935  0.0761
10743TIP3   OH253719   4.607   2.262  16.879 -0.6173  0.1365 -0.0343
10743TIP3    H153720   4.634   2.335  16.935 -1.1852  0.9809 -0.8312
10743TIP3    H253721   4.528   2.228  16.920  0.4927 -1.0631  1.2058
10744TIP3   OH253722   0.717   2.580   0.141 -0.1076 -0.0616 -0.4708
10744TIP3    H153723   0.721   2.618   0.229 -1.0364  2.4345 -1.4364
10744TIP3    H253724   0.667   2.499   0.153 -0.2959  0.2686  1.2677
10745TIP3   OH253725   0.367   0.924  17.251 -0.5386  0.1705 -0.3388
10745TIP3    H153726   0.436   0.910  17.187  0.1971  0.0602  0.4461
10745TIP3    H253727   0.306   0.984  17.209 -0.3544 -0.3194 -1.3251
10746TIP3   OH253728   0.042   2.989   1.983 -0.1070  0.5369  0.6440
10746TIP3    H153729   0.071   3.069   1.938  0.9335  0.2508  0.7713
10746TIP3    H253730   0.112   2.925   1.965 -2.0246 -1.1354 -1.5482
10747TIP3   OH253731   4.551   5.268  15.341  0.5835 -0.1119  0.6448
10747TIP3    H153732   4.509   5.246  15.258  0.6359  0.9090  0.3280
10747TIP3    H253733   4.644   5.276  15.319  0.7776 -1.0670  1.0703
10748TIP3   OH253734   6.712   3.783  15.179  0.3690  0.0600 -0.1163
10748TIP3    H153735   6.687   3.843  15.250  2.3054  3.0979 -1.7697
10748TIP3    H253736   6.796   3.817  15.147 -0.5078 -0.9133 -4.0178
10749TIP3   OH253737   4.414   6.282   1.432 -0.1748 -1.0521 -0.0985
10749TIP3    H153738   4.330   6.312   1.396 -0.1671 -0.6200  0.2373
10749TIP3    H253739   4.407   6.187   1.432 -0.2855 -1.0537 -0.9889
10750TIP3   OH253740   3.606   0.344   4.143 -0.1054  0.1729  0.4711
10750TIP3    H153741   3.686   0.324   4.191  0.5411  1.4771 -0.0083
10750TIP3    H253742   3.557   0.402   4.201  1.0754  2.4645 -0.7018
10751TIP3   OH253743   4.612   3.182  16.043  0.4270  0.1431  0.1626
10751TIP3    H153744   4.587   3.152  15.956  0.6759 -0.2740  0.2326
10751TIP3    H253745   4.528   3.196  16.088  0.3012  0.2403 -0.1005
10752TIP3   OH253746   6.630   5.789  11.991 -0.6375  0.3994 -0.5413
10752TIP3    H153747   6.563   5.812  11.927  0.9617 -0.4442 -2.6208
10752TIP3    H253748   6.623   5.694  12.001  0.0710  0.3335 -0.6020
10753TIP3   OH253749   3.674   1.030   6.063  0.1753  0.4926 -0.5237
10753TIP3    H153750   3.624   1.097   6.109  1.2942  0.4516  0.8246
10753TIP3    H253751   3.743   1.079   6.017 -0.0357  0.4093 -0.9287
10754TIP3   OH253752   3.869   3.546   2.111  0.0787  0.1964  0.0072
10754TIP3    H153753   3.819   3.625   2.089  0.0413 -0.0175 -0.6771
10754TIP3    H253754   3.959   3.566   2.087  0.0609  0.0110 -0.2147
10755TIP3   OH253755   0.643   0.407   1.089  0.2127 -0.2981 -0.4318
10755TIP3    H153756   0.549   0.403   1.071  0.3782  0.5031 -1.5774
10755TIP3    H253757   0.651   0.469   1.161 -0.0672  0.3502 -0.9530
10756TIP3   OH253758   4.910   5.770  11.086 -0.5970 -0.0618 -0.2956
10756TIP3    H153759   4.828   5.797  11.045 -1.0188 -0.7560  0.0750
10756TIP3    H253760   4.927   5.683  11.049  0.5907  0.5433 -1.2587
10757TIP3   OH253761   6.739   5.217   4.677  0.5238 -0.4432  0.0059
10757TIP3    H153762   6.744   5.123   4.659 -2.3735 -0.3666 -2.0454
10757TIP3    H253763   6.686   5.224   4.756  1.3302 -0.5315  0.5595
10758TIP3   OH253764   5.137   0.644  14.237  0.2261  0.5315 -0.4671
10758TIP3    H153765   5.208   0.585  14.211 -0.2332 -1.4006  2.2104
10758TIP3    H253766   5.182   0.717  14.281  0.6464 -0.0660  0.1197
10759TIP3   OH253767   1.077   0.087  15.221  0.0237 -0.3769 -0.0120
10759TIP3    H153768   0.997   0.109  15.173  1.0821  0.7221 -1.3703
10759TIP3    H253769   1.145   0.087  15.154  1.3389 -0.1763  1.2924
10760TIP3   OH253770   4.009   2.749  15.910  0.1094 -0.1916  0.1722
10760TIP3    H153771   4.043   2.711  15.991  0.8568 -0.8029 -0.4123
10760TIP3    H253772   4.048   2.836  15.905 -0.9540  0.3646  1.0993
10761TIP3   OH253773   1.596   6.666  10.842 -0.6681  0.4310 -0.1842
10761TIP3    H153774   1.520   6.631  10.888 -0.4013 -1.0665 -0.8336
10761TIP3    H253775   1.561   6.734  10.785 -1.1946  1.2921  1.1163
10762TIP3   OH253776   5.174   5.102   1.802  0.3204 -0.2150  0.2628
10762TIP3    H153777   5.164   5.164   1.730 -0.6627 -0.5727  0.0735
10762TIP3    H253778   5.186   5.158   1.879  1.9973  0.1645 -0.2354
10763TIP3   OH253779   4.605   1.864  12.686 -0.5606 -0.6294  0.0234
10763TIP3    H153780   4.526   1.828  12.724 -0.5344 -0.2406  0.4547
10763TIP3    H253781   4.614   1.819  12.602 -1.6708 -0.1171 -0.3890
10764TIP3   OH253782   1.565   4.592  11.972 -0.7667  0.3390  0.0039
10764TIP3    H153783   1.624   4.576  12.045 -2.0871  2.3066  1.6302
10764TIP3    H253784   1.595   4.675  11.936 -1.9620  0.9108  0.2921
10765TIP3   OH253785   6.667   2.410  16.479 -0.3804  0.0533 -0.6233
10765TIP3    H153786   6.721   2.478  16.438  0.8415 -1.2749 -1.3011
10765TIP3    H253787   6.725   2.335  16.488 -1.6129 -0.8301  0.3871
10766TIP3   OH253788   2.571   4.153   1.233 -0.2504  0.1247  0.4252
10766TIP3    H153789   2.549   4.121   1.321  0.9602  0.7631  0.9834
10766TIP3    H253790   2.565   4.076   1.177 -1.7722 -0.1497  0.9120
10767TIP3   OH253791   3.718   3.727   4.404 -0.0471 -0.0586 -0.1638
10767TIP3    H153792   3.626   3.743   4.428  0.6809  1.8111  1.7019
10767TIP3    H253793   3.738   3.642   4.442 -0.9276 -0.3466 -0.3252
10768TIP3   OH253794   0.578   0.582   3.849  0.1944 -0.6288  0.0988
10768TIP3    H153795   0.667   0.545   3.851  0.4009 -0.1408  0.1392
10768TIP3    H253796   0.524   0.517   3.893  0.7651 -0.3281  1.2985
10769TIP3   OH253797   5.456   1.130   0.329  0.5980  0.8150 -0.1857
10769TIP3    H153798   5.458   1.166   0.240 -0.3608  0.3923 -0.3961
10769TIP3    H253799   5.532   1.168   0.372  1.7630  0.1306 -1.5383
10770TIP3   OH253800   3.836   3.056  16.707  0.6197  0.8542 -0.3580
10770TIP3    H153801   3.818   2.965  16.728 -0.0978  1.2519  0.8425
10770TIP3    H253802   3.930   3.067  16.721  0.7124  0.3033 -0.5399
10771TIP3   OH253803   4.692   4.794  13.314  0.3023 -0.5549  0.0927
10771TIP3    H153804   4.647   4.857  13.258  0.7247  0.4021  0.8098
10771TIP3    H253805   4.623   4.739  13.349  0.1022 -1.9591 -2.2584
10772TIP3   OH253806   4.291   3.857  11.667  0.0923  0.4471 -0.4396
10772TIP3    H153807   4.218   3.890  11.719 -0.9705  0.1897 -1.7112
10772TIP3    H253808   4.325   3.783  11.718 -1.2749 -0.1469 -0.3287
10773TIP3   OH253809   6.199   5.742   4.103  0.1813  0.0333 -0.3148
10773TIP3    H153810   6.273   5.797   4.078 -0.1020 -0.7612 -3.3092
10773TIP3    H253811   6.132   5.804   4.134  0.4539  1.2689 -2.0347
10774TIP3   OH253812   5.437   1.243   0.096 -0.5328  0.2106  0.3268
10774TIP3    H153813   5.353   1.263   0.056 -0.2210  1.5779  0.3162
10774TIP3    H253814   5.498   1.240   0.023  0.0840  2.9579  0.6280
10775TIP3   OH253815   2.928   6.479   1.763 -0.0302 -0.0332 -0.0522
10775TIP3    H153816   2.836   6.497   1.745  0.3059  1.5875 -0.2829
10775TIP3    H253817   2.961   6.437   1.684 -0.1337  1.0914 -0.7069
10776TIP3   OH253818   1.058   6.181  13.041 -0.2112 -0.0313 -0.9299
10776TIP3    H153819   1.011   6.254  13.081 -0.5217  0.5119 -2.2249
10776TIP3    H253820   1.147   6.214  13.026 -0.4094  0.1688 -1.7085
10777TIP3   OH253821   2.334   6.722  14.034  0.1424  0.0361 -0.3219
10777TIP3    H153822   2.423   6.710  14.068  0.3984  0.4858 -0.8215
10777TIP3    H253823   2.277   6.698  14.108  0.6729 -0.1423  0.0403
10778TIP3   OH253824   6.676   1.910  14.742 -0.2942 -0.2817  0.2890
10778TIP3    H153825   6.675   1.987  14.685 -0.4310 -0.8411 -0.4760
10778TIP3    H253826   6.585   1.878  14.739  0.0325 -1.1883 -0.3983
10779TIP3   OH253827   5.460   3.760   2.985 -0.2025 -0.2277 -0.6502
10779TIP3    H153828   5.382   3.717   3.020 -0.9963 -0.7760 -2.9650
10779TIP3    H253829   5.451   3.852   3.010 -0.2116 -0.7288  1.3762
10780TIP3   OH253830   2.004   3.450   3.571  0.3486  0.4483  0.0111
10780TIP3    H153831   1.961   3.452   3.486  0.0358  0.7299  0.1715
10780TIP3    H253832   1.933   3.465   3.634  0.3582 -1.0254  0.4052
10781TIP3   OH253833   4.247   5.204  16.686  0.0913  0.5436  0.6025
10781TIP3    H153834   4.156   5.172  16.686  0.0703  0.5473 -0.6452
10781TIP3    H253835   4.239   5.298  16.699 -0.1034  0.5691  0.3216
10782TIP3   OH253836   4.005   2.836   0.553  0.1545  0.0902 -0.5208
10782TIP3    H153837   4.006   2.785   0.472 -0.2259 -0.2803 -0.2989
10782TIP3    H253838   3.928   2.893   0.545 -0.2026 -0.3340 -0.1952
10783TIP3   OH253839   2.542   0.043  16.639  0.3577  0.0848 -0.4397
10783TIP3    H153840   2.453   0.055  16.605 -0.4557 -0.1097  1.5020
10783TIP3    H253841   2.593   0.112  16.597 -0.8582  0.6434 -1.0558
10784TIP3   OH253842   4.382   1.190   3.541 -0.2508  0.2809  0.5797
10784TIP3    H153843   4.309   1.182   3.603  0.0624 -0.1024  0.9098
10784TIP3    H253844   4.460   1.187   3.596  0.0262  0.1241  0.1832
10785TIP3   OH253845   6.662   1.665   2.301  0.3578 -0.1936 -0.3567
10785TIP3    H153846   6.577   1.623   2.290  0.8961 -1.2025 -0.7370
10785TIP3    H253847   6.695   1.631   2.384 -0.4737  1.7622  0.8432
10786TIP3   OH253848   1.866   0.334  17.086 -0.1497 -0.2519 -0.1045
10786TIP3    H153849   1.792   0.394  17.096 -1.1857 -1.5067  0.0966
10786TIP3    H253850   1.909   0.362  17.006 -0.0440  1.3303  0.4680
10787TIP3   OH253851   6.691   6.037   1.607 -0.1826  0.0660  0.4397
10787TIP3    H153852   6.667   6.035   1.515  0.9429 -1.2080  0.1396
10787TIP3    H253853   6.625   6.093   1.648 -1.2092 -0.0407 -0.9904
10788TIP3   OH253854   2.937   6.801   6.541  0.0562 -0.3885  0.3960
10788TIP3    H153855   2.932   6.876   6.600 -1.4130  0.0174 -0.1836
10788TIP3    H253856   2.853   6.757   6.552 -1.3329  1.0694 -3.0791
10789TIP3   OH253857   1.526   1.495   6.434  0.1081 -0.1501  0.1438
10789TIP3    H153858   1.455   1.553   6.463  0.9149  0.5971  0.7210
10789TIP3    H253859   1.500   1.465   6.347  0.3527  2.3485 -0.8823
10790TIP3   OH253860   4.904   5.886   0.006 -0.1513 -0.6067  0.4161
10790TIP3    H153861   4.955   5.875   0.086 -1.5156  0.2450  1.4293
10790TIP3    H253862   4.851   5.807  -0.000 -0.7850 -0.2237  0.9076
10791TIP3   OH253863   4.122   0.757  15.393  0.0456 -0.2045 -0.1203
10791TIP3    H153864   4.043   0.707  15.417 -0.2795  0.5918  0.5301
10791TIP3    H253865   4.194   0.709  15.433 -0.3570  0.3362  1.3091
10792TIP3   OH253866   5.894   2.485   2.615  0.3783  0.2862 -0.2639
10792TIP3    H153867   5.817   2.540   2.630  0.6422  0.6090 -0.0759
10792TIP3    H253868   5.954   2.509   2.685  0.6167 -0.0304 -0.3573
10793TIP3   OH253869   2.867   1.683   2.985 -0.1757 -0.2572  0.1294
10793TIP3    H153870   2.894   1.592   2.972  0.4443 -0.2082  0.9475
10793TIP3    H253871   2.773   1.684   2.968 -0.4146 -1.2965  1.2503
10794TIP3   OH253872   5.214   1.785   6.648 -0.3746  0.8798  0.4500
10794TIP3    H153873   5.307   1.775   6.663 -0.2967  0.4281 -0.2869
10794TIP3    H253874   5.201   1.880   6.641 -0.1115  0.9851  1.3642
10795TIP3   OH253875   3.106   2.414   0.565 -0.0268 -0.0676  0.3844
10795TIP3    H153876   3.149   2.400   0.481 -0.5274 -2.2536  0.4509
10795TIP3    H253877   3.170   2.386   0.630  0.9549  3.0230  0.9134
10796TIP3   OH253878   1.625   6.526  15.704  0.3116 -0.3806 -0.5026
10796TIP3    H153879   1.685   6.499  15.634  1.4391 -2.9765  1.3055
10796TIP3    H253880   1.559   6.457  15.707  0.0118 -0.0728  0.6704
10797TIP3   OH253881   2.108   5.376   6.301  0.4806 -0.1815  0.4893
10797TIP3    H153882   2.174   5.408   6.361  0.1705 -1.6609  1.6642
10797TIP3    H253883   2.043   5.447   6.298  0.2664 -0.2634  2.2704
10798TIP3   OH253884   5.707   4.267  11.891  0.0851  0.1767  0.0365
10798TIP3    H153885   5.793   4.238  11.922 -0.6909 -2.7605 -0.2229
10798TIP3    H253886   5.699   4.230  11.803 -1.5317  0.1805  0.1494
10799TIP3   OH253887   1.073   3.801  11.851 -0.6869 -0.0649 -0.3627
10799TIP3    H153888   1.108   3.717  11.823 -1.3567  0.0146 -1.5134
10799TIP3    H253889   1.054   3.847  11.769  0.8586  1.7333  0.2326
10800TIP3   OH253890   1.933   2.638   5.865 -0.0666 -0.2978  0.0993
10800TIP3    H153891   2.001   2.619   5.929  1.2740 -1.4035 -1.5668
10800TIP3    H253892   1.959   2.722   5.826  0.6333 -0.9611 -0.8813
10801TIP3   OH253893   2.574   3.973   2.965  0.1508  0.1991  0.4209
10801TIP3    H153894   2.578   3.901   3.028 -0.7420 -0.1776  0.0575
10801TIP3    H253895   2.522   3.940   2.893  1.3985  0.5371 -0.6658
10802TIP3   OH253896   3.691   5.434   5.171 -0.5155 -0.2845  0.0445
10802TIP3    H153897   3.674   5.370   5.102 -2.9922  0.2901  0.0159
10802TIP3    H253898   3.733   5.507   5.126  0.5541 -1.0630 -0.2729
10803TIP3   OH253899   3.012   1.448  11.453 -0.0540  0.3669  0.7805
10803TIP3    H153900   3.015   1.396  11.534 -0.3099 -2.1965 -0.7599
10803TIP3    H253901   2.919   1.467  11.440  0.1111  2.1030  1.8061
10804TIP3   OH253902   5.131   2.792  15.113  0.5003  0.6629 -0.1067
10804TIP3    H153903   5.202   2.857  15.115  0.7569  0.4075  2.1516
10804TIP3    H253904   5.151   2.733  15.186  0.5419 -2.3127 -2.3804
10805TIP3   OH253905   5.703   0.801  12.396  0.0424  0.1571 -0.6989
10805TIP3    H153906   5.609   0.817  12.399 -0.0388 -0.0113  3.7598
10805TIP3    H253907   5.711   0.706  12.384 -0.5562 -0.1753  1.1451
10806TIP3   OH253908   1.387   6.781   1.324  0.5587 -0.7145  0.0257
10806TIP3    H153909   1.293   6.792   1.334  0.5741 -1.4062  1.1924
10806TIP3    H253910   1.413   6.727   1.399  1.5741 -2.2783 -1.3729
10807TIP3   OH253911   1.590   0.435   3.162  0.3817 -0.2753  0.2077
10807TIP3    H153912   1.629   0.351   3.140  1.2223  0.7105 -2.5327
10807TIP3    H253913   1.516   0.414   3.219  0.4249 -2.8919 -0.5951
10808TIP3   OH253914   0.833   0.328  12.538  0.0820 -0.3641 -0.1722
10808TIP3    H153915   0.787   0.267  12.481  1.5393 -2.7240  1.0650
10808TIP3    H253916   0.788   0.320  12.623  1.3707 -1.0940  0.4675
10809TIP3   OH253917   3.996   1.994   2.455  0.1748 -0.0188  0.4210
10809TIP3    H153918   3.911   2.024   2.487 -0.3164 -0.8210 -0.1135
10809TIP3    H253919   4.047   1.978   2.535 -0.0446  0.7812  0.7380
10810TIP3   OH253920   0.781   4.192   4.073  0.8262 -0.0698  0.2881
10810TIP3    H153921   0.763   4.231   3.987 -2.6091 -1.5720  0.1263
10810TIP3    H253922   0.821   4.107   4.053  2.1024  0.4986  0.3345
10811TIP3   OH253923   1.070   0.707   5.616  0.3136  0.5558 -0.0502
10811TIP3    H153924   1.016   0.741   5.687 -0.0236 -0.6781  0.3128
10811TIP3    H253925   1.155   0.688   5.656  0.6660  1.4364 -0.3662
10812TIP3   OH253926   1.611   4.729  14.311  0.4641  0.7011 -0.3419
10812TIP3    H153927   1.633   4.773  14.229  0.2348 -1.4555 -1.6340
10812TIP3    H253928   1.527   4.687  14.294  1.1826 -1.1233  0.4176
10813TIP3   OH253929   2.953   2.165  11.935 -0.5654  0.1531 -0.1863
10813TIP3    H153930   2.996   2.250  11.931 -0.4432  0.3162  2.5812
10813TIP3    H253931   2.957   2.140  12.027 -4.9163 -0.5783  0.0378
10814TIP3   OH253932   2.295   2.358   1.069 -0.7749 -0.3835 -0.4696
10814TIP3    H153933   2.363   2.294   1.090  0.1606 -0.0387 -2.2957
10814TIP3    H253934   2.316   2.434   1.124  0.3812 -0.2544 -1.0619
10815TIP3   OH253935   3.943   0.498  13.040 -0.1189 -0.1897 -0.1127
10815TIP3    H153936   3.963   0.414  13.000 -1.6754 -0.4174 -0.4910
10815TIP3    H253937   3.848   0.497  13.051 -0.0896  1.2465  0.4961
10816TIP3   OH253938   3.998   0.121   1.064 -0.3931  0.4330 -0.6325
10816TIP3    H153939   3.930   0.070   1.107 -0.9971  1.8514  0.1714
10816TIP3    H253940   4.076   0.064   1.066 -1.0697 -0.4987  0.0844
10817TIP3   OH253941   0.267   6.015   1.368 -0.1106 -0.2123  0.1874
10817TIP3    H153942   0.228   6.052   1.289 -0.6290 -1.7065 -0.2883
10817TIP3    H253943   0.201   5.955   1.402  0.3424 -0.0200  1.4418
10818TIP3   OH253944   6.508   2.369  15.747 -0.1703 -0.6353  0.4040
10818TIP3    H153945   6.593   2.394  15.709 -0.0624 -2.3204 -0.5662
10818TIP3    H253946   6.512   2.273  15.752 -2.0348 -0.7373  0.3480
10819TIP3   OH253947   4.637   4.511   0.424 -0.2702  0.5182 -0.0442
10819TIP3    H153948   4.714   4.536   0.476 -0.6791  0.7072  0.4830
10819TIP3    H253949   4.564   4.522   0.484 -0.7766  0.9209 -0.7302
10820TIP3   OH253950   2.152   3.437  13.399  0.2260 -0.6712 -0.4423
10820TIP3    H153951   2.081   3.377  13.378  1.7145 -3.2933  1.3364
10820TIP3    H253952   2.111   3.508  13.449 -1.6442  0.0553 -2.8696
10821TIP3   OH253953   0.684   4.683  14.218  0.2804 -0.3232  0.3063
10821TIP3    H153954   0.751   4.647  14.275  1.0553  2.1273  1.0728
10821TIP3    H253955   0.620   4.723  14.277 -1.1301 -1.3377 -0.4641
10822TIP3   OH253956   6.025   6.639  11.010 -0.5539  0.4526 -0.5454
10822TIP3    H153957   6.022   6.582  11.087 -1.0000  0.9521 -0.1840
10822TIP3    H253958   5.978   6.590  10.942 -0.3077  0.0827 -0.4501
10823TIP3   OH253959   4.089   3.025   0.986  0.2409 -0.7905 -0.2479
10823TIP3    H153960   4.124   3.015   1.074 -1.3271  1.7217  0.7804
10823TIP3    H253961   4.022   2.957   0.979  0.5116 -1.1334  0.4193
10824TIP3   OH253962   4.245   1.022  13.762  0.3935 -0.6100  0.1564
10824TIP3    H153963   4.194   1.102  13.769  0.7245 -0.3467 -0.3795
10824TIP3    H253964   4.321   1.037  13.819  1.1207 -0.0107 -0.9406
10825TIP3   OH253965   6.753   4.525  14.707 -0.2191 -1.0193  0.1506
10825TIP3    H153966   6.712   4.441  14.725 -0.8196 -0.8918 -0.5449
10825TIP3    H253967   6.789   4.553  14.790 -1.2777 -1.2888  0.7187
10826TIP3   OH253968   3.414   2.074   1.216  0.6720 -0.8653 -0.0520
10826TIP3    H153969   3.323   2.079   1.245  0.3735 -0.3318 -0.9917
10826TIP3    H253970   3.432   2.162   1.181  1.5826 -0.9335  0.2221
10827TIP3   OH253971   2.673   2.195   3.257  0.0787  0.0261  0.1526
10827TIP3    H153972   2.652   2.277   3.302 -0.0333  1.5783 -2.5210
10827TIP3    H253973   2.760   2.172   3.290 -0.2194  0.7703  1.5298
10828TIP3   OH253974   2.161   3.972   4.238  0.1051 -0.0328  0.6394
10828TIP3    H153975   2.092   3.916   4.273 -0.2167 -0.3272 -0.4342
10828TIP3    H253976   2.118   4.057   4.225 -0.9190 -0.9260 -2.6842
10829TIP3   OH253977   1.022   4.368  11.684  0.7525 -0.0236 -0.3805
10829TIP3    H153978   1.000   4.456  11.654  0.8507  0.2352  0.2927
10829TIP3    H253979   1.111   4.352  11.651  0.6191  0.0074 -0.7583
10830TIP3   OH253980   4.012   0.792  16.781 -0.2258 -0.2283 -0.5799
10830TIP3    H153981   3.982   0.875  16.817  0.1722 -0.2288 -0.2276
10830TIP3    H253982   3.933   0.742  16.766 -0.3834 -0.9113  1.9559
10831TIP3   OH253983   4.885   2.332  15.240  0.8169  0.1398  0.2765
10831TIP3    H153984   4.886   2.394  15.314 -0.2237  0.2313  0.2384
10831TIP3    H253985   4.812   2.362  15.185 -0.5489 -1.8159  0.9016
10832TIP3   OH253986   0.816   2.487  16.945  0.3876  0.6367 -0.3609
10832TIP3    H153987   0.739   2.442  16.908  0.1289  0.2057  0.6855
10832TIP3    H253988   0.885   2.472  16.880  0.2308 -1.0616 -0.1716
10833TIP3   OH253989   1.700   1.268  14.482  0.6119  0.1535  0.3370
10833TIP3    H153990   1.690   1.269  14.577  0.8306  1.4843  0.3621
10833TIP3    H253991   1.750   1.347  14.462 -2.4105  1.8813 -1.1778
10834TIP3   OH253992   6.649   2.412   0.385  0.2589 -0.6782  0.2403
10834TIP3    H153993   6.730   2.432   0.338 -0.2411  0.1396 -0.2892
10834TIP3    H253994   6.613   2.336   0.339  1.1184 -1.5644  0.9818
10835TIP3   OH253995   2.797   6.136  10.625  0.0516 -0.8321  0.6806
10835TIP3    H153996   2.844   6.054  10.636  0.0682 -0.7520  1.2043
10835TIP3    H253997   2.704   6.111  10.623  0.0789 -0.9123  0.3628
10836TIP3   OH253998   1.079   5.814  12.680  0.1880 -0.1806 -0.3433
10836TIP3    H153999   1.067   5.733  12.630  1.1196  0.1334 -1.1119
10836TIP3    H254000   1.066   5.788  12.771 -1.9015 -0.6975 -0.7222
10837TIP3   OH254001   1.040   1.064  15.551 -0.2238 -0.4446 -0.0202
10837TIP3    H154002   1.025   1.071  15.457 -1.8257 -1.6505  0.1106
10837TIP3    H254003   0.954   1.046  15.588  0.5543 -1.1108  1.5498
10838TIP3   OH254004   4.798   3.927  14.054  0.4788  0.7859  0.4636
10838TIP3    H154005   4.833   3.899  13.969  0.2522  0.1659  0.5714
10838TIP3    H254006   4.873   3.919  14.114  0.1858 -0.5365  0.6919
10839TIP3   OH254007   0.208   3.919  12.731  0.1566 -0.0458 -0.4759
10839TIP3    H154008   0.114   3.912  12.717 -0.0141  0.0364  0.5531
10839TIP3    H254009   0.244   3.938  12.644 -0.8951  1.1188 -0.6865
10840TIP3   OH254010   5.429   0.043   5.135  0.2731 -0.7599  0.4895
10840TIP3    H154011   5.337   0.043   5.159 -0.0494 -0.8073 -0.6683
10840TIP3    H254012   5.469   0.108   5.192 -0.3294 -1.2586  1.5068
10841TIP3   OH254013   1.823   1.912   5.563 -0.2125  0.3797  0.1106
10841TIP3    H154014   1.831   1.994   5.514  0.2212  0.9032  1.0213
10841TIP3    H254015   1.839   1.937   5.654 -1.5508 -0.4715  0.5983
10842TIP3   OH254016   4.581   3.253  14.137  0.1888  0.2606  0.4581
10842TIP3    H154017   4.565   3.187  14.204 -0.7205 -1.7669 -1.5931
10842TIP3    H254018   4.498   3.300  14.129  0.9341  1.9988  2.1507
10843TIP3   OH254019   2.353   6.463  16.561  0.4296 -0.0612 -0.2830
10843TIP3    H154020   2.268   6.425  16.538  1.2616 -2.6477  0.5806
10843TIP3    H254021   2.338   6.506  16.645 -0.3766  1.0029 -0.9425
10844TIP3   OH254022   2.217   2.925   0.614  0.2993 -0.1379 -0.0656
10844TIP3    H154023   2.280   2.872   0.663  0.2711  2.1465  2.6263
10844TIP3    H254024   2.135   2.876   0.620  0.8242 -1.0245  0.1038
10845TIP3   OH254025   6.698   0.821  17.207 -0.1998  0.2921 -0.1003
10845TIP3    H154026   6.721   0.902  17.163  0.5744 -0.0769 -0.3988
10845TIP3    H254027   6.777   0.767  17.200 -0.4418 -0.1940  0.7622
10846TIP3   OH254028   0.694   4.952  10.742 -0.1113 -0.0282  0.6412
10846TIP3    H154029   0.662   5.033  10.702  0.5053 -0.1283 -0.0617
10846TIP3    H254030   0.616   4.911  10.779 -0.8869 -0.4678 -1.3958
10847TIP3   OH254031   5.007   0.080   4.431  0.0905 -0.3215  0.5806
10847TIP3    H154032   5.026   0.153   4.491 -1.8839  1.3305 -0.6643
10847TIP3    H254033   4.913   0.066   4.440  0.0769 -1.2659 -0.7802
10848TIP3   OH254034   6.633   1.978  17.026  0.3559 -0.1585  0.1043
10848TIP3    H154035   6.566   1.928  17.072 -0.5943  0.0963 -0.9408
10848TIP3    H254036   6.589   2.008  16.946  1.7597 -0.0643 -0.6526
10849TIP3   OH254037   0.736   1.294  14.616 -0.4362  0.3131 -0.3956
10849TIP3    H154038   0.815   1.244  14.598 -0.3481  0.6799 -1.0713
10849TIP3    H254039   0.665   1.232  14.600 -0.2804 -0.2680  1.0472
10850TIP3   OH254040   5.010   1.309  14.736 -0.1725 -0.0216  0.2190
10850TIP3    H154041   4.930   1.338  14.692  1.4562  2.1995 -1.5303
10850TIP3    H254042   4.984   1.295  14.827 -2.7004 -0.2538 -0.4627
10851TIP3   OH254043   4.352   4.009  12.118  0.4902  0.4128 -0.0695
10851TIP3    H154044   4.410   3.940  12.086  0.3287 -1.5916  3.4981
10851TIP3    H254045   4.411   4.071  12.162  0.3112  0.8404 -0.4205
10852TIP3   OH254046   2.648   2.992   1.759 -0.3259 -0.1178  0.1731
10852TIP3    H154047   2.730   3.040   1.760 -0.1866 -0.3526  0.2046
10852TIP3    H254048   2.581   3.057   1.777 -0.2598  0.2835 -0.9314
10853TIP3   OH254049   5.818   0.171   5.987 -0.0562 -0.3232 -0.3180
10853TIP3    H154050   5.751   0.107   6.010  1.4556 -1.6722  0.5224
10853TIP3    H254051   5.791   0.205   5.902 -2.6312  0.3828  0.6877
10854TIP3   OH254052   6.381   2.024   4.210 -0.0054 -0.4590 -1.0210
10854TIP3    H154053   6.296   2.050   4.174  1.1726  3.3368 -1.5868
10854TIP3    H254054   6.434   2.001   4.134  0.1059 -0.5441 -0.9177
10855TIP3   OH254055   1.089   5.563  12.601  0.3955 -0.0122 -0.2523
10855TIP3    H154056   1.178   5.573  12.567  0.2893 -0.8991 -0.8049
10855TIP3    H254057   1.035   5.551  12.524  0.1293 -1.8775  0.1922
10856TIP3   OH254058   1.883   0.718  14.753 -0.1001 -0.2162 -0.2265
10856TIP3    H154059   1.813   0.653  14.745 -1.2139  0.8761  0.3622
10856TIP3    H254060   1.934   0.689  14.829  0.7347 -1.5809 -1.2640
10857TIP3   OH254061   0.217   4.789  14.390  0.1584  0.4765 -0.4388
10857TIP3    H154062   0.149   4.809  14.325 -0.6033  0.1140  0.2332
10857TIP3    H254063   0.259   4.710  14.356 -0.3989  0.1488 -0.3763
10858TIP3   OH254064   3.366   1.219  15.375  0.0169  0.7567 -0.3030
10858TIP3    H154065   3.386   1.198  15.466  0.4292  0.1489 -0.5298
10858TIP3    H254066   3.305   1.292  15.380  0.0209  0.7111  0.4632
10859TIP3   OH254067   4.502   3.053   4.835 -0.3623  0.1429  0.4009
10859TIP3    H154068   4.424   3.093   4.798 -0.4601 -0.6255 -0.2366
10859TIP3    H254069   4.474   2.967   4.865  0.3602 -0.3908 -0.3927
10860TIP3   OH254070   1.290   3.498  10.620 -0.3091 -0.3004  0.8930
10860TIP3    H154071   1.291   3.548  10.702 -2.0849  0.7131  0.3421
10860TIP3    H254072   1.207   3.450  10.622 -1.1839  1.0071 -0.9981
10861TIP3   OH254073   3.581   0.055   0.457  0.3000 -0.0458  0.5875
10861TIP3    H154074   3.636   0.119   0.413 -0.0509  0.2809  0.6232
10861TIP3    H254075   3.641   0.008   0.516  0.5012  0.4385  0.7698
10862TIP3   OH254076   6.648   6.607  17.098 -0.3839  0.4692 -0.1889
10862TIP3    H154077   6.575   6.607  17.037  0.9086 -2.1879 -1.9064
10862TIP3    H254078   6.693   6.691  17.082 -1.3225  0.7831 -1.2687
10863TIP3   OH254079   1.300   6.132   4.487 -0.2238  0.0077  0.7733
10863TIP3    H154080   1.211   6.100   4.473 -0.2426  0.3187  0.1489
10863TIP3    H254081   1.289   6.218   4.528 -0.2822  1.0132 -1.2535
10864TIP3   OH254082   2.938   4.049   6.285 -0.2888 -0.1322  0.0708
10864TIP3    H154083   2.969   3.959   6.281  0.6483  0.1975 -0.3344
10864TIP3    H254084   3.018   4.102   6.285 -0.8336  0.7113 -0.1354
10865TIP3   OH254085   1.341   3.374   2.186  0.2742  0.0439 -0.3900
10865TIP3    H154086   1.315   3.464   2.204  0.0854  0.3501 -1.9927
10865TIP3    H254087   1.431   3.368   2.219  0.1236  0.6732  0.1513
10866TIP3   OH254088   0.987   5.574   2.405  0.1246  0.2805 -0.0852
10866TIP3    H154089   0.963   5.603   2.493  0.7141  0.6782 -0.0514
10866TIP3    H254090   1.047   5.501   2.419 -1.0133 -0.7193 -0.1717
10867TIP3   OH254091   5.205   3.453   2.505  0.2367  0.5708  0.8474
10867TIP3    H154092   5.288   3.409   2.523  0.6276  1.5340  1.4996
10867TIP3    H254093   5.203   3.464   2.410  0.8913  0.5899  0.8320
10868TIP3   OH254094   0.957   4.277   3.502 -0.6782  0.2314  0.2797
10868TIP3    H154095   0.908   4.264   3.583  0.3593  1.3893  1.1476
10868TIP3    H254096   1.036   4.223   3.512 -2.1655 -2.5008 -1.5780
10869TIP3   OH254097   0.161   1.034   5.597 -0.5574 -0.6967  0.1079
10869TIP3    H154098   0.183   1.125   5.577  0.5465 -1.1119 -0.6999
10869TIP3    H254099   0.159   1.030   5.693 -0.0895  0.0763  0.1559
10870TIP3   OH254100   3.978   2.578   0.992 -0.1649  0.0809 -0.0492
10870TIP3    H154101   4.024   2.607   0.913 -1.6904  0.9789 -0.6533
10870TIP3    H254102   3.900   2.533   0.959 -0.6833  0.2193  0.9350
10871TIP3   OH254103   5.720   1.135  11.887 -0.3568 -0.3632  0.0143
10871TIP3    H154104   5.718   1.207  11.825 -0.5487 -0.6586 -0.3314
10871TIP3    H254105   5.766   1.169  11.963 -0.2925  0.0650 -0.2154
10872TIP3   OH254106   5.199   0.407  15.705 -0.2305 -0.2290 -0.0485
10872TIP3    H154107   5.213   0.474  15.638  1.9914  0.6898  1.2420
10872TIP3    H254108   5.109   0.420  15.734 -0.3515  1.1112 -0.9504
10873TIP3   OH254109   0.646   1.965   0.512 -0.0426  0.1718 -0.0886
10873TIP3    H154110   0.652   1.894   0.448  0.3079 -0.9976  1.2155
10873TIP3    H254111   0.735   2.000   0.518 -0.3416  1.2488 -1.2458
10874TIP3   OH254112   6.012   1.236  12.553  0.2053  0.3341 -0.3259
10874TIP3    H154113   5.929   1.224  12.506  0.9893  0.6488 -1.8250
10874TIP3    H254114   6.039   1.147  12.576 -0.6696  0.2439  0.4436
10875TIP3   OH254115   3.740   2.509   1.612  0.1052  1.0311 -0.6677
10875TIP3    H154116   3.692   2.436   1.573 -0.0965  0.7451  0.0938
10875TIP3    H254117   3.794   2.468   1.680  0.7181  1.4718 -0.8832
10876TIP3   OH254118   6.457   0.751   3.152 -0.1180 -0.4082 -0.0948
10876TIP3    H154119   6.422   0.780   3.236  0.6975 -0.9145  0.4276
10876TIP3    H254120   6.537   0.803   3.140 -0.9246  0.6377 -1.2078
10877TIP3   OH254121   4.834   6.202  16.238 -0.2524 -0.1540 -0.6729
10877TIP3    H154122   4.875   6.117  16.253 -1.4731 -0.7639 -0.7013
10877TIP3    H254123   4.825   6.208  16.143  0.7656  0.4766 -0.7443
10878TIP3   OH254124   0.028   3.536   2.774  0.5915 -0.1397  0.5263
10878TIP3    H154125   0.086   3.564   2.845  0.9441 -0.5947  0.4247
10878TIP3    H254126  -0.008   3.452   2.804 -0.6308  0.5104  0.9290
10879TIP3   OH254127   5.548   2.007  16.763  0.1215  0.4444 -0.1534
10879TIP3    H154128   5.588   2.064  16.697  0.0316  0.1969 -0.4229
10879TIP3    H254129   5.554   1.919  16.726 -0.5719  0.3879 -0.1399
10880TIP3   OH254130   4.908   0.066  10.753  0.6394  0.0504 -0.1405
10880TIP3    H154131   4.967   0.007  10.801  0.2185  0.8034  1.3670
10880TIP3    H254132   4.966   0.129  10.711  0.9783  0.0351  0.2926
10881TIP3   OH254133   4.684   1.096   5.271 -0.7083 -0.4602 -0.0190
10881TIP3    H154134   4.605   1.073   5.221  0.0061 -0.5115 -1.1592
10881TIP3    H254135   4.725   1.165   5.219 -0.3788  0.0855  0.9521
10882TIP3   OH254136   5.065   5.677   3.654  0.5824  0.3446  0.1569
10882TIP3    H154137   5.080   5.656   3.746 -1.0594  1.8409  0.8233
10882TIP3    H254138   5.146   5.720   3.626  1.8255 -1.7624  0.3103
10883TIP3   OH254139   3.571   1.854   5.614 -0.1433 -0.1122  0.0079
10883TIP3    H154140   3.574   1.806   5.697  0.8938  0.4386  0.2999
10883TIP3    H254141   3.495   1.913   5.623 -1.0388 -1.2161 -0.1091
10884TIP3   OH254142   6.385   1.872  15.759  0.3068  0.2817 -0.2352
10884TIP3    H154143   6.459   1.830  15.715 -0.7220 -2.5841  0.5897
10884TIP3    H254144   6.339   1.801  15.804 -2.5566  2.0372 -0.1103
10885TIP3   OH254145   0.507   3.477   4.761 -0.5750  0.2022 -0.4875
10885TIP3    H154146   0.431   3.491   4.817 -0.4993  1.1943 -0.6087
10885TIP3    H254147   0.476   3.418   4.693 -1.5801  1.4562 -1.1688
10886TIP3   OH254148   2.392   3.926   2.074 -0.2032 -0.1723 -0.0774
10886TIP3    H154149   2.362   4.001   2.022  0.1301 -0.2436 -0.3790
10886TIP3    H254150   2.326   3.916   2.142 -0.9392 -0.4092 -0.8054
10887TIP3   OH254151   1.847   2.707  12.110  0.0805 -0.1791 -0.1610
10887TIP3    H154152   1.779   2.731  12.173  0.3442  0.8403 -0.2379
10887TIP3    H254153   1.895   2.789  12.095  2.0900 -1.1093  0.8068
10888TIP3   OH254154   5.536   2.818   4.946 -0.2604 -0.3821 -0.4392
10888TIP3    H154155   5.464   2.854   4.894  0.5702  0.2768 -1.1478
10888TIP3    H254156   5.515   2.725   4.955 -1.2893 -0.1653 -0.4840
10889TIP3   OH254157   4.863   4.560  11.830 -0.5200 -0.2283  0.6387
10889TIP3    H154158   4.796   4.626  11.813  0.1195  0.6123  1.2667
10889TIP3    H254159   4.937   4.587  11.776  0.0294  0.0523  1.5014
10890TIP3   OH254160   3.523   4.078  15.062 -0.3038  0.4019  0.1538
10890TIP3    H154161   3.600   4.087  15.117  0.1080 -0.1532 -0.3240
10890TIP3    H254162   3.556   4.089  14.973 -0.9400  1.1566 -0.0032
10891TIP3   OH254163   1.564   4.792   1.514 -0.2053  0.0791 -0.4684
10891TIP3    H154164   1.587   4.713   1.464  1.5910  0.2005  0.1135
10891TIP3    H254165   1.564   4.862   1.449 -1.2276 -0.2700 -0.8785
10892TIP3   OH254166   0.129   1.602   0.232  0.1130 -0.1507 -0.1510
10892TIP3    H154167   0.193   1.672   0.219  0.0027  0.1338  0.7725
10892TIP3    H254168   0.157   1.558   0.312 -0.0542 -0.9128 -0.5055
10893TIP3   OH254169   2.848   6.810  11.818 -0.2245  0.1126 -0.3548
10893TIP3    H154170   2.814   6.887  11.864 -1.5544 -0.1602 -0.8342
10893TIP3    H254171   2.943   6.821  11.821 -0.1919 -0.0187  2.6798
10894TIP3   OH254172   5.064   3.368  15.957 -0.9300  0.0016  0.0432
10894TIP3    H154173   5.120   3.311  16.010 -1.2551 -0.3614  0.0020
10894TIP3    H254174   4.977   3.357  15.994 -1.0522  0.2265 -0.1748
10895TIP3   OH254175   0.723   3.366  16.915  0.5692  0.4219  0.1563
10895TIP3    H154176   0.803   3.316  16.902  1.3964  1.7033  0.1234
10895TIP3    H254177   0.753   3.456  16.929 -0.8417  0.8556  0.5733
10896TIP3   OH254178   5.492   2.891  15.218 -0.0695 -0.3743 -0.3648
10896TIP3    H154179   5.445   2.887  15.302 -0.2001  0.8451 -0.3611
10896TIP3    H254180   5.557   2.960  15.231  1.0156 -1.3058 -0.7315
10897TIP3   OH254181   6.132   2.120   4.113 -0.8481 -0.0675 -0.5071
10897TIP3    H154182   6.064   2.069   4.069 -0.9420 -2.1671  1.8541
10897TIP3    H254183   6.087   2.159   4.188  0.0974  0.2352 -0.0860
10898TIP3   OH254184   5.627   1.491   4.700 -0.0835  0.4419  0.0101
10898TIP3    H154185   5.558   1.538   4.653 -0.9084 -1.6021 -0.9421
10898TIP3    H254186   5.673   1.442   4.632  1.8003  1.1272  0.7496
10899TIP3   OH254187   5.582   1.221   1.092 -0.1182 -0.0103  0.1969
10899TIP3    H154188   5.640   1.208   1.167  1.8881 -0.0451 -1.2870
10899TIP3    H254189   5.583   1.316   1.077  0.9097 -0.1526 -0.8032
10900TIP3   OH254190   6.106   4.314   1.068 -0.0335  0.0708 -0.1017
10900TIP3    H154191   6.029   4.257   1.073 -0.3028  0.4771  0.6065
10900TIP3    H254192   6.073   4.401   1.091 -0.2190  1.1622 -3.9015
10901TIP3   OH254193   6.270   4.408   0.777 -0.3656  0.3866 -0.1168
10901TIP3    H154194   6.257   4.502   0.785 -0.0083  0.5105 -0.8269
10901TIP3    H254195   6.182   4.372   0.765 -0.5769  0.5351  0.8930
10902TIP3   OH254196   2.021   2.948   5.359 -0.3820 -0.3554  0.1208
10902TIP3    H154197   1.943   3.003   5.354 -1.7559 -2.2852 -0.7505
10902TIP3    H254198   2.052   2.959   5.448 -0.5319  1.8721 -0.0455
10903TIP3   OH254199   2.262   6.006  14.344  0.1767  0.4867  0.0287
10903TIP3    H154200   2.288   6.037  14.430  1.1757 -2.8910  1.1003
10903TIP3    H254201   2.175   5.970  14.356  1.8192 -3.8417  0.9515
10904TIP3   OH254202   6.225   0.310  13.310  0.4171 -0.6218 -0.1721
10904TIP3    H154203   6.311   0.280  13.282  1.1336  1.1566  0.0253
10904TIP3    H254204   6.237   0.336  13.401 -0.3871 -0.5663 -0.0750
10905TIP3   OH254205   1.351   4.450   5.476  0.2426 -0.2240  0.1182
10905TIP3    H154206   1.356   4.513   5.405  1.4391  2.3142  2.2646
10905TIP3    H254207   1.262   4.416   5.472 -0.9123  2.5882 -0.4369
10906TIP3   OH254208   5.135   0.798   5.208 -0.2803 -0.2063  0.5238
10906TIP3    H154209   5.108   0.882   5.170 -0.8086  0.2190  1.7745
10906TIP3    H254210   5.223   0.783   5.175 -0.2549  0.7560  0.1300
10907TIP3   OH254211   5.612   3.846  12.834 -0.6660  0.0286  0.0046
10907TIP3    H154212   5.703   3.831  12.858 -0.9688 -1.4181  0.3257
10907TIP3    H254213   5.563   3.830  12.915 -1.2776 -0.0529 -0.3713
10908TIP3   OH254214   1.420   4.285  15.170  0.1911 -0.2275 -0.0386
10908TIP3    H154215   1.430   4.314  15.079  0.9266 -1.3998 -0.3418
10908TIP3    H254216   1.473   4.347  15.220  0.5675 -0.1591 -0.5138
10909TIP3   OH254217   0.326   5.581   0.771 -0.0852  0.5045  0.1020
10909TIP3    H154218   0.251   5.598   0.827 -0.2513 -0.7052  0.2823
10909TIP3    H254219   0.291   5.582   0.682 -1.0692 -3.1944  0.2936
10910TIP3   OH254220   2.936   4.014   4.301  0.3603 -0.0989  0.4434
10910TIP3    H154221   3.006   3.996   4.239  0.4981 -0.8927  0.8116
10910TIP3    H254222   2.871   3.946   4.284 -0.9229  1.3486 -0.7377
10911TIP3   OH254223   0.048   4.173   5.001  0.2215  0.3463 -0.7312
10911TIP3    H154224  -0.039   4.151   5.032 -0.0813  1.9441 -0.3437
10911TIP3    H254225   0.042   4.167   4.905 -0.2706  0.2896 -0.6953
10912TIP3   OH254226   2.687   5.536  13.126  0.9869  0.2133 -0.1388
10912TIP3    H154227   2.663   5.614  13.176  1.1697  0.5841 -0.6142
10912TIP3    H254228   2.632   5.466  13.162  1.1420  0.4625  0.5899
10913TIP3   OH254229   1.566   3.055  12.330  0.0759 -0.3431  0.1673
10913TIP3    H154230   1.502   3.050  12.259  0.6744 -0.1972 -0.3894
10913TIP3    H254231   1.584   3.148  12.339  0.0417 -0.3671  0.4779
10914TIP3   OH254232   6.493   3.865  11.368  0.6015  0.3672 -0.6153
10914TIP3    H154233   6.576   3.817  11.369  0.2404 -0.3163 -1.5899
10914TIP3    H254234   6.518   3.957  11.356  1.2971  0.4679  1.2439
10915TIP3   OH254235   5.874   1.525  14.989 -0.0739  0.2656 -0.2907
10915TIP3    H154236   5.782   1.545  14.975 -0.1476 -0.9009 -1.6432
10915TIP3    H254237   5.874   1.441  15.034  0.3178 -0.9217 -2.3956
10916TIP3   OH254238   0.228   6.059  16.689  0.4416  0.2398 -0.2127
10916TIP3    H154239   0.308   6.052  16.742  0.0379 -0.5366  0.3229
10916TIP3    H254240   0.207   6.152  16.690  0.0830  0.1805  1.5821
10917TIP3   OH254241   3.787   1.753  11.299 -0.0470 -0.3294 -1.0378
10917TIP3    H154242   3.788   1.659  11.315  0.9622 -0.1082  0.4326
10917TIP3    H254243   3.877   1.781  11.316 -0.0910  0.7627 -2.4425
10918TIP3   OH254244   3.204   0.736   1.966  0.1724  0.1024 -0.1920
10918TIP3    H154245   3.252   0.723   2.047 -0.3672 -1.2886 -0.0618
10918TIP3    H254246   3.169   0.825   1.972  0.3652  0.1099  0.9788
10919TIP3   OH254247   5.456   1.455  14.406 -0.1095  0.1950 -0.2700
10919TIP3    H154248   5.533   1.417  14.364 -1.2502 -0.6590 -1.6962
10919TIP3    H254249   5.390   1.386  14.403 -0.7222  0.6265  1.6483
10920TIP3   OH254250   2.756   2.407  10.841  0.4595 -0.4697 -0.2043
10920TIP3    H154251   2.834   2.355  10.821  0.3506 -0.0428 -1.9432
10920TIP3    H254252   2.753   2.473  10.771 -1.9083 -0.9652 -0.6519
10921TIP3   OH254253   2.325   3.185  11.587  0.0428  0.4069 -0.0643
10921TIP3    H154254   2.286   3.212  11.670  1.6080  3.5768 -0.1907
10921TIP3    H254255   2.392   3.121  11.611 -0.6419  0.0357  0.9004
10922TIP3   OH254256   4.783   0.753   1.339 -0.7747 -0.3881  0.5213
10922TIP3    H154257   4.752   0.802   1.415  0.6090 -1.1280  1.6033
10922TIP3    H254258   4.843   0.688   1.375 -2.8817 -3.2977 -0.7712
10923TIP3   OH254259   1.930   3.672  14.991 -0.1513 -0.5981 -0.4046
10923TIP3    H154260   2.014   3.629  15.008  0.4227  0.0115 -1.5982
10923TIP3    H254261   1.897   3.694  15.078  0.8614 -0.9703  0.0931
10924TIP3   OH254262   3.009   1.544  14.261  0.1376 -0.4066 -0.0009
10924TIP3    H154263   2.938   1.585  14.310  0.8308  0.6388  0.1762
10924TIP3    H254264   2.971   1.463  14.226 -1.4580  0.6316 -0.7985
10925TIP3   OH254265   2.150   6.242  16.945 -0.1749 -0.0270  0.5872
10925TIP3    H154266   2.150   6.199  17.031  0.4941 -0.4885  0.3662
10925TIP3    H254267   2.225   6.302  16.950  0.5591 -0.8616 -0.0534
10926TIP3   OH254268   0.530   6.129  15.141 -0.4050  0.3140  0.4208
10926TIP3    H154269   0.594   6.068  15.179  0.9197  0.8875 -0.7662
10926TIP3    H254270   0.445   6.087  15.155  0.1428 -0.1496  2.6694
10927TIP3   OH254271   1.645   1.884  13.781  0.6622  0.0027 -0.3410
10927TIP3    H154272   1.579   1.948  13.755 -0.4357 -0.8486  0.2673
10927TIP3    H254273   1.644   1.884  13.876  1.5556 -0.0262 -0.3174
10928TIP3   OH254274   1.691   0.697  15.610  0.0977  0.5881 -0.1852
10928TIP3    H154275   1.723   0.780  15.575  0.3684  0.8606  0.7036
10928TIP3    H254276   1.657   0.651  15.533 -3.0383  2.8201 -0.3055
10929TIP3   OH254277   0.517   5.217   3.799  0.0802  0.5884  0.8405
10929TIP3    H154278   0.528   5.307   3.830  0.4253  0.2212  1.8114
10929TIP3    H254279   0.604   5.193   3.766 -0.0387  0.6446  0.4846
10930TIP3   OH254280   6.098   2.478  14.644  0.1794 -0.0656 -0.7095
10930TIP3    H154281   6.013   2.458  14.684 -0.0029  1.9283  0.0051
10930TIP3    H254282   6.162   2.440  14.703 -0.0852  2.7317  1.5749
10931TIP3   OH254283   5.247   2.610  14.525  0.3372  0.5356  0.0305
10931TIP3    H154284   5.337   2.581  14.540  0.0146 -1.3537 -1.2591
10931TIP3    H254285   5.253   2.671  14.452  0.4044 -1.4601 -1.7451
10932TIP3   OH254286   0.725   2.541   5.760 -0.2236  0.5181 -0.0531
10932TIP3    H154287   0.810   2.560   5.800 -1.5155  0.9898  2.6936
10932TIP3    H254288   0.680   2.625   5.757 -0.9380  0.1275 -0.6238
10933TIP3   OH254289   0.680   2.859  15.355  1.1830 -0.1316  0.1614
10933TIP3    H154290   0.668   2.804  15.278 -0.2821 -0.3504  0.5188
10933TIP3    H254291   0.691   2.948  15.319  1.5573 -0.3655 -0.3206
10934TIP3   OH254292   5.110   1.173   0.272  0.3571  0.4417 -0.1675
10934TIP3    H154293   5.124   1.253   0.321  1.9187  0.4845 -0.6329
10934TIP3    H254294   5.192   1.124   0.281 -0.9502 -1.6967  1.1345
10935TIP3   OH254295   3.682   0.658  15.158  0.1175 -0.7566 -0.3163
10935TIP3    H154296   3.758   0.689  15.207 -1.3397  0.4406  1.2892
10935TIP3    H254297   3.650   0.736  15.112 -0.4319 -1.1525 -0.6097
10936TIP3   OH254298   4.685   3.399   2.817  0.8472  0.1975  0.3493
10936TIP3    H154299   4.756   3.350   2.859  0.3747  0.0778  1.0211
10936TIP3    H254300   4.700   3.387   2.723  1.7691  0.2576  0.4845
10937TIP3   OH254301   6.697   3.209  14.694  0.2140 -0.1240  0.4134
10937TIP3    H154302   6.785   3.198  14.730 -0.1220 -2.2223  0.7227
10937TIP3    H254303   6.683   3.132  14.639 -1.5001  0.0753  0.5012
10938TIP3   OH254304   4.578   2.332   4.643  0.0360  0.2943  0.0386
10938TIP3    H154305   4.669   2.360   4.631  0.4497 -1.2104 -0.5722
10938TIP3    H254306   4.574   2.303   4.734  1.4076 -3.5612 -0.9289
10939TIP3   OH254307   6.079   4.811   3.380 -0.5055 -0.5470 -0.9482
10939TIP3    H154308   6.057   4.760   3.458  1.8836  0.2492  0.3380
10939TIP3    H254309   6.126   4.749   3.323 -0.3686 -0.5694 -0.8089
10940TIP3   OH254310   0.720   0.441  13.028  0.1840 -0.7685 -0.1764
10940TIP3    H154311   0.664   0.413  12.956  0.8193 -0.8159 -0.6672
10940TIP3    H254312   0.724   0.537  13.020 -2.1929 -0.4199  1.6536
10941TIP3   OH254313   6.369   5.347   3.354 -0.0636  0.0546 -0.1620
10941TIP3    H154314   6.424   5.393   3.290  0.8207 -0.0662  0.4930
10941TIP3    H254315   6.295   5.407   3.369  0.9477  1.2019  0.5044
10942TIP3   OH254316   5.939   5.627  12.738 -0.0533 -0.4397  0.0525
10942TIP3    H154317   5.911   5.549  12.786 -2.6266  0.9349  0.9608
10942TIP3    H254318   5.861   5.682  12.734  1.1465  1.2562 -2.2944
10943TIP3   OH254319   0.234   4.077  15.570  0.6609 -0.2025 -0.6150
10943TIP3    H154320   0.168   4.011  15.551 -0.6124  0.8142  0.0925
10943TIP3    H254321   0.282   4.087  15.488 -1.9032  1.0108 -2.1171
10944TIP3   OH254322   6.558   0.126  13.793 -0.1036 -0.0766  0.3950
10944TIP3    H154323   6.470   0.104  13.764  0.1024 -0.5051  0.0743
10944TIP3    H254324   6.608   0.132  13.712  0.0382  0.7322  0.5341
10945TIP3   OH254325   1.157   5.007   0.265 -0.0396  0.0789  0.2217
10945TIP3    H154326   1.243   4.988   0.229  1.9353  1.8682  3.5156
10945TIP3    H254327   1.125   4.923   0.297  1.0287 -0.4280 -0.0008
10946TIP3   OH254328   0.053   4.727   1.785  0.2763 -0.2175  0.2206
10946TIP3    H154329   0.007   4.713   1.702  2.9599  1.0081 -1.6189
10946TIP3    H254330   0.051   4.822   1.798 -0.5035 -0.4185  1.8641
10947TIP3   OH254331   3.739   4.770  13.459  0.4256  0.3677 -0.1438
10947TIP3    H154332   3.745   4.840  13.524 -1.0232 -0.3616  0.8644
10947TIP3    H254333   3.781   4.695  13.501  0.0516  0.0667 -0.2934
10948TIP3   OH254334   5.701   3.997   0.694 -0.8506  0.9448  0.2496
10948TIP3    H154335   5.613   3.992   0.731 -1.6785 -0.7239 -1.7542
10948TIP3    H254336   5.745   3.918   0.726  0.1056  1.9779  1.5811
10949TIP3   OH254337   6.712   4.948  13.800 -0.1439  0.0757  0.2393
10949TIP3    H154338   6.663   4.884  13.747  0.0918  1.0858 -1.2563
10949TIP3    H254339   6.800   4.911  13.807  0.3435  0.7656 -1.6891
10950TIP3   OH254340   6.774   0.845   1.240 -0.0172 -0.3208 -0.1471
10950TIP3    H154341   6.723   0.765   1.233  2.0799 -1.6435 -1.3489
10950TIP3    H254342   6.830   0.831   1.317  0.2362  0.0497 -0.2613
10951TIP3   OH254343   0.537   4.677  13.963 -0.5172 -0.4372 -0.1859
10951TIP3    H154344   0.444   4.674  13.986 -0.6368  0.5394 -0.4732
10951TIP3    H254345   0.582   4.677  14.048 -0.8762  1.0939  0.0462
10952TIP3   OH254346   6.010   2.032  13.587  0.1383 -0.9342  0.1501
10952TIP3    H154347   6.004   1.937  13.573  2.1654 -1.0019 -0.5855
10952TIP3    H254348   5.989   2.071  13.502  1.4647 -0.8626 -0.1774
10953TIP3   OH254349   4.065   3.037  16.972 -0.3221  0.2603 -0.2366
10953TIP3    H154350   4.101   3.126  16.970 -1.6263  0.8138 -0.0865
10953TIP3    H254351   4.077   3.004  16.883  2.0479 -0.2257  0.2022
10954TIP3   OH254352   1.809   0.070   1.703  0.3598  0.1408  0.2325
10954TIP3    H154353   1.753   0.149   1.707  1.6284  1.0555  0.5295
10954TIP3    H254354   1.867   0.079   1.778  0.9596 -0.7539 -0.1199
10955TIP3   OH254355   1.277   6.812  14.294 -0.1181  0.4767  0.1670
10955TIP3    H154356   1.248   6.757  14.221  2.0028  0.0703 -0.4430
10955TIP3    H254357   1.244   6.768  14.372 -1.6295  0.4091 -0.4816
10956TIP3   OH254358   5.303   3.102  15.586 -0.1718  0.0026  0.1032
10956TIP3    H154359   5.379   3.154  15.609 -0.1734 -0.7590  2.0213
10956TIP3    H254360   5.228   3.153  15.617 -0.2647 -0.3992  0.5571
10957TIP3   OH254361   1.891   1.904  13.154 -0.6248 -0.6761  0.3529
10957TIP3    H154362   1.936   1.970  13.100  0.7062 -1.4011  0.5348
10957TIP3    H254363   1.872   1.950  13.236 -0.0977 -0.3810  0.3191
10958TIP3   OH254364   5.995   3.374  12.522 -0.2646 -0.3976  0.1021
10958TIP3    H154365   6.000   3.282  12.497 -0.7090 -0.2030 -0.7392
10958TIP3    H254366   6.082   3.394  12.558  0.8193 -0.4188 -2.3165
10959TIP3   OH254367   4.378   6.364  13.921  0.2233  0.4821  0.2409
10959TIP3    H154368   4.380   6.410  13.837  1.5306  3.4406  1.7396
10959TIP3    H254369   4.295   6.390  13.960  0.1981  0.1480  0.4163
10960TIP3   OH254370   3.122   3.155  13.400  0.0749  0.1450 -0.2051
10960TIP3    H154371   3.190   3.212  13.364  0.0339  2.1183  2.5283
10960TIP3    H254372   3.169   3.078  13.432  0.8507  0.8058  0.2926
10961TIP3   OH254373   3.264   2.949  13.220 -0.3652 -0.2460  0.0679
10961TIP3    H154374   3.338   2.962  13.160 -1.0263  1.3952 -0.4636
10961TIP3    H254375   3.190   2.991  13.176 -1.0134  0.4631  1.7379
10962TIP3   OH254376   2.584   5.554   2.795  0.8087 -0.3541  0.2999
10962TIP3    H154377   2.554   5.523   2.880 -0.2783 -0.0075  0.0677
10962TIP3    H254378   2.503   5.563   2.743  1.3199  0.6214 -0.3671
10963TIP3   OH254379   3.129   6.759   5.796 -0.7544 -0.6750  0.8248
10963TIP3    H154380   3.084   6.843   5.792  0.9853  0.2440 -0.6737
10963TIP3    H254381   3.075   6.701   5.742 -1.8591 -0.5236  1.7082
10964TIP3   OH254382   2.717   3.961   2.498 -0.3442 -0.5485 -0.4804
10964TIP3    H154383   2.757   3.945   2.412  0.9988 -0.5278  0.1188
10964TIP3    H254384   2.791   3.972   2.557 -1.2360 -1.6129  0.8967
10965TIP3   OH254385   2.117   2.417  17.242 -0.0328  0.2677  0.2070
10965TIP3    H154386   2.190   2.463  17.284 -0.6810  1.7182 -0.1771
10965TIP3    H254387   2.078   2.483  17.185 -2.0706 -0.2612  0.9166
10966TIP3   OH254388   1.230   2.694  16.137  0.2202 -0.2087 -0.3105
10966TIP3    H154389   1.215   2.616  16.084  0.1831 -1.2842  1.2072
10966TIP3    H254390   1.143   2.717  16.171  0.5110 -0.8374  0.9586
10967TIP3   OH254391   1.994   5.758  13.129 -0.0168  0.1080  0.1415
10967TIP3    H154392   1.952   5.728  13.049  1.6836 -0.7022 -0.4773
10967TIP3    H254393   2.080   5.788  13.102  0.8093 -0.7035  1.7348
10968TIP3   OH254394   6.105   3.985  13.193  0.3161  0.1363  0.4636
10968TIP3    H154395   6.105   3.892  13.214  0.4836 -0.0813 -0.4678
10968TIP3    H254396   6.195   4.014  13.210  0.4564 -0.0421  0.0258
10969TIP3   OH254397   1.644   1.209   1.623 -0.1416 -0.0892  0.5983
10969TIP3    H154398   1.707   1.137   1.632  1.8625  1.5890  0.8114
10969TIP3    H254399   1.665   1.249   1.538 -0.8085  0.6211  0.7512
10970TIP3   OH254400   0.757   2.253   2.366 -0.3516  0.1068  0.3526
10970TIP3    H154401   0.782   2.161   2.374 -2.4447 -0.5298  0.2840
10970TIP3    H254402   0.681   2.252   2.308 -2.0361  1.5293  2.3791
10971TIP3   OH254403   3.369   6.716  15.039 -0.0496 -0.5156 -0.0186
10971TIP3    H154404   3.443   6.753  14.991  0.8480 -0.3317  1.4745
10971TIP3    H254405   3.340   6.643  14.984 -0.5888  1.0904 -2.0327
10972TIP3   OH254406   5.669   6.023  15.135  0.7891  0.2390  0.4551
10972TIP3    H154407   5.624   6.094  15.089  1.5021  0.2566 -0.2454
10972TIP3    H254408   5.648   5.945  15.084  0.7322  0.0863  0.7111
10973TIP3   OH254409   1.097   1.726  12.410  0.4764 -0.0877 -0.0306
10973TIP3    H154410   1.061   1.707  12.323  0.5368 -1.1066  0.1563
10973TIP3    H254411   1.033   1.785  12.449 -0.9177 -1.6566  0.1862
10974TIP3   OH254412   5.477   4.629   0.023  0.3741  0.2218  0.2818
10974TIP3    H154413   5.567   4.615   0.052  0.3463 -0.6721 -0.0376
10974TIP3    H254414   5.483   4.698  -0.043  1.0538 -0.9924 -0.9564
10975TIP3   OH254415   0.708   5.499  13.137  0.2286  0.2391  0.7754
10975TIP3    H154416   0.751   5.584  13.149 -0.9871  1.2665 -1.5264
10975TIP3    H254417   0.780   5.439  13.118  1.0802  0.8095  2.0728
10976TIP3   OH254418   2.603   6.628   2.638  0.2510  0.0020  0.2092
10976TIP3    H154419   2.546   6.575   2.582  0.7500  0.1957 -0.4958
10976TIP3    H254420   2.674   6.569   2.662  1.1202  0.4686 -1.0529
10977TIP3   OH254421   1.234   4.434  13.916  0.5234 -0.0862  0.2015
10977TIP3    H154422   1.149   4.393  13.929 -0.0859  0.8737 -0.5960
10977TIP3    H254423   1.285   4.409  13.993 -1.0020  0.6651  1.5255
10978TIP3   OH254424   6.517   4.075   2.673  1.0869  0.0949 -0.3727
10978TIP3    H154425   6.545   4.002   2.619  1.4914 -0.7958  0.9993
10978TIP3    H254426   6.548   4.054   2.761  0.1283  1.3145  0.2969
10979TIP3   OH254427   1.294   6.402   3.269 -0.5866 -0.4630 -0.3887
10979TIP3    H154428   1.378   6.425   3.310  0.3802 -2.9114 -0.8627
10979TIP3    H254429   1.279   6.473   3.206  2.7939 -1.4128 -2.5872
10980TIP3   OH254430   2.248   4.964  11.417  0.1561 -0.2158  0.8534
10980TIP3    H154431   2.327   4.951  11.471  2.4002  0.2880 -2.0531
10980TIP3    H254432   2.239   4.882  11.369  1.2775  1.0005 -1.5915
10981TIP3   OH254433   5.898   4.723  16.908  0.1507  0.5872 -0.0416
10981TIP3    H154434   5.830   4.767  16.958 -1.2441 -1.2908 -0.1669
10981TIP3    H254435   5.877   4.630  16.916  2.9900 -0.1128  0.2814
10982TIP3   OH254436   6.147   3.042   4.950  0.4862 -0.1343  0.2035
10982TIP3    H154437   6.229   3.005   4.981  2.0726  1.3835 -1.8992
10982TIP3    H254438   6.135   3.006   4.862 -0.1877  0.9548 -0.1776
10983TIP3   OH254439   3.830   5.366   1.221  0.3094 -0.2960 -0.2327
10983TIP3    H154440   3.837   5.352   1.127  2.8611 -2.5647  0.1868
10983TIP3    H254441   3.895   5.433   1.241  0.2781 -0.3387  0.0156
10984TIP3   OH254442   5.214   4.514  17.272  0.5085 -0.1367 -0.2461
10984TIP3    H154443   5.239   4.461  17.348  1.2583  1.0983  0.3933
10984TIP3    H254444   5.279   4.491  17.205  0.0095 -1.0221 -0.4507
10985TIP3   OH254445   1.633   0.568  16.345  0.2030  0.0224 -0.0204
10985TIP3    H154446   1.580   0.612  16.279 -0.2287  0.6385  0.7269
10985TIP3    H254447   1.689   0.509  16.295 -0.0932  0.5032 -0.9380
10986TIP3   OH254448   4.598   3.049   3.658  1.1335 -0.0479  0.1610
10986TIP3    H154449   4.635   3.066   3.571  2.0920 -0.8320  0.4069
10986TIP3    H254450   4.582   2.954   3.659 -0.3429  0.1713  0.2836
10987TIP3   OH254451   1.770   4.914  13.644 -0.2005  0.2698  0.3150
10987TIP3    H154452   1.753   4.929  13.551  0.0886 -1.5354 -0.0621
10987TIP3    H254453   1.845   4.854  13.645  0.0379  0.5640  1.7270
10988TIP3   OH254454   0.395   4.024   3.497  0.2122 -0.6180 -0.0628
10988TIP3    H154455   0.345   4.036   3.578  0.3523 -3.0851  0.4582
10988TIP3    H254456   0.364   4.094   3.440 -0.5253  0.6759  1.7977
10989TIP3   OH254457   4.441   4.041   0.114 -0.2324  0.3190 -0.6117
10989TIP3    H154458   4.416   3.954   0.084 -2.5478  0.5886  0.3449
10989TIP3    H254459   4.360   4.079   0.149  0.7218  2.8326 -0.9277
10990TIP3   OH254460   1.366   1.689  10.796 -0.2453 -0.1094 -0.0556
10990TIP3    H154461   1.448   1.714  10.754  1.1970  0.2132  2.7376
10990TIP3    H254462   1.298   1.729  10.742  1.3195 -1.1091 -2.9306
10991TIP3   OH254463   3.189   1.736  11.865  0.6206 -0.0914 -0.1830
10991TIP3    H154464   3.133   1.744  11.943  0.6832 -2.6919  0.2218
10991TIP3    H254465   3.137   1.683  11.804  2.7074 -3.1090  0.4371
10992TIP3   OH254466   3.916   5.391   3.560 -0.1455  0.4662  0.6107
10992TIP3    H154467   3.860   5.334   3.612  0.9286 -1.9556 -0.6751
10992TIP3    H254468   3.935   5.466   3.616  0.3716 -1.6339  3.4575
10993TIP3   OH254469   1.415   0.463  10.626  0.5525 -0.3107 -0.4756
10993TIP3    H154470   1.460   0.460  10.542 -0.5142 -1.5161 -1.0528
10993TIP3    H254471   1.355   0.388  10.623 -1.0144  0.8305  0.5041
10994TIP3   OH254472   3.508   6.608   6.553  0.4695 -0.0863  0.1230
10994TIP3    H154473   3.488   6.654   6.634 -0.8154  0.2555 -0.3569
10994TIP3    H254474   3.538   6.521   6.581 -0.1392 -0.0332  0.9598
10995TIP3   OH254475   1.343   5.437   1.606  0.0938  0.4013  0.4864
10995TIP3    H154476   1.411   5.442   1.673 -1.5795 -0.6001  2.3841
10995TIP3    H254477   1.371   5.365   1.550  1.7325  1.5151 -0.1905
10996TIP3   OH254478   4.001   1.942   4.731 -0.2269 -0.1705  0.4129
10996TIP3    H154479   3.955   1.904   4.656 -0.3803 -0.4420  0.6437
10996TIP3    H254480   3.982   1.883   4.804  0.5660 -0.3405  0.4947
10997TIP3   OH254481   1.432   4.023  15.295 -0.2587 -0.3150  0.1379
10997TIP3    H154482   1.355   4.034  15.351 -0.0284 -1.9753  0.8535
10997TIP3    H254483   1.447   4.109  15.256 -1.4902  0.4345  1.2597
10998TIP3   OH254484   4.463   4.991  11.106 -0.1021 -0.0450  0.0189
10998TIP3    H154485   4.452   5.085  11.095  0.0970  0.3630  2.5551
10998TIP3    H254486   4.377   4.961  11.137  0.5820 -0.1056  2.0543
10999TIP3   OH254487   5.266   0.047   5.646 -0.3519  0.1146 -0.2652
10999TIP3    H154488   5.317  -0.031   5.621 -0.8186 -0.0901 -0.5882
10999TIP3    H254489   5.175   0.017   5.649 -0.2299 -0.6094  4.2584
11000TIP3   OH254490   5.423   0.346   5.064 -0.6458  0.0683 -0.1430
11000TIP3    H154491   5.455   0.263   5.029 -0.6832  0.0258 -0.0750
11000TIP3    H254492   5.329   0.346   5.044 -0.9333 -0.5534  1.1507
11001TIP3   OH254493   3.655   0.602   1.544 -0.4665 -0.3698  0.5644
11001TIP3    H154494   3.712   0.662   1.496  1.2602  0.2772  3.1851
11001TIP3    H254495   3.567   0.637   1.531  0.2543  1.3761  0.1265
11002TIP3   OH254496   3.530   3.231  17.072  0.5298  0.3138 -0.0041
11002TIP3    H154497   3.504   3.311  17.024  1.4754  0.6390  0.0101
11002TIP3    H254498   3.614   3.206  17.033 -1.1306 -2.4712 -2.1856
11003TIP3   OH254499   5.708   4.415  15.854  0.1291  0.2381  0.4198
11003TIP3    H154500   5.754   4.333  15.840 -1.9797 -0.9147 -0.2380
11003TIP3    H254501   5.631   4.391  15.905  0.7518  2.2589  2.5067
11004TIP3   OH254502   2.922   4.617  13.547 -0.0498  0.2498 -0.4966
11004TIP3    H154503   2.974   4.624  13.627 -1.8016  0.1218  0.7126
11004TIP3    H254504   2.949   4.692  13.494 -0.1956  1.4518  1.0588
11005TIP3   OH254505   6.402   2.047  16.423  0.3351  0.6839  0.4385
11005TIP3    H154506   6.406   2.127  16.370 -1.5438  0.1385 -0.6256
11005TIP3    H254507   6.362   2.075  16.505 -0.2750  0.8837  0.0881
11006TIP3   OH254508   1.122   0.233  16.490 -0.0344 -0.0806  0.6061
11006TIP3    H154509   1.054   0.299  16.484 -1.0235 -1.0458  0.9200
11006TIP3    H254510   1.204   0.281  16.476 -0.5338  1.5422  2.7536
11007TIP3   OH254511   2.361   3.024  13.482 -0.0654  0.0662  0.3101
11007TIP3    H154512   2.403   3.021  13.568  0.6025  0.8430  0.0291
11007TIP3    H254513   2.361   3.117  13.460 -0.2745 -0.1267 -0.5053
11008TIP3   OH254514   3.443   6.094   2.182 -0.3863  0.0270  0.2609
11008TIP3    H154515   3.527   6.051   2.171  0.2457  0.2548  3.2552
11008TIP3    H254516   3.394   6.074   2.102  1.6896 -1.9550 -0.6050
11009TIP3   OH254517   5.323   0.146  13.449 -0.0458  0.0723 -0.0976
11009TIP3    H154518   5.404   0.153  13.500 -0.1671 -0.0893  0.1177
11009TIP3    H254519   5.262   0.205  13.492  0.3469  1.1971 -1.0297
11010TIP3   OH254520   4.099   4.622   5.579  0.0162  0.0784 -0.5496
11010TIP3    H154521   4.125   4.538   5.542 -1.4348 -0.2754 -0.8359
11010TIP3    H254522   4.145   4.626   5.663 -0.6571 -1.4804 -0.0588
11011TIP3   OH254523   1.965   2.959  12.114  0.2934 -0.4925  0.4586
11011TIP3    H154524   1.913   3.039  12.102 -0.1660 -0.4471  2.4066
11011TIP3    H254525   2.043   2.988  12.162  0.8390 -0.9966 -0.1006
11012TIP3   OH254526   2.839   2.800  11.028 -0.7661 -0.6360  0.7266
11012TIP3    H154527   2.762   2.746  11.050 -1.2642 -1.3109 -2.2177
11012TIP3    H254528   2.802   2.882  10.995 -0.0570  0.6282  2.9148
11013TIP3   OH254529   4.519   5.562  15.042 -0.3394  0.1848 -0.1715
11013TIP3    H154530   4.597   5.608  15.073  1.4233 -3.0177  0.5918
11013TIP3    H254531   4.473   5.537  15.123  0.0383 -1.3688 -0.4027
11014TIP3   OH254532   3.399   1.327  12.194 -0.0171 -0.0469 -0.7007
11014TIP3    H154533   3.348   1.272  12.134 -0.3467 -0.2680 -0.2205
11014TIP3    H254534   3.490   1.314  12.167 -0.0474 -1.1860 -0.3032
11015TIP3   OH254535   6.190   5.590   3.735 -0.4440 -0.2937 -0.5178
11015TIP3    H154536   6.155   5.678   3.717  1.7642  0.7585 -0.0881
11015TIP3    H254537   6.205   5.552   3.648  0.2208  0.4917 -0.7663
11016TIP3   OH254538   2.863   3.769   1.571 -0.4786 -0.1085  0.1408
11016TIP3    H154539   2.791   3.730   1.522 -0.4772 -0.3176  0.3046
11016TIP3    H254540   2.941   3.748   1.520 -0.5256  0.0607 -0.0017
11017TIP3   OH254541   0.796   0.529   3.547  0.4168 -0.0403  0.0478
11017TIP3    H154542   0.811   0.496   3.635  0.7783  0.4869  0.1904
11017TIP3    H254543   0.861   0.484   3.493 -0.8195 -1.5530 -0.2543
11018TIP3   OH254544   5.135   3.860   3.918 -0.4009 -0.1738 -0.4389
11018TIP3    H154545   5.109   3.901   4.001 -0.1512  0.7625 -0.8101
11018TIP3    H254546   5.187   3.784   3.944 -0.8044 -0.2189  0.2696
11019TIP3   OH254547   5.961   4.413  14.175  0.3550 -0.2907 -0.5341
11019TIP3    H154548   6.000   4.459  14.250 -1.5610  0.4627  0.0793
11019TIP3    H254549   6.030   4.354  14.145  0.6552 -2.0288  2.9968
11020TIP3   OH254550   6.450   3.311  12.985  0.3138 -0.3899  0.4978
11020TIP3    H154551   6.514   3.295  13.054  0.4507 -0.9219  0.2558
11020TIP3    H254552   6.365   3.308  13.030  0.4466  0.2531  0.8064
11021TIP3   OH254553   5.799   2.321   1.162 -0.6676  0.0874 -0.1095
11021TIP3    H154554   5.878   2.289   1.204 -1.4327 -0.6721  0.7964
11021TIP3    H254555   5.789   2.265   1.085  0.0219  0.6148 -0.5895
11022TIP3   OH254556   1.667   4.687   2.833  0.0050 -0.2777 -0.4166
11022TIP3    H154557   1.604   4.748   2.871  0.8473  1.0065 -1.0119
11022TIP3    H254558   1.618   4.605   2.825 -1.1258  0.2615  0.5120
11023TIP3   OH254559   6.077   4.514  14.477  0.7856 -0.5908  0.2715
11023TIP3    H154560   6.123   4.486  14.556  1.9905 -2.8073 -1.1014
11023TIP3    H254561   6.144   4.559  14.425  0.3032 -0.1447  0.0323
11024TIP3   OH254562   5.605   5.182   3.358 -0.1918 -0.5013  0.2342
11024TIP3    H154563   5.624   5.216   3.271 -0.7315 -1.6922 -0.3767
11024TIP3    H254564   5.541   5.112   3.343 -2.2918  0.9266  1.8101
11025TIP3   OH254565   6.136   4.929   1.005  0.1260  0.7595  0.0236
11025TIP3    H154566   6.192   5.002   0.977  1.3865 -0.1098  0.1492
11025TIP3    H254567   6.078   4.967   1.071  2.1696  1.2545  1.6637
11026TIP3   OH254568   3.909   6.121   0.815  0.0761  0.0409  0.7961
11026TIP3    H154569   3.851   6.085   0.749 -2.1111  2.1880  1.3931
11026TIP3    H254570   3.939   6.204   0.779  0.9768  0.0145  1.4344
11027TIP3   OH254571   2.946   1.397  14.862 -0.2268  0.0558 -0.3740
11027TIP3    H154572   2.859   1.360  14.849  0.1484 -0.6731 -0.9148
11027TIP3    H254573   2.936   1.459  14.934 -0.9398 -0.9428  0.4179
11028TIP3   OH254574   4.470   2.941   1.662 -0.2399  0.2576  0.2551
11028TIP3    H154575   4.476   2.854   1.701 -1.1535  0.4394  0.8382
11028TIP3    H254576   4.386   2.941   1.615 -1.2912  1.4811  2.0088
11029TIP3   OH254577   5.972   1.258   0.137 -0.0756 -0.3038  0.0813
11029TIP3    H154578   6.035   1.330   0.130 -0.8163  0.2510 -0.9483
11029TIP3    H254579   5.950   1.255   0.230 -0.6055  1.3030  0.0338
11030TIP3   OH254580   6.433   2.351   1.459 -0.0300  0.3147  0.1056
11030TIP3    H154581   6.365   2.312   1.514  1.6210 -0.0724  1.9790
11030TIP3    H254582   6.394   2.433   1.428 -1.9480 -0.7039 -0.3064
11031TIP3   OH254583   4.233   6.686   4.435  0.4449 -0.1718 -0.2263
11031TIP3    H154584   4.163   6.630   4.469  0.0207  0.7984  0.5628
11031TIP3    H254585   4.248   6.655   4.346 -0.3408 -1.0088 -0.0802
11032TIP3   OH254586   1.064   3.511   3.040  0.5473 -0.2049  0.4971
11032TIP3    H154587   1.151   3.551   3.049 -0.0410  1.3324 -0.2859
11032TIP3    H254588   1.037   3.493   3.130  1.5593 -0.4772  0.7676
11033TIP3   OH254589   4.654   5.939  16.660  0.2204  0.7703  0.2012
11033TIP3    H154590   4.678   5.976  16.744  2.6961 -0.2258  0.0010
11033TIP3    H254591   4.719   5.973  16.598 -0.6628  0.3336 -1.0243
11034TIP3   OH254592   5.357   4.280  12.114 -0.3901  0.3866 -0.4935
11034TIP3    H154593   5.335   4.257  12.024 -0.7961  1.5558 -0.7083
11034TIP3    H254594   5.305   4.219  12.167  0.6733 -1.0306 -1.0295
11035TIP3   OH254595   4.983   4.910   5.890  0.4277 -0.7723 -0.3790
11035TIP3    H154596   5.067   4.867   5.902 -0.0816 -1.9563 -0.9156
11035TIP3    H254597   5.001   5.003   5.904  2.0931 -0.8434 -1.7873
11036TIP3   OH254598   6.811   0.591  14.463  0.2335 -0.0389  0.2621
11036TIP3    H154599   6.809   0.674  14.512  0.7164  0.0093  0.2032
11036TIP3    H254600   6.723   0.555  14.474 -0.4151  1.1184 -0.8046
11037TIP3   OH254601   4.962   6.656  12.454 -0.1465  0.3877 -0.3675
11037TIP3    H154602   4.981   6.594  12.383  0.7873 -0.0504  0.2487
11037TIP3    H254603   4.911   6.725  12.412  1.0821  0.5646 -1.6620
11038TIP3   OH254604   4.172   4.196   0.171 -0.3216 -0.0981  0.0022
11038TIP3    H154605   4.130   4.246   0.101 -1.3183 -0.5818  0.2373
11038TIP3    H254606   4.185   4.259   0.241  1.6996  0.6670 -0.9781
11039TIP3   OH254607   4.022   3.513   5.513  0.0761  0.1149 -0.2441
11039TIP3    H154608   3.929   3.502   5.493  0.2449  1.5403 -2.1123
11039TIP3    H254609   4.024   3.582   5.579 -0.2108 -0.2401  0.1393
11040TIP3   OH254610   5.614   3.196  11.392 -0.1263 -0.2858 -0.0854
11040TIP3    H154611   5.709   3.205  11.388  0.1275 -2.1372  0.9209
11040TIP3    H254612   5.581   3.267  11.337  1.7962  1.0344  0.3614
11041TIP3   OH254613   5.815   4.230   3.639 -0.0178 -0.1801  0.7608
11041TIP3    H154614   5.832   4.274   3.555  2.3729  1.2198  1.8514
11041TIP3    H254615   5.817   4.137   3.618 -1.6802  0.1317 -1.0626
11042TIP3   OH254616   4.625   5.370  15.630 -0.3955  0.4263  0.5748
11042TIP3    H154617   4.570   5.371  15.552 -0.5905  0.7048  0.7146
11042TIP3    H254618   4.570   5.329  15.697  0.5651 -2.0261 -0.0013
11043TIP3   OH254619   5.019   6.272   5.758  1.0054  0.1652 -0.6635
11043TIP3    H154620   5.070   6.282   5.839 -1.1386 -0.8130  0.9022
11043TIP3    H254621   5.085   6.272   5.688  3.1494 -1.0891  1.2286
11044TIP3   OH254622   0.169   3.209  14.236  0.1350 -0.4798 -0.0102
11044TIP3    H154623   0.192   3.165  14.317  0.2555  0.9905  0.7879
11044TIP3    H254624   0.222   3.289  14.235  0.3676 -0.6018 -1.6928
11045TIP3   OH254625   6.077   6.157  14.869  0.1346  0.0270 -0.4492
11045TIP3    H154626   6.131   6.126  14.796 -0.3274  0.2024 -0.8687
11045TIP3    H254627   6.039   6.078  14.906  2.7750 -0.4433  1.5869
11046TIP3   OH254628   4.606   2.584  10.757  0.5331  0.1257 -0.2793
11046TIP3    H154629   4.526   2.630  10.733  1.4193  1.8601 -0.0910
11046TIP3    H254630   4.579   2.520  10.822 -0.8864 -0.2248 -1.1692
11047TIP3   OH254631   5.561   3.371  15.903 -0.2170 -0.0323  0.0426
11047TIP3    H154632   5.531   3.391  15.992  1.0229 -0.2132  0.5127
11047TIP3    H254633   5.589   3.456  15.868 -1.3614  0.1664 -0.4587
11048TIP3   OH254634   6.164   5.133  15.426  0.1713  0.1396 -0.7010
11048TIP3    H154635   6.238   5.072  15.421  2.4407  2.6841 -0.6156
11048TIP3    H254636   6.122   5.128  15.340 -1.3391 -3.2639  0.0868
11049TIP3   OH254637   1.557   3.617  17.281 -0.4652  0.2181 -0.3732
11049TIP3    H154638   1.503   3.543  17.306 -0.8879  0.3078 -0.9750
11049TIP3    H254639   1.534   3.686  17.343 -1.2400  0.3329 -0.7692
11050TIP3   OH254640   3.068   1.646  12.311 -0.0158  0.3382 -0.2394
11050TIP3    H154641   3.007   1.623  12.381 -0.1414 -3.3645 -1.3924
11050TIP3    H254642   3.155   1.631  12.348  0.2796  3.4257  0.6497
11051TIP3   OH254643   2.349   0.680   0.455  0.4626  0.4382 -0.3316
11051TIP3    H154644   2.256   0.692   0.437  0.0578  1.6013  2.0073
11051TIP3    H254645   2.390   0.760   0.422  0.4971  0.3215 -0.5721
11052TIP3   OH254646   0.087   5.859   2.190  0.3602  0.0007 -0.6472
11052TIP3    H154647   0.172   5.830   2.223 -0.3185 -1.1223  0.1611
11052TIP3    H254648   0.085   5.830   2.099 -0.0077 -1.9154 -0.0645
11053TIP3   OH254649   4.303   3.828  13.774  0.1442 -0.3283 -0.3686
11053TIP3    H154650   4.334   3.741  13.796  1.4002  0.2902  0.4001
11053TIP3    H254651   4.248   3.853  13.849 -0.1353 -0.4085 -0.5446
11054TIP3   OH254652   0.279   1.963  10.539  0.3811 -0.4760 -0.6863
11054TIP3    H154653   0.194   1.973  10.495  0.4176  1.2196 -0.4308
11054TIP3    H254654   0.265   1.892  10.601 -1.0151  0.0906 -0.3097
11055TIP3   OH254655   1.240   4.625   3.789  0.1200  0.4114 -0.5956
11055TIP3    H154656   1.187   4.689   3.838  0.3075 -0.0289  0.1980
11055TIP3    H254657   1.331   4.652   3.805  0.1762  0.6636 -1.2718
11056TIP3   OH254658   4.023   5.601   5.611 -0.2987 -1.2290 -0.0824
11056TIP3    H154659   4.051   5.527   5.665  3.1025 -0.0431  0.0260
11056TIP3    H254660   3.990   5.561   5.530  0.0548 -2.8763  0.5463
11057TIP3   OH254661   2.518   1.114  16.804 -0.4428 -0.0697  0.0400
11057TIP3    H154662   2.490   1.205  16.814  0.8342  0.4678 -0.9031
11057TIP3    H254663   2.479   1.085  16.722  1.8785  0.8186 -1.5022
11058TIP3   OH254664   1.102   2.084   5.396  0.3890 -0.0938  0.3534
11058TIP3    H154665   1.007   2.092   5.399  0.5681  3.3616  1.4396
11058TIP3    H254666   1.128   2.072   5.488  1.0354  0.3246  0.2350
11059TIP3   OH254667   0.722   3.724   1.707 -0.5880 -0.7463 -0.2219
11059TIP3    H154668   0.767   3.694   1.786  0.3452 -1.1463 -0.8878
11059TIP3    H254669   0.706   3.817   1.722  1.5250 -0.3134 -0.4367
11060TIP3   OH254670   2.140   2.991   4.142  0.3686  0.1775 -0.2110
11060TIP3    H154671   2.142   2.938   4.062 -2.0024 -2.1782  1.1243
11060TIP3    H254672   2.054   2.973   4.180  0.2601  3.4928  1.4342
11061TIP3   OH254673   5.229   6.075  10.697 -0.5013  0.4735 -0.8796
11061TIP3    H154674   5.298   6.010  10.684  1.8250  2.4814  0.5077
11061TIP3    H254675   5.219   6.117  10.611 -0.3703 -0.1760 -1.2187
11062TIP3   OH254676   5.622   0.115   1.295  0.0643  0.6729 -0.8181
11062TIP3    H154677   5.605   0.021   1.302  3.0020  0.0538 -0.6475
11062TIP3    H254678   5.571   0.144   1.220 -1.1415 -0.9790 -0.6821
11063TIP3   OH254679   4.900   1.811   4.732  0.2462 -0.2093  0.0188
11063TIP3    H154680   4.888   1.901   4.763  0.6253  0.0232 -0.5179
11063TIP3    H254681   4.971   1.776   4.786 -0.4797 -0.4855  0.8372
11064TIP3   OH254682   2.167   5.018  15.711 -0.0179 -0.2972  0.0355
11064TIP3    H154683   2.217   5.098  15.693 -2.2153  1.0430 -0.4204
11064TIP3    H254684   2.160   5.014  15.806  2.8049 -1.7757  0.2920
11065TIP3   OH254685   4.886   2.787   4.950  0.1505  0.3759  0.1395
11065TIP3    H154686   4.825   2.718   4.924  1.2599 -2.0009  3.3025
11065TIP3    H254687   4.842   2.868   4.923 -1.7062 -1.4003 -2.7846
11066TIP3   OH254688   5.719   5.858  12.707 -0.4777 -0.5062  0.6185
11066TIP3    H154689   5.645   5.800  12.687 -0.7692  0.1457 -0.2819
11066TIP3    H254690   5.679   5.943  12.723 -0.1180 -0.6854  2.6677
11067TIP3   OH254691   4.756   2.434  14.303  0.2197 -0.2544 -0.1084
11067TIP3    H154692   4.809   2.366  14.344 -2.4800 -2.4856 -0.0851
11067TIP3    H254693   4.706   2.472  14.375  2.2846  2.5097  0.0310
11068TIP3   OH254694   5.235   2.329  11.354 -0.1662  0.1003  0.4253
11068TIP3    H154695   5.323   2.293  11.351  0.6604  2.0501 -0.4245
11068TIP3    H254696   5.214   2.334  11.448  0.7995  0.0188  0.6492
11069TIP3   OH254697   0.604   6.775  14.626  0.0711  0.2222 -0.7120
11069TIP3    H154698   0.569   6.705  14.682 -3.0700  1.2340 -1.2447
11069TIP3    H254699   0.680   6.808  14.674 -1.4953 -0.0579  2.1444
11070TIP3   OH254700   5.630   1.301   3.901 -0.5680  0.5214 -0.1588
11070TIP3    H154701   5.674   1.273   3.981 -0.2393  0.7395 -0.2629
11070TIP3    H254702   5.550   1.343   3.931 -0.1255  1.2011  0.0978
11071TIP3   OH254703   1.782   2.497   3.852  0.4773  0.1815  0.4405
11071TIP3    H154704   1.829   2.466   3.774  0.4889 -1.6146  1.1196
11071TIP3    H254705   1.689   2.492   3.828  0.5337  2.1368 -0.3256
11072TIP3   OH254706   6.565   2.685   3.611 -0.3843 -0.1046 -0.0367
11072TIP3    H154707   6.608   2.692   3.526  0.4244  0.6974  0.4233
11072TIP3    H254708   6.480   2.644   3.591 -0.1698 -0.0262 -1.2090
11073TIP3   OH254709   4.627   6.073   2.082 -0.4251 -0.0313  0.0666
11073TIP3    H154710   4.639   6.073   2.177  1.0652 -0.6296 -0.1002
11073TIP3    H254711   4.664   6.156   2.053 -0.3446 -0.1084 -0.0525
11074TIP3   OH254712   3.971   1.434  16.048 -0.1296 -0.5234 -0.0571
11074TIP3    H154713   3.977   1.359  16.106 -0.4778 -1.1572 -0.8197
11074TIP3    H254714   4.024   1.410  15.972 -0.3912 -0.0745 -0.3851
11075TIP3   OH254715   4.160   5.548  17.151 -0.1596 -0.3086  0.0733
11075TIP3    H154716   4.198   5.503  17.226  1.5435 -0.4660 -0.8225
11075TIP3    H254717   4.177   5.490  17.077  1.5853  1.4603 -1.0220
11076TIP3   OH254718   6.555   1.745  12.064 -0.4134 -0.1250  0.1497
11076TIP3    H154719   6.467   1.709  12.076 -1.2669  0.7720 -2.7096
11076TIP3    H254720   6.583   1.769  12.152 -3.5210  0.6470  1.0585
11077TIP3   OH254721   2.354   3.314  14.446  0.5304  0.2452  0.8778
11077TIP3    H154722   2.270   3.331  14.488 -0.3065  2.0182 -1.3070
11077TIP3    H254723   2.339   3.238  14.391  0.6173  0.0565  1.1115
11078TIP3   OH254724   0.634   5.757  16.742  0.1985 -0.1489  0.4181
11078TIP3    H154725   0.621   5.690  16.675 -1.2113  0.0154  0.5079
11078TIP3    H254726   0.717   5.734  16.783 -0.0636 -1.5904  0.1697
11079TIP3   OH254727   2.027   1.608  11.478  0.1136 -0.0619  0.3869
11079TIP3    H154728   1.997   1.627  11.389  0.0673  2.2415  0.8403
11079TIP3    H254729   2.023   1.512  11.485 -1.1293 -0.2075 -1.6326
11080TIP3   OH254730   6.188   3.306  14.870 -0.0189 -0.3466  0.1730
11080TIP3    H154731   6.211   3.245  14.800  0.9140  2.3007 -2.0500
11080TIP3    H254732   6.272   3.343  14.897 -0.6374  0.8422  0.5390
11081TIP3   OH254733   1.200   0.750   6.225 -0.3518  1.5164 -0.5098
11081TIP3    H154734   1.198   0.717   6.314 -2.6813 -0.4074 -1.1700
11081TIP3    H254735   1.178   0.843   6.233 -0.8627  1.2892  0.8879
11082TIP3   OH254736   5.103   5.352  15.131  0.1800 -0.1779 -0.1452
11082TIP3    H154737   5.047   5.387  15.061 -0.1772  0.2053  0.3158
11082TIP3    H254738   5.175   5.309  15.086 -0.4384 -0.5868 -0.7566
11083TIP3   OH254739   0.357   2.018   3.149  0.3672  0.6686  0.0399
11083TIP3    H154740   0.283   2.075   3.171 -0.1662  0.4254 -1.0761
11083TIP3    H254741   0.397   2.058   3.072  0.1498 -0.2945 -0.5931
11084TIP3   OH254742   3.291   2.614  14.178  0.1213  0.0617  0.1027
11084TIP3    H154743   3.316   2.671  14.106 -0.4765 -0.4289 -0.5049
11084TIP3    H254744   3.213   2.655  14.215  0.3181  0.2122  0.3535
11085TIP3   OH254745   1.446   4.522  13.334  0.0970 -0.5250 -0.1819
11085TIP3    H154746   1.437   4.603  13.282  1.6908 -1.0923 -1.4218
11085TIP3    H254747   1.448   4.552  13.425 -1.2499  0.6395 -0.4937
11086TIP3   OH254748   5.560   0.490   0.374 -0.1078  0.0632 -0.0259
11086TIP3    H154749   5.563   0.491   0.469 -0.3675  1.1679 -0.0192
11086TIP3    H254750   5.651   0.496   0.347 -0.1386  2.2641  0.1769
11087TIP3   OH254751   3.554   4.787   2.989 -0.4132 -0.0089  0.1096
11087TIP3    H154752   3.609   4.717   3.024  0.9406  1.1918  0.4636
11087TIP3    H254753   3.545   4.767   2.896 -1.0867 -1.3042  0.4304
11088TIP3   OH254754   4.965   4.554  14.039  0.2171 -0.1067  0.0928
11088TIP3    H154755   4.942   4.643  14.066 -1.4425 -0.7546  0.9492
11088TIP3    H254756   5.053   4.541  14.076  0.9108  1.4922 -0.8997
11089TIP3   OH254757   0.910   3.918  13.975 -0.1616 -0.4780  0.4751
11089TIP3    H154758   0.984   3.864  14.005  1.1890  0.8966 -0.2514
11089TIP3    H254759   0.932   3.941  13.885 -1.7618 -0.4704  0.0587
11090TIP3   OH254760   6.751   6.138   4.426 -0.2250  0.0743  0.0020
11090TIP3    H154761   6.779   6.088   4.503  0.4663 -1.2039 -1.0213
11090TIP3    H254762   6.804   6.218   4.429 -0.7437  0.3876  1.2376
11091TIP3   OH254763   6.707   2.569   4.973  0.4114  0.6390  0.6455
11091TIP3    H154764   6.628   2.516   4.963 -1.0836  2.7045  0.7805
11091TIP3    H254765   6.747   2.537   5.054 -1.1311  0.5466  1.3999
11092TIP3   OH254766   4.767   0.456   3.817  0.2600 -0.2179 -0.2180
11092TIP3    H154767   4.832   0.519   3.849  1.4552 -1.7761  0.5507
11092TIP3    H254768   4.684   0.490   3.849  0.8713  0.9439  0.2164
11093TIP3   OH254769   1.894   6.643  14.218 -0.3578 -0.3399  0.1559
11093TIP3    H154770   1.810   6.683  14.198  1.6967  3.3706 -2.2116
11093TIP3    H254771   1.903   6.573  14.153 -1.1190  0.0356 -0.3639
11094TIP3   OH254772   2.241   6.496   1.127 -0.2275 -0.2911  0.3280
11094TIP3    H154773   2.296   6.565   1.164  0.7468 -1.6914  1.6051
11094TIP3    H254774   2.303   6.434   1.090 -0.9975 -1.2943  0.6915
11095TIP3   OH254775   5.355   6.821   3.983 -0.0693  0.1193  0.2099
11095TIP3    H154776   5.433   6.845   3.933 -1.5662 -0.4997 -2.6303
11095TIP3    H254777   5.385   6.753   4.043  1.3300 -1.2792 -1.9409
11096TIP3   OH254778   0.894   6.772   1.286  0.0819 -0.2849  0.1099
11096TIP3    H154779   0.889   6.797   1.194 -0.3164  1.6998  0.6219
11096TIP3    H254780   0.901   6.677   1.285  0.2282 -0.2869 -1.9657
11097TIP3   OH254781   4.785   0.387  12.898 -0.2430 -0.4009 -0.3894
11097TIP3    H154782   4.833   0.406  12.979 -0.8621 -1.3680  0.2196
11097TIP3    H254783   4.851   0.350  12.840  0.0130 -0.6033  0.0211
11098TIP3   OH254784   4.048   1.840  11.349  0.4857  0.3143  0.4266
11098TIP3    H154785   4.036   1.820  11.256  0.4697 -0.5135  0.5919
11098TIP3    H254786   4.132   1.886  11.353  0.4215  0.4786 -0.0109
11099TIP3   OH254787   2.832   2.424   4.672 -0.0797 -0.2191  0.0083
11099TIP3    H154788   2.869   2.343   4.636  0.3386  0.3728 -0.9310
11099TIP3    H254789   2.740   2.421   4.648 -0.0351 -0.3455 -0.1479
11100TIP3   OH254790   0.380   2.695   4.598 -0.7093  0.0813  0.3049
11100TIP3    H154791   0.329   2.664   4.674 -1.6106 -1.4182 -0.8576
11100TIP3    H254792   0.470   2.697   4.629 -1.0883 -0.2692  1.4962
11101TIP3   OH254793   3.430   4.802  11.734  0.4313 -0.2784  0.1482
11101TIP3    H154794   3.489   4.874  11.754 -0.2731  0.7908 -1.4405
11101TIP3    H254795   3.444   4.784  11.641  0.7102 -2.3331  0.5405
11102TIP3   OH254796   3.116   5.370  14.399  0.3838  0.0012  1.0545
11102TIP3    H154797   3.055   5.322  14.342 -0.7870 -0.2674  2.4884
11102TIP3    H254798   3.146   5.443  14.345  0.1680 -0.8642 -0.2806
11103TIP3   OH254799   1.616   0.837  14.819  0.1060 -0.6681 -0.3882
11103TIP3    H154800   1.553   0.773  14.853 -0.7210  0.2111 -0.2435
11103TIP3    H254801   1.687   0.783  14.783 -0.4394 -1.6635 -0.0211
11104TIP3   OH254802   2.253   3.197   3.756 -0.4659  0.4518  0.1058
11104TIP3    H154803   2.289   3.115   3.724 -0.6471 -0.0003  1.0391
11104TIP3    H254804   2.183   3.171   3.816  1.1885  1.1732  2.5262
11105TIP3   OH254805   2.573   4.427   3.034  0.3074 -0.3096 -0.0196
11105TIP3    H154806   2.564   4.404   2.942 -1.8209 -0.2525  0.1282
11105TIP3    H254807   2.560   4.344   3.081 -1.3390  0.0748  0.2832
11106TIP3   OH254808   3.779   5.577   6.176  0.2131 -0.2890 -0.0036
11106TIP3    H154809   3.718   5.534   6.115 -0.7149 -1.1513  1.4476
11106TIP3    H254810   3.846   5.616   6.120 -2.4961  2.1310 -1.8324
11107TIP3   OH254811   5.411   1.062   2.153 -0.1751 -0.3530 -0.5193
11107TIP3    H154812   5.491   1.052   2.205  0.1250  1.6235 -0.5444
11107TIP3    H254813   5.340   1.040   2.213  0.2301  0.8805  0.4430
11108TIP3   OH254814   3.614   6.155   0.867  0.0150  0.4278 -0.1068
11108TIP3    H154815   3.529   6.167   0.824 -0.4215 -0.9418  0.3076
11108TIP3    H254816   3.656   6.241   0.863 -1.1789  0.9999 -0.7753
11109TIP3   OH254817   0.301   3.028  13.804  0.1976 -0.2512 -0.7853
11109TIP3    H154818   0.322   3.069  13.887 -2.0552  1.0485 -0.7846
11109TIP3    H254819   0.302   2.934  13.823 -1.6828  0.0462  1.1439
11110TIP3   OH254820   5.067   6.202   4.691  0.2487  0.2520  0.3769
11110TIP3    H154821   5.093   6.131   4.632  1.4086  0.7490  0.2695
11110TIP3    H254822   5.090   6.282   4.644 -1.7962  0.7725  0.1429
11111TIP3   OH254823   5.933   0.324   3.059  0.2312 -0.1469 -0.0005
11111TIP3    H154824   5.876   0.399   3.040 -1.1183 -1.4903 -1.5486
11111TIP3    H254825   5.993   0.356   3.127 -1.1799  1.8946  0.3691
11112TIP3   OH254826   1.917   2.117   5.338 -0.0874  0.2187  0.0013
11112TIP3    H154827   1.826   2.138   5.318 -0.0835  1.6910  1.3213
11112TIP3    H254828   1.968   2.189   5.301  0.5457 -0.4811 -0.5387
11113TIP3   OH254829   3.057   1.009   5.188  0.2408  0.1458 -0.3385
11113TIP3    H154830   2.985   1.042   5.241  0.9286 -0.0065  0.7063
11113TIP3    H254831   3.016   0.944   5.131 -0.1071 -1.7742  1.9405
11114TIP3   OH254832   0.058   4.316  12.261 -0.1541  0.1979 -0.4676
11114TIP3    H154833  -0.033   4.342  12.256 -0.4214 -0.7451 -0.7693
11114TIP3    H254834   0.100   4.383  12.316 -1.2045  0.1459  0.4176
11115TIP3   OH254835   1.208   0.884  16.482  0.5441  0.0013  0.4914
11115TIP3    H154836   1.145   0.875  16.410  0.4021 -1.6193  0.7791
11115TIP3    H254837   1.272   0.815  16.467  2.1162  1.4221  0.3839
11116TIP3   OH254838   1.720   5.429  15.088  0.3626  0.0227  0.5878
11116TIP3    H154839   1.663   5.461  15.018 -1.7090  0.4479  2.3689
11116TIP3    H254840   1.753   5.507  15.131  0.6088 -0.2325  0.8698
11117TIP3   OH254841   2.857   1.758  16.525  0.3865  0.1527  0.2299
11117TIP3    H154842   2.838   1.845  16.490 -2.8012 -0.5201  0.0035
11117TIP3    H254843   2.839   1.765  16.619 -1.6516 -0.6122 -0.0521
11118TIP3   OH254844   3.013   0.166  12.692  0.4417 -0.0852 -0.1424
11118TIP3    H154845   3.006   0.115  12.773 -0.4655  0.8132  0.3707
11118TIP3    H254846   3.107   0.167  12.672  0.9816  1.5783  2.1626
11119TIP3   OH254847   0.535   5.858   0.041  0.0685 -0.0801  0.4105
11119TIP3    H154848   0.606   5.826   0.095  0.2127 -0.9214 -0.2539
11119TIP3    H254849   0.560   5.948   0.019 -0.3747  0.5675  2.3531
11120TIP3   OH254850   2.225   3.900  12.496  0.5034 -0.0214 -0.2077
11120TIP3    H154851   2.171   3.830  12.459 -1.9745  1.2012  0.9325
11120TIP3    H254852   2.284   3.925  12.424 -0.3426 -1.4710 -1.4595
11121TIP3   OH254853   0.533   3.115  12.412 -0.0842 -0.7613 -0.2304
11121TIP3    H154854   0.537   3.154  12.325 -0.6624  2.3182  0.9948
11121TIP3    H254855   0.439   3.103  12.429  0.0685 -2.2962 -0.3920
11122TIP3   OH254856   3.096   5.128  11.528  0.6250  0.4347  0.4985
11122TIP3    H154857   3.081   5.162  11.440 -1.8718  0.6194  0.9170
11122TIP3    H254858   3.034   5.055  11.536  0.8766  0.3629  2.0611
11123TIP3   OH254859   1.800   6.231   2.837 -0.3257 -0.3033 -0.5446
11123TIP3    H154860   1.756   6.308   2.871  1.0692  0.1943  0.2099
11123TIP3    H254861   1.766   6.221   2.748 -1.3047  0.5318 -0.2853
11124TIP3   OH254862   2.541   2.993  14.884 -0.2657 -0.0757 -0.3771
11124TIP3    H154863   2.537   2.898  14.896  1.2487 -0.0937  0.1192
11124TIP3    H254864   2.506   3.007  14.796 -1.1666 -1.0031 -0.1959
11125TIP3   OH254865   1.977   3.569  11.969  0.1384 -0.2954  0.4232
11125TIP3    H154866   1.984   3.491  11.914 -0.1097  0.1996 -0.3331
11125TIP3    H254867   1.888   3.601  11.953  0.3542  0.3335  0.4499
11126TIP3   OH254868   5.817   0.441   0.322 -0.0065 -0.3130 -0.5604
11126TIP3    H154869   5.906   0.473   0.339 -0.0599 -1.1647  1.5901
11126TIP3    H254870   5.818   0.351   0.352 -1.4642 -0.5173 -1.0509
11127TIP3   OH254871   2.558   4.501  15.414 -0.5539 -0.1330  0.1937
11127TIP3    H154872   2.593   4.589  15.404 -2.0364  0.7078  1.9394
11127TIP3    H254873   2.559   4.485  15.508 -2.9015 -0.8461  0.1501
11128TIP3   OH254874   2.707   4.094  11.706  0.1425 -0.2983 -0.5507
11128TIP3    H154875   2.654   4.157  11.755  0.3235 -0.6314  0.0834
11128TIP3    H254876   2.702   4.124  11.615  0.0886  0.5273 -0.2820
11129TIP3   OH254877   6.147   5.342  16.720 -0.4662 -0.8936 -0.7413
11129TIP3    H154878   6.216   5.346  16.786  0.8109 -1.7448 -1.9608
11129TIP3    H254879   6.193   5.344  16.636 -2.1602  3.7656 -1.8780
11130TIP3   OH254880   2.900   4.703   4.178 -0.3559 -0.6036  0.0631
11130TIP3    H154881   2.805   4.715   4.168 -0.6649 -0.0265  2.7508
11130TIP3    H254882   2.932   4.791   4.198  0.9612 -0.6088 -1.7919
11131TIP3   OH254883   1.087   5.211   0.075 -0.0415 -0.0213  0.6969
11131TIP3    H154884   1.146   5.192   0.002  0.7661  0.7662  1.1225
11131TIP3    H254885   1.085   5.129   0.126 -0.3088 -0.4478  0.0108
11132TIP3   OH254886   1.170   4.895   2.255  0.0981  0.0396 -0.1951
11132TIP3    H154887   1.167   4.899   2.159 -0.4075  0.0132 -0.1805
11132TIP3    H254888   1.112   4.966   2.283 -1.0182 -0.9552  0.0884
11133TIP3   OH254889   1.038   1.254   1.343  0.0881  0.9952 -0.3604
11133TIP3    H154890   1.049   1.172   1.392 -1.2558  1.9451  1.6512
11133TIP3    H254891   1.104   1.313   1.381  0.1363  1.2639 -0.8586
11134TIP3   OH254892   4.580   3.775  11.852  0.2568  0.4203  0.1062
11134TIP3    H154893   4.623   3.709  11.907 -1.2343 -0.1105  0.6711
11134TIP3    H254894   4.515   3.726  11.802  0.3323  1.1991 -0.7752
11135TIP3   OH254895   6.556   4.132   5.254  0.4000  0.1123  0.7239
11135TIP3    H154896   6.569   4.188   5.331  1.3765  1.1142 -0.1238
11135TIP3    H254897   6.557   4.193   5.181  0.3292 -0.9173 -0.1518
11136TIP3   OH254898   0.499   3.569   0.930 -0.3395  0.3617 -0.3312
11136TIP3    H154899   0.469   3.578   0.839 -1.7979  0.9113  0.1743
11136TIP3    H254900   0.538   3.482   0.934 -1.3441 -0.1526 -1.2130
11137TIP3   OH254901   0.006   3.524  17.213 -0.0121 -0.3497 -0.0935
11137TIP3    H154902   0.028   3.431  17.223  0.3936 -0.2320  0.1663
11137TIP3    H254903   0.010   3.540  17.119  0.5007 -0.4647 -0.0963
11138TIP3   OH254904   0.893   0.209  13.655 -0.4667 -0.3851 -0.4163
11138TIP3    H154905   0.844   0.285  13.687 -1.9419 -1.5163  0.1510
11138TIP3    H254906   0.833   0.167  13.593  0.6812 -0.5983 -1.4018
11139TIP3   OH254907   4.437   2.001   6.344  0.3789 -0.3053  0.5631
11139TIP3    H154908   4.452   2.086   6.385  1.2871 -1.0714  1.8829
11139TIP3    H254909   4.354   1.971   6.380  0.7778 -0.6163  1.2381
11140TIP3   OH254910   4.640   0.803  11.489  0.5012 -0.2989 -0.0841
11140TIP3    H154911   4.557   0.794  11.537 -0.0480  0.1955 -0.9179
11140TIP3    H254912   4.626   0.879  11.432  1.7814  0.2280  0.2695
11141TIP3   OH254913   0.049   0.005  14.801 -0.8190 -0.5873  0.2713
11141TIP3    H154914   0.046  -0.073  14.746  0.6119 -0.1770 -0.4274
11141TIP3    H254915   0.097  -0.022  14.879 -0.6994 -0.5177  0.2216
11142TIP3   OH254916   5.613   1.575  14.926  0.1264 -1.2603 -0.4458
11142TIP3    H154917   5.583   1.663  14.901 -0.9760 -0.4971  3.0586
11142TIP3    H254918   5.558   1.516  14.875 -2.1584  0.1528  0.2204
11143TIP3   OH254919   5.819   2.939   4.560  0.6893  0.1293  0.4968
11143TIP3    H154920   5.786   2.850   4.573  0.8690 -0.1037 -0.5539
11143TIP3    H254921   5.753   2.995   4.601 -0.6908 -0.3649 -0.9318
11144TIP3   OH254922   3.067   4.929  14.366 -0.7560  0.2244  0.3747
11144TIP3    H154923   3.033   5.019  14.365  0.4735  0.7757 -2.1899
11144TIP3    H254924   3.026   4.888  14.290 -0.3065 -0.9832  0.7674
11145TIP3   OH254925   1.137   5.067  16.305 -0.0030 -0.1882 -0.0567
11145TIP3    H154926   1.196   5.122  16.357  1.2159  0.4803 -2.0252
11145TIP3    H254927   1.056   5.063  16.357  1.2638  0.0569  2.0551
11146TIP3   OH254928   1.133   1.558   3.713  0.3617  0.0258 -0.3608
11146TIP3    H154929   1.123   1.466   3.737  2.2075 -0.3800 -0.9701
11146TIP3    H254930   1.135   1.558   3.618 -3.0219  1.1620 -0.5390
11147TIP3   OH254931   2.990   0.569   1.494  0.3927 -0.0125 -0.1273
11147TIP3    H154932   2.985   0.514   1.572  0.9404  2.3646  1.6987
11147TIP3    H254933   3.071   0.541   1.451  0.2427 -1.1480  0.2919
11148TIP3   OH254934   2.456   1.235  14.188 -0.0213 -0.2040  0.1497
11148TIP3    H154935   2.521   1.276  14.131 -0.7328 -0.1212 -0.6275
11148TIP3    H254936   2.479   1.264  14.276  0.9939 -0.1920 -0.1032
11149TIP3   OH254937   6.187   5.098   4.922  0.1248 -0.0450 -0.4047
11149TIP3    H154938   6.236   5.048   4.857 -2.0827 -0.2235 -2.0526
11149TIP3    H254939   6.136   5.160   4.871  1.3942  2.7427  1.4686
11150TIP3   OH254940   3.862   5.491   6.420 -0.1026 -0.1144 -0.6604
11150TIP3    H154941   3.832   5.524   6.335 -0.5592  1.7458  0.1853
11150TIP3    H254942   3.787   5.444   6.456 -0.0555 -0.5181 -1.0823
11151TIP3   OH254943   5.089   4.468   3.637  0.2670  0.0898 -0.3737
11151TIP3    H154944   5.167   4.519   3.660 -0.1218  0.6417 -0.2760
11151TIP3    H254945   5.085   4.474   3.541 -0.5154  1.3531 -0.2813
11152TIP3   OH254946   3.173   0.049  15.746  0.3333  0.4712  0.4034
11152TIP3    H154947   3.170   0.057  15.841 -2.2679 -0.6803  0.5222
11152TIP3    H254948   3.132   0.130  15.714  0.8069  0.6609  0.2667
11153TIP3   OH254949   4.811   6.722  11.543  0.1264  0.4242 -0.2653
11153TIP3    H154950   4.763   6.731  11.461 -0.3617  1.8237  0.1453
11153TIP3    H254951   4.751   6.756  11.610  1.4259  1.5849  0.3420
11154TIP3   OH254952   6.046   2.917  13.412 -0.2150  0.5209  0.4021
11154TIP3    H154953   6.011   2.829  13.423  0.1459  0.0689 -1.7342
11154TIP3    H254954   6.113   2.925  13.481  0.1886 -1.1063  0.2265
11155TIP3   OH254955   5.709   4.627   4.604 -0.3595 -0.1534  0.3781
11155TIP3    H154956   5.678   4.593   4.520 -0.8344  1.0548  0.0448
11155TIP3    H254957   5.635   4.614   4.664 -0.4855  0.1366  0.2882
11156TIP3   OH254958   4.937   1.004  16.342  0.9065  0.0251 -0.6832
11156TIP3    H154959   5.016   0.977  16.295  2.4257 -0.7989  2.1179
11156TIP3    H254960   4.970   1.055  16.417 -1.1144 -1.1215  1.0805
11157TIP3   OH254961   2.772   1.934   5.346  0.2069  0.1624  0.1106
11157TIP3    H154962   2.790   2.000   5.279 -1.1830  2.2831  1.6901
11157TIP3    H254963   2.855   1.925   5.394  0.1796  1.4486  0.4221
11158TIP3   OH254964   3.060   2.203  12.950  0.2019  0.2123  0.1119
11158TIP3    H154965   3.150   2.204  12.982  0.2017  1.8027  0.1316
11158TIP3    H254966   3.007   2.197  13.030  0.2577 -1.3386  0.0743
11159TIP3   OH254967   4.455   1.262   3.271  0.2606  0.1857  0.1063
11159TIP3    H154968   4.405   1.215   3.204 -0.2851  1.2673 -0.2735
11159TIP3    H254969   4.415   1.236   3.354  2.4530 -3.0377  0.3063
11160TIP3   OH254970   2.135   2.158  10.979 -0.0301 -0.1441 -0.2034
11160TIP3    H154971   2.058   2.100  10.982 -0.0981 -0.0336  0.3523
11160TIP3    H254972   2.205   2.102  10.946 -0.0542 -0.6025  0.4811
11161TIP3   OH254973   1.337   3.846   0.211  0.1123  0.1390  0.2689
11161TIP3    H154974   1.321   3.939   0.225 -1.2830 -0.0999  0.4246
11161TIP3    H254975   1.380   3.817   0.291  0.4522  0.6213  0.2663
11162TIP3   OH254976   2.676   1.154   0.087 -0.8291  0.4655  0.5157
11162TIP3    H154977   2.602   1.158   0.026 -1.6780 -1.6394  1.3034
11162TIP3    H254978   2.640   1.185   0.170 -0.3263  1.1026  0.4986
11163TIP3   OH254979   1.355   6.157  11.157 -0.1087  0.3109  0.1998
11163TIP3    H154980   1.280   6.201  11.118  1.3863  0.6984 -2.4160
11163TIP3    H254981   1.422   6.224  11.164  0.8350 -0.5903  0.0835
11164TIP3   OH254982   1.630   1.938   0.271  0.8498  0.2506  0.3584
11164TIP3    H154983   1.582   1.857   0.257  0.9779 -0.3888  3.0095
11164TIP3    H254984   1.717   1.922   0.235 -0.2189  0.7593 -2.7866
11165TIP3   OH254985   2.945   5.603  11.414  0.4018  1.1528  0.7182
11165TIP3    H154986   2.988   5.686  11.438  0.2707  1.3456  0.2862
11165TIP3    H254987   2.860   5.629  11.379 -0.2242  0.7499  1.8931
11166TIP3   OH254988   3.783   4.462  15.211 -0.3641  0.3288 -0.3361
11166TIP3    H154989   3.749   4.551  15.201 -0.1129  0.3560 -1.0328
11166TIP3    H254990   3.737   4.411  15.144 -0.6590 -0.1139  0.1985
11167TIP3   OH254991   1.627   1.558   5.179 -0.6680  0.0857 -0.1133
11167TIP3    H154992   1.544   1.513   5.195  0.0349 -2.0452 -1.8689
11167TIP3    H254993   1.692   1.487   5.177  1.2664  1.6978  1.3806
11168TIP3   OH254994   1.960   5.407  13.374  0.2648  0.5122 -0.0227
11168TIP3    H154995   1.987   5.392  13.465  1.8981 -1.1844 -0.7241
11168TIP3    H254996   1.866   5.419  13.378 -0.0091 -1.6676  1.6925
11169TIP3   OH254997   5.182   1.827  14.790  0.1172 -0.4324 -0.0343
11169TIP3    H154998   5.107   1.872  14.751  1.1622  0.7004 -0.8133
11169TIP3    H254999   5.200   1.876  14.871  1.2212  0.6110 -0.8558
11170TIP3   OH255000   2.689   1.329   5.594 -0.1618  0.3062 -0.2258
11170TIP3    H155001   2.633   1.346   5.518 -0.7669  2.5211  0.6267
11170TIP3    H255002   2.628   1.314   5.666  0.3751 -0.0356  0.1617
11171TIP3   OH255003   1.601   0.769   6.580  0.4467  0.3237 -0.0349
11171TIP3    H155004   1.634   0.857   6.562 -0.0684  0.5389  0.0557
11171TIP3    H255005   1.662   0.733   6.644 -0.5414  1.4389  1.6293
11172TIP3   OH255006   1.005   0.761   4.689 -0.2131 -0.3866 -0.0805
11172TIP3    H155007   1.085   0.741   4.640  0.5273 -0.1261  0.9742
11172TIP3    H255008   1.026   0.842   4.735 -2.1378  1.3429 -2.0316
11173TIP3   OH255009   0.588   3.820   0.021 -0.1789 -0.2073 -0.0425
11173TIP3    H155010   0.573   3.726   0.033  0.4362 -0.6898 -2.4521
11173TIP3    H255011   0.508   3.851  -0.022 -0.5970  0.5098  1.2177
11174TIP3   OH255012   1.627   5.286   1.330 -0.9109 -0.3603 -0.5500
11174TIP3    H155013   1.664   5.310   1.415 -0.8255  0.7309 -0.8747
11174TIP3    H255014   1.533   5.283   1.345 -0.8639 -0.6523 -0.3040
11175TIP3   OH255015   5.534   5.142  12.192 -0.1425  0.4081  0.3440
11175TIP3    H155016   5.544   5.198  12.269 -0.5434  1.2836 -0.2248
11175TIP3    H255017   5.482   5.194  12.131  2.8958  1.1322 -1.8764
11176TIP3   OH255018   4.824   6.551   3.124 -0.1497  0.4459  0.1503
11176TIP3    H155019   4.859   6.572   3.211  0.2091  0.1688  0.0770
11176TIP3    H255020   4.837   6.630   3.073 -2.1105  1.2925  0.8658
11177TIP3   OH255021   0.736   6.116   1.844 -0.2840 -0.3464  0.0317
11177TIP3    H155022   0.646   6.115   1.876  0.4431  0.2888  2.2781
11177TIP3    H255023   0.732   6.165   1.762 -1.8793  0.1976  0.4061
11178TIP3   OH255024   5.387   0.478  11.911  0.2464 -0.3649 -0.1256
11178TIP3    H155025   5.344   0.400  11.876  0.0282 -0.8313  1.1499
11178TIP3    H255026   5.415   0.453  11.999 -1.7029  1.6380  1.1678
11179TIP3   OH255027   2.544   6.389  12.246 -0.4150  0.3414  0.1744
11179TIP3    H155028   2.586   6.354  12.167  0.1945 -0.0124  0.6526
11179TIP3    H255029   2.478   6.323  12.269 -0.7761  0.5697 -0.1806
11180TIP3   OH255030   2.919   6.386  11.399 -0.3500 -0.3759  0.5887
11180TIP3    H155031   2.986   6.334  11.444  0.7972  0.5387 -0.0315
11180TIP3    H255032   2.890   6.330  11.327 -0.8859 -1.1169  1.3674
11181TIP3   OH255033   0.691   5.969  11.035  0.3449 -0.3840 -0.0518
11181TIP3    H155034   0.749   5.897  11.011  2.0142  0.7137  0.5023
11181TIP3    H255035   0.604   5.930  11.040  0.4582 -1.5320 -3.8640
11182TIP3   OH255036   6.233   3.798  14.904  0.1050 -0.1029  0.2287
11182TIP3    H155037   6.194   3.720  14.863  0.9371 -1.7965  2.4382
11182TIP3    H255038   6.321   3.770  14.927  0.1892  1.2945  1.6968
11183TIP3   OH255039   3.294   3.601  12.681  0.1797  0.4469  0.1955
11183TIP3    H155040   3.258   3.527  12.731 -0.6475  0.1955 -0.7499
11183TIP3    H255041   3.300   3.672  12.745 -1.7101  0.4077  0.4706
11184TIP3   OH255042   0.825   0.708   3.240 -0.1318 -0.2466 -0.0748
11184TIP3    H155043   0.887   0.638   3.222 -0.9141 -1.0402  0.2836
11184TIP3    H255044   0.872   0.766   3.300  1.1116  0.4325 -1.6222
11185TIP3   OH255045   0.425   6.004   6.267  0.2827  0.1596  0.3316
11185TIP3    H155046   0.515   6.010   6.236 -0.3212  0.0555 -1.5731
11185TIP3    H255047   0.412   5.911   6.286  0.1671 -0.0762 -0.8158
11186TIP3   OH255048   3.564   1.614  12.525 -0.2034  0.6497  0.1850
11186TIP3    H155049   3.577   1.643  12.616  0.4140 -1.1728  0.7203
11186TIP3    H255050   3.505   1.539  12.532 -0.5191  0.7734 -0.9880
11187TIP3   OH255051   2.999   0.663  11.634 -0.1285  0.6940 -0.3578
11187TIP3    H155052   3.004   0.612  11.715  1.0433 -0.9718 -1.3912
11187TIP3    H255053   2.924   0.720  11.645 -1.0623 -0.7540  1.1961
11188TIP3   OH255054   6.609   4.332   5.758  0.7672 -0.6420  0.5278
11188TIP3    H155055   6.661   4.390   5.813 -0.8590  0.1337  1.3139
11188TIP3    H255056   6.594   4.255   5.813 -0.8188  0.1138  1.2098
11189TIP3   OH255057   5.612   5.724   3.218  0.1673 -0.3333 -0.0904
11189TIP3    H155058   5.560   5.787   3.168 -0.1706 -0.7768 -0.2983
11189TIP3    H255059   5.701   5.760   3.215  0.5438 -1.2521 -2.5628
11190TIP3   OH255060   5.661   4.604  15.263  0.1592 -0.1257 -0.0187
11190TIP3    H155061   5.621   4.524  15.227  1.4390 -1.8882  2.2241
11190TIP3    H255062   5.586   4.654  15.296 -0.6056 -0.7951 -0.6576
11191TIP3   OH255063   5.276   2.403   1.935  0.3408 -0.5242 -0.3852
11191TIP3    H155064   5.283   2.370   1.846  1.5499 -0.8902 -0.1790
11191TIP3    H255065   5.282   2.498   1.926 -1.8071 -0.3930 -0.8633
11192TIP3   OH255066   0.837   6.189   3.103 -0.1441  0.3487  0.3259
11192TIP3    H155067   0.879   6.274   3.091  0.6864  0.0678  1.0569
11192TIP3    H255068   0.750   6.198   3.064  0.5646  0.9817 -1.1966
11193TIP3   OH255069   5.751   5.313   1.705  0.0135  0.9432 -0.2651
11193TIP3    H155070   5.778   5.260   1.780  1.6577  0.8373 -0.8761
11193TIP3    H255071   5.656   5.305   1.702 -0.0502  0.6509  1.5666
11194TIP3   OH255072   3.355   6.363  13.145 -0.3435  0.1426 -0.4023
11194TIP3    H155073   3.394   6.447  13.169  0.3832 -0.5183  0.8485
11194TIP3    H255074   3.261   6.374  13.162 -0.0659  0.2517  1.1698
11195TIP3   OH255075   6.713   0.582  11.159 -0.2439 -0.1590 -0.0403
11195TIP3    H155076   6.642   0.633  11.121 -0.9865 -0.9900  0.2051
11195TIP3    H255077   6.745   0.527  11.086 -0.7153 -0.7106  0.1589
11196TIP3   OH255078   1.923   1.811  14.359  0.7982 -0.0479  0.1713
11196TIP3    H155079   1.980   1.830  14.433  1.2567  3.0184 -0.8316
11196TIP3    H255080   1.980   1.818  14.282 -0.5780  1.9369 -0.7711
11197TIP3   OH255081   2.873   0.267   1.036  0.3354 -0.2355  0.7433
11197TIP3    H155082   2.830   0.216   0.967  0.6032  0.6165 -0.0704
11197TIP3    H255083   2.800   0.299   1.090 -0.1571  1.4703 -0.8166
11198TIP3   OH255084   2.112   5.351  14.199 -0.0482 -0.4239 -0.1851
11198TIP3    H155085   2.208   5.348  14.204 -0.0558 -1.3462 -0.3283
11198TIP3    H255086   2.086   5.259  14.201 -0.9421 -0.1736 -0.0129
11199TIP3   OH255087   0.276   2.468   1.730 -0.1340  0.3998  0.0371
11199TIP3    H155088   0.363   2.508   1.723 -0.3063  0.4886 -2.6664
11199TIP3    H255089   0.218   2.541   1.753  0.4117  0.4366  1.3624
11200TIP3   OH255090   1.278   1.204  15.216 -0.1101 -0.1358 -0.1258
11200TIP3    H155091   1.247   1.293  15.234  0.6981 -0.0072  0.7406
11200TIP3    H255092   1.367   1.203  15.251 -0.0970 -1.2791 -0.1672
11201TIP3   OH255093   1.393   5.746  12.198 -0.4826  0.2150  0.0334
11201TIP3    H155094   1.484   5.726  12.180  0.0416  2.2863  0.1067
11201TIP3    H255095   1.344   5.669  12.169  0.9799  0.3313 -3.0655
11202TIP3   OH255096   4.118   2.672   5.256  0.2997  0.3597  0.1691
11202TIP3    H155097   4.075   2.615   5.319 -0.2783  0.6858  0.0800
11202TIP3    H255098   4.198   2.701   5.300  1.2004 -1.4131 -0.2195
11203TIP3   OH255099   5.612   0.030  11.347 -0.0976  0.5168 -0.0890
11203TIP3    H155100   5.532   0.014  11.297  0.7515 -1.2973 -0.9465
11203TIP3    H255101   5.657   0.100  11.300 -0.6257  0.7358 -0.2694
11204TIP3   OH255102   0.863   3.844   5.182  0.1762  0.1064  0.8980
11204TIP3    H155103   0.819   3.889   5.110 -0.0206  0.1483  1.0418
11204TIP3    H255104   0.861   3.752   5.157  1.4952  0.2669  0.1163
11205TIP3   OH255105   2.342   5.339   5.633  0.2693 -0.2223  0.0237
11205TIP3    H155106   2.336   5.398   5.558 -1.7887  1.1555  1.1694
11205TIP3    H255107   2.417   5.371   5.683  2.1573 -1.6226 -1.6991
11206TIP3   OH255108   6.708   6.361  14.081 -0.7535 -0.4891 -0.2524
11206TIP3    H155109   6.636   6.361  14.143  0.0027 -1.7072  0.6810
11206TIP3    H255110   6.787   6.354  14.135  0.0805  0.8092 -1.2433
11207TIP3   OH255111   6.112   4.955  16.926 -0.0929 -0.0441 -0.2778
11207TIP3    H155112   6.053   5.025  16.953  0.9599  1.0745 -0.7761
11207TIP3    H255113   6.057   4.876  16.923 -0.8603  0.3083  2.3687
11208TIP3   OH255114   6.780   1.428   3.422  0.3667 -0.5619 -0.0326
11208TIP3    H155115   6.851   1.491   3.417  0.6339 -0.8168  0.5464
11208TIP3    H255116   6.724   1.449   3.347  1.1223 -0.4552 -0.5710
11209TIP3   OH255117   5.267   2.895   1.670 -0.3472  0.1661 -0.2820
11209TIP3    H155118   5.307   2.937   1.747 -0.8524 -0.0053  0.0813
11209TIP3    H255119   5.321   2.924   1.597  0.9213 -0.6871  0.2717
11210TIP3   OH255120   0.837   0.856  15.108 -0.0821  0.7854 -0.4670
11210TIP3    H155121   0.776   0.844  15.181  0.7977 -2.1179 -0.0946
11210TIP3    H255122   0.908   0.908  15.145 -0.0182  0.0031  0.5690
11211TIP3   OH255123   0.661   3.101  15.803  0.2722 -0.0897  0.0887
11211TIP3    H155124   0.680   3.183  15.849  1.2797 -1.2999  1.9073
11211TIP3    H255125   0.746   3.060  15.790 -0.1656 -0.6337 -1.3267
11212TIP3   OH255126   0.045   3.919  15.476  0.3433 -0.5471  0.3021
11212TIP3    H155127   0.002   3.835  15.490  0.2822 -0.6266 -0.3371
11212TIP3    H255128   0.081   3.913  15.388 -0.8420  0.5886 -0.3031
11213TIP3   OH255129   3.300   3.245  13.618  0.7112  0.6739  0.2601
11213TIP3    H155130   3.315   3.300  13.542 -0.1755  0.4214 -0.1074
11213TIP3    H255131   3.305   3.156  13.585 -0.4561  0.5682  0.3250
11214TIP3   OH255132   2.508   0.657   1.240  0.0029  0.3499 -0.3900
11214TIP3    H155133   2.553   0.728   1.287  0.8823 -1.2134  1.2843
11214TIP3    H255134   2.421   0.653   1.280  0.0133  0.3965 -0.3629
11215TIP3   OH255135   4.938   3.078   0.570  0.2431 -0.0533 -0.2264
11215TIP3    H155136   4.897   3.122   0.495  1.2630  1.7919  0.2387
11215TIP3    H255137   4.865   3.064   0.631 -0.4135 -0.6504 -1.1228
11216TIP3   OH255138   0.973   1.410   3.370  0.0321 -0.0144 -0.8622
11216TIP3    H155139   1.053   1.456   3.396  0.2134 -0.4573 -0.6358
11216TIP3    H255140   0.903   1.454   3.419  0.4065 -1.0437  0.6558
11217TIP3   OH255141   2.462   3.249   1.302  0.0643  0.0784  0.0878
11217TIP3    H155142   2.523   3.261   1.230  0.0554 -0.7729 -0.0730
11217TIP3    H255143   2.513   3.203   1.369  0.1599  1.1267  0.7511
11218TIP3   OH255144   0.746   5.953   5.693 -0.6110 -0.1934 -0.2677
11218TIP3    H155145   0.769   6.032   5.645  1.1617  0.3984  1.4412
11218TIP3    H255146   0.721   5.890   5.626  0.5210  0.9945 -1.8539
11219TIP3   OH255147   5.134   1.428   5.733 -0.0383  0.2035 -0.1243
11219TIP3    H155148   5.129   1.519   5.761 -2.2794  0.0412  0.1434
11219TIP3    H255149   5.092   1.378   5.803 -2.0834 -0.6292 -1.8293
11220TIP3   OH255150   6.783   1.645   4.057 -0.0426 -0.0910 -0.5793
11220TIP3    H155151   6.867   1.690   4.066  0.4355 -0.5903 -2.1293
11220TIP3    H255152   6.807   1.556   4.031 -0.8591 -1.8653  3.8685
11221TIP3   OH255153   6.825   1.967  10.462  0.4868  0.1088  0.0578
11221TIP3    H155154   6.824   1.890  10.405 -0.0090 -0.2651  0.5628
11221TIP3    H255155   6.792   2.038  10.407 -0.2454 -0.3032 -0.0468
11222TIP3   OH255156   5.624   5.729   5.547 -0.0676 -0.1393  0.0488
11222TIP3    H155157   5.719   5.721   5.534 -0.1001  0.3107 -0.5168
11222TIP3    H255158   5.588   5.737   5.459 -0.4877  1.0817  0.3047
11223TIP3   OH255159   0.261   1.067   2.768  0.2056  0.6806 -0.8377
11223TIP3    H155160   0.294   1.068   2.858 -0.9177 -0.7782 -0.3659
11223TIP3    H255161   0.327   1.016   2.720  0.0013  0.0735 -0.4830
11224TIP3   OH255162   0.531   1.375   4.372  0.1453 -0.3989 -0.6197
11224TIP3    H155163   0.456   1.434   4.361  1.1040  0.7324 -1.3460
11224TIP3    H255164   0.509   1.299   4.317 -0.5973 -0.2253 -0.5851
11225TIP3   OH255165   0.801   3.210   4.676  0.1264  0.0378 -0.3346
11225TIP3    H155166   0.852   3.132   4.655  1.9453  1.3030 -0.9025
11225TIP3    H255167   0.725   3.205   4.619  0.4541 -1.0815 -0.6959
11226TIP3   OH255168   0.028   3.312  11.936  0.7860  0.0794 -0.3932
11226TIP3    H155169  -0.056   3.346  11.966  0.2490  0.5011 -2.2856
11226TIP3    H255170   0.093   3.361  11.987 -0.0669  1.4491 -0.5788
11227TIP3   OH255171   5.064   2.266  15.045  0.2210 -0.0739 -0.1553
11227TIP3    H155172   5.085   2.359  15.039 -1.5473  0.3031 -1.1793
11227TIP3    H255173   5.009   2.258  15.122  0.3867 -0.2800 -0.0574
11228TIP3   OH255174   5.051   0.112  11.676  0.0330  0.5854 -0.2147
11228TIP3    H155175   4.977   0.099  11.734 -1.7924  1.9870 -2.0790
11228TIP3    H255176   5.052   0.033  11.621  0.4965  0.1827  0.3534
11229TIP3   OH255177   4.124   3.020   5.542  0.0767 -0.1894 -0.0931
11229TIP3    H155178   4.031   3.041   5.549  0.3329  1.3536 -0.7767
11229TIP3    H255179   4.167   3.105   5.547  1.5127 -0.9487  1.0124
11230TIP3   OH255180   0.575   5.957   0.605 -0.1471 -0.3880 -0.2224
11230TIP3    H155181   0.614   6.010   0.674 -0.0195 -2.5428  1.4366
11230TIP3    H255182   0.482   5.952   0.628 -0.3516 -0.0672 -0.9412
11231TIP3   OH255183   1.157   5.675   5.130  0.2611 -0.3896 -0.0821
11231TIP3    H155184   1.186   5.762   5.156 -0.4958 -0.4160  0.9217
11231TIP3    H255185   1.155   5.678   5.034  3.5252 -0.4312 -0.2597
11232TIP3   OH255186   6.530   1.661  15.034 -0.1739 -0.2636  0.1805
11232TIP3    H155187   6.533   1.590  15.098  1.0679 -0.8042 -0.4357
11232TIP3    H255188   6.437   1.675  15.017 -0.4987 -3.4990 -1.5553
11233TIP3   OH255189   6.095   6.271  10.673 -0.6786  0.0114  0.0509
11233TIP3    H155190   6.158   6.208  10.639 -1.9071 -1.7907  0.9118
11233TIP3    H255191   6.042   6.221  10.736 -1.8039  1.8854  0.7041
11234TIP3   OH255192   4.164   5.144  11.052  0.0464  0.5873 -0.0985
11234TIP3    H155193   4.252   5.182  11.058  1.3747 -2.2877 -0.0970
11234TIP3    H255194   4.160   5.108  10.963 -0.9909  0.2871  0.0601
11235TIP3   OH255195   3.829   5.870  12.470  0.1444 -0.1044 -0.6519
11235TIP3    H155196   3.906   5.869  12.412 -0.2474  1.9832 -1.3136
11235TIP3    H255197   3.754   5.872  12.410 -0.3876 -0.8555 -0.0287
11236TIP3   OH255198   1.095   0.935  11.721 -0.6839  0.4523  0.0149
11236TIP3    H155199   1.072   1.026  11.705 -2.6784  0.1391  0.7623
11236TIP3    H255200   1.057   0.887  11.647  0.6431  0.2466 -0.5516
11237TIP3   OH255201   5.046   5.051   2.411 -0.3783  0.5515 -0.4810
11237TIP3    H155202   4.988   5.026   2.484  2.4877 -0.7848  1.5217
11237TIP3    H255203   5.105   5.116   2.449  3.1345 -2.3278 -0.4854
11238TIP3   OH255204   6.115   1.487  13.347  0.7419 -0.0038 -0.2705
11238TIP3    H155205   6.127   1.431  13.271  1.5011  0.2793 -0.3718
11238TIP3    H255206   6.030   1.528  13.334  1.6886  1.5571 -2.0037
11239TIP3   OH255207   2.633   0.208   5.837 -0.5075  0.0935  0.2775
11239TIP3    H155208   2.605   0.126   5.796 -0.6252 -0.1675  0.8745
11239TIP3    H255209   2.722   0.191   5.867 -0.6091  0.1129  0.5938
11240TIP3   OH255210   0.692   6.225  11.039 -0.1296 -0.0582 -0.9159
11240TIP3    H155211   0.717   6.135  11.061 -0.5696  0.0894  0.2908
11240TIP3    H255212   0.775   6.272  11.034  0.1435 -0.6359 -2.1270
11241TIP3   OH255213   3.649   4.015   4.968  0.6481 -0.3510 -0.4463
11241TIP3    H155214   3.720   3.997   5.030  0.7236 -1.7139 -0.9084
11241TIP3    H255215   3.569   4.006   5.020  0.6863 -2.0361 -0.6507
11242TIP3   OH255216   6.120   4.754  11.317 -0.5615 -0.4346 -0.2965
11242TIP3    H155217   6.048   4.765  11.256 -0.4564  0.2159 -0.3086
11242TIP3    H255218   6.175   4.831  11.303  0.5457 -1.2796 -0.8421
11243TIP3   OH255219   6.218   4.369   4.985  0.4976 -1.0099 -0.7079
11243TIP3    H155220   6.255   4.449   5.024  1.4528 -1.3785 -0.8293
11243TIP3    H255221   6.282   4.343   4.919  0.7073 -2.4382  0.0163
11244TIP3   OH255222   3.465   0.436   5.783 -0.1427 -0.1934  0.0589
11244TIP3    H155223   3.496   0.466   5.868  0.8021 -0.0807 -0.3161
11244TIP3    H255224   3.539   0.388   5.746 -0.9565 -1.3138 -0.1789
11245TIP3   OH255225   1.259   2.309  14.282 -0.3643  0.1029 -0.0882
11245TIP3    H155226   1.312   2.309  14.362 -0.6366 -0.1671  0.0957
11245TIP3    H255227   1.206   2.388  14.288 -1.0132 -0.3611  0.4272
11246TIP3   OH255228   4.763   1.667  16.177 -0.6382  0.4664 -0.1110
11246TIP3    H155229   4.815   1.623  16.245 -2.6373 -0.0141  1.1970
11246TIP3    H255230   4.784   1.760  16.188 -3.2451  0.8532  3.5018
11247TIP3   OH255231   6.208   2.714   3.710  0.2171 -0.5947  0.0857
11247TIP3    H155232   6.242   2.628   3.685 -0.0952 -0.5404 -0.5447
11247TIP3    H255233   6.161   2.745   3.633 -2.8186 -1.4319  1.4222
11248TIP3   OH255234   6.369   2.704  14.642 -0.5612 -0.4100  0.5885
11248TIP3    H155235   6.366   2.719  14.548  0.6055 -0.1333  0.5789
11248TIP3    H255236   6.381   2.610  14.651  2.4066 -0.1764  0.3127
11249TIP3   OH255237   1.667   0.859  10.608 -0.2399 -0.1144 -0.3704
11249TIP3    H155238   1.758   0.863  10.578 -0.2692  1.2746 -0.3298
11249TIP3    H255239   1.651   0.766  10.623  0.3160 -0.7240 -3.0200
11250TIP3   OH255240   4.558   0.027   5.445  0.0823 -0.2880 -0.1613
11250TIP3    H155241   4.569   0.122   5.445  0.1207 -0.2349 -2.6879
11250TIP3    H255242   4.509   0.008   5.366  0.1805 -2.4049  0.2213
11251TIP3   OH255243   4.734   6.042  14.037  0.1838  0.2451 -1.0501
11251TIP3    H155244   4.810   6.083  13.996 -0.3276  1.1052 -1.1651
11251TIP3    H255245   4.771   5.980  14.100  1.0503  2.5189  0.8371
11252TIP3   OH255246   1.794   0.411   4.165 -0.0208 -0.0976  0.2574
11252TIP3    H155247   1.886   0.407   4.138 -0.3859  0.3922 -1.1587
11252TIP3    H255248   1.745   0.403   4.083 -1.2257  0.8670  0.8602
11253TIP3   OH255249   3.924   3.839  13.740  0.2288  0.0700  0.1681
11253TIP3    H155250   3.921   3.861  13.833  0.4055  1.3969 -0.1281
11253TIP3    H255251   3.977   3.759  13.736 -0.6996 -0.6305  1.3054
11254TIP3   OH255252   3.241   0.349   3.552 -1.4022  0.4466  0.0332
11254TIP3    H155253   3.313   0.360   3.489 -1.1236  1.1983  0.4722
11254TIP3    H255254   3.172   0.305   3.502 -0.7426 -0.0287 -0.4689
11255TIP3   OH255255   3.453   1.130  13.834  0.2272 -0.3217 -0.6993
11255TIP3    H155256   3.475   1.072  13.907  0.6074  1.3741  0.5871
11255TIP3    H255257   3.417   1.208  13.876 -0.9026  0.1249 -2.4164
11256TIP3   OH255258   1.976   6.596   0.930  0.6411 -0.5391 -0.0472
11256TIP3    H155259   2.028   6.663   0.974 -0.5381 -0.3252  1.0655
11256TIP3    H255260   2.008   6.513   0.967  1.1792 -0.5169 -0.4460
11257TIP3   OH255261   6.471   1.047   5.708  0.1157 -0.5578 -0.6042
11257TIP3    H155262   6.376   1.047   5.714  0.0737 -0.9341 -1.1762
11257TIP3    H255263   6.498   0.962   5.744  0.3745  0.3316  1.3733
11258TIP3   OH255264   3.103   6.070  15.320  0.1740  0.0432 -0.7726
11258TIP3    H155265   3.147   6.144  15.278 -1.6461  0.5159 -1.9355
11258TIP3    H255266   3.106   6.000  15.254  0.5547 -0.4469 -0.2484
11259TIP3   OH255267   3.550   4.133  14.796 -0.6819 -0.3544  0.1590
11259TIP3    H155268   3.469   4.172  14.763 -0.9120 -0.5423  0.4943
11259TIP3    H255269   3.620   4.182  14.753 -0.9705 -0.9904 -1.1010
11260TIP3   OH255270   3.459   2.223   4.823  0.4019  0.2462 -0.2560
11260TIP3    H155271   3.435   2.194   4.911  1.8252  0.2920  0.1706
11260TIP3    H255272   3.518   2.155   4.791  0.7919  0.8028 -0.7264
11261TIP3   OH255273   1.593   2.637  13.830 -0.1157 -0.8717 -0.2082
11261TIP3    H155274   1.660   2.704  13.844 -0.5754 -0.3409 -0.5176
11261TIP3    H255275   1.514   2.672  13.872 -0.5587 -0.8732 -1.0146
11262TIP3   OH255276   4.371   6.087   0.713  0.0156  0.8078 -0.2603
11262TIP3    H155277   4.401   6.154   0.651  1.6313  0.7059  0.3740
11262TIP3    H255278   4.365   6.134   0.796 -0.7047  0.5820 -0.1743
11263TIP3   OH255279   2.702   4.268   5.491  0.1212 -0.1088 -0.7289
11263TIP3    H155280   2.668   4.185   5.456 -1.6690 -0.0484  0.6813
11263TIP3    H255281   2.712   4.324   5.414 -0.0105 -1.1677 -1.5503
11264TIP3   OH255282   0.066   6.544  13.819  0.1885  0.6327  0.1810
11264TIP3    H155283   0.137   6.577  13.764 -0.5167  1.1031 -0.4743
11264TIP3    H255284   0.001   6.614  13.818 -0.4486  0.0497  0.4371
11265TIP3   OH255285   5.234   5.956  11.759  0.2376 -0.4329 -0.0171
11265TIP3    H155286   5.144   5.987  11.767 -0.0821 -1.7251  2.2555
11265TIP3    H255287   5.286   6.034  11.739 -1.1931  0.5841  0.1553
11266TIP3   OH255288   3.845   4.382  17.097  0.2100  0.9688 -0.2473
11266TIP3    H155289   3.767   4.330  17.080  0.1105  0.7758  0.7344
11266TIP3    H255290   3.879   4.404  17.011 -0.2788  0.0792 -0.6738
11267TIP3   OH255291   0.857   4.614  13.314  0.0264  0.6301  0.0143
11267TIP3    H155292   0.870   4.533  13.363  1.2063  0.6480 -0.2316
11267TIP3    H255293   0.945   4.652  13.308 -0.3943  1.5384 -0.5385
11268TIP3   OH255294   0.867   2.920   0.375  0.0513 -0.4065 -0.2562
11268TIP3    H155295   0.952   2.959   0.393 -0.5937  0.7065  0.5207
11268TIP3    H255296   0.880   2.826   0.387  0.8618 -0.1350  1.1444
11269TIP3   OH255297   1.566   4.101  16.333 -0.1061 -0.0707 -0.3587
11269TIP3    H155298   1.553   4.107  16.427 -0.4301 -0.5230 -0.3674
11269TIP3    H255299   1.657   4.128  16.319  0.7998 -2.4651  0.3738
11270TIP3   OH255300   3.723   1.914  14.220 -0.0499  0.1142 -0.7319
11270TIP3    H155301   3.797   1.911  14.281 -0.4229 -0.3298 -0.2922
11270TIP3    H255302   3.749   1.855  14.149 -0.2977 -0.6507 -0.2036
11271TIP3   OH255303   4.164   1.139   4.022  0.0179 -0.5024 -0.4405
11271TIP3    H155304   4.078   1.162   3.988 -0.4692 -2.9636 -1.1004
11271TIP3    H255305   4.225   1.190   3.970 -0.9943  1.8805  0.5481
11272TIP3   OH255306   1.834   0.136  14.050  0.2686 -0.0315 -0.4151
11272TIP3    H155307   1.794   0.146  13.963 -0.1947 -0.6777 -0.2875
11272TIP3    H255308   1.926   0.118  14.032 -0.1763 -2.1048 -0.8797
11273TIP3   OH255309   5.273   6.264   2.468  0.7259 -0.7206 -0.6983
11273TIP3    H155310   5.269   6.190   2.408  1.4424 -1.4620  0.1344
11273TIP3    H255311   5.351   6.313   2.441  1.0767 -1.0816 -0.3630
11274TIP3   OH255312   6.138   6.310  12.193 -0.0688  0.6263 -1.2508
11274TIP3    H155313   6.211   6.371  12.205  0.6303 -0.6037  1.6393
11274TIP3    H255314   6.061   6.357  12.226  0.6068 -0.1767  1.7657
11275TIP3   OH255315   2.194   6.319  14.106 -0.3592  0.4526 -0.6793
11275TIP3    H155316   2.198   6.366  14.189 -0.0816  0.2554 -0.5792
11275TIP3    H255317   2.114   6.351  14.064 -1.1411 -0.3168  0.1886
11276TIP3   OH255318   2.147   4.526   6.536  0.4596 -0.6748  0.0905
11276TIP3    H155319   2.203   4.590   6.580  0.1526 -2.3303  3.1646
11276TIP3    H255320   2.075   4.578   6.501  1.7673  0.9924 -0.2587
11277TIP3   OH255321   1.085   0.986  15.953 -0.1846  0.6012 -0.0047
11277TIP3    H155322   0.993   0.965  15.970  0.3410 -0.5364  1.6486
11277TIP3    H255323   1.111   1.041  16.026  0.7981 -0.2246  0.2958
11278TIP3   OH255324   4.162   1.338  11.540  0.1834  0.5079 -0.2591
11278TIP3    H155325   4.106   1.388  11.599  1.2965 -0.0608  1.3279
11278TIP3    H255326   4.235   1.397  11.520  0.4567  0.2507 -0.0314
11279TIP3   OH255327   5.393   3.660  15.947  0.2503  0.7795  0.2395
11279TIP3    H155328   5.297   3.657  15.949  0.2680 -0.3181  0.0896
11279TIP3    H255329   5.420   3.591  16.008  0.9530  1.3233  0.5552
11280TIP3   OH255330   4.303   1.896  11.492 -0.1990 -0.2033 -0.5699
11280TIP3    H155331   4.385   1.897  11.442 -0.4238  3.1290 -1.1049
11280TIP3    H255332   4.308   1.974  11.547 -1.8611 -1.4351  1.4689
11281TIP3   OH255333   0.991   3.759  16.510 -0.2131 -0.5150  0.7856
11281TIP3    H155334   0.956   3.848  16.502  1.6136  0.0624 -1.6906
11281TIP3    H255335   1.084   3.771  16.525  0.2591 -1.9924 -0.7123
11282TIP3   OH255336   2.582   1.821  16.776 -0.7544  0.2413  0.0232
11282TIP3    H155337   2.582   1.910  16.741  0.0461  0.6116  0.9442
11282TIP3    H255338   2.581   1.765  16.698  0.8579  1.0494 -0.6259
11283TIP3   OH255339   3.490   2.042   0.586 -0.3986  0.4762 -0.8823
11283TIP3    H155340   3.463   2.114   0.643 -0.2170  0.1972 -0.4393
11283TIP3    H255341   3.505   2.083   0.501  3.3166  1.7016  0.1532
11284TIP3   OH255342   6.365   1.927   1.844  0.4332  0.1132  0.5090
11284TIP3    H155343   6.388   1.845   1.888 -0.2093  0.2379  1.0938
11284TIP3    H255344   6.352   1.990   1.915 -1.5465  0.0857  0.2422
11285TIP3   OH255345   2.388   2.634   4.518  0.2835 -0.5597  0.0585
11285TIP3    H155346   2.309   2.636   4.573  0.1709 -0.4412 -0.1072
11285TIP3    H255347   2.436   2.713   4.543 -0.3444  0.1288 -0.8606
11286TIP3   OH255348   4.522   1.403   5.709 -0.1132  0.1305  0.0780
11286TIP3    H155349   4.617   1.413   5.719 -0.0299  0.0355 -0.5757
11286TIP3    H255350   4.503   1.318   5.749  0.4010 -0.8390 -1.6481
11287TIP3   OH255351   1.780   1.733  12.521  0.5232 -0.4185 -0.3183
11287TIP3    H155352   1.851   1.794  12.543 -0.2858  0.9273 -1.2153
11287TIP3    H255353   1.794   1.714  12.428 -0.3211 -0.0762 -0.5229
11288TIP3   OH255354   2.817   0.236  14.256  0.4083 -0.3279  0.1926
11288TIP3    H155355   2.818   0.313  14.313 -0.9243  0.3280 -0.6230
11288TIP3    H255356   2.848   0.267  14.172  1.4221 -1.0695  0.2774
11289TIP3   OH255357   4.269   2.853   2.047  0.4476  0.0588  0.2880
11289TIP3    H155358   4.332   2.784   2.028  0.4468 -0.2289  1.2687
11289TIP3    H255359   4.234   2.831   2.134 -1.4604 -0.1223 -0.4705
11290TIP3   OH255360   0.491   1.067   3.784  0.6000  0.4000  0.6306
11290TIP3    H155361   0.581   1.088   3.758  1.1994 -0.6537  1.7401
11290TIP3    H255362   0.501   1.012   3.861 -1.0227  0.4357  0.8966
11291TIP3   OH255363   4.973   0.213   3.101  0.0832  0.0274  1.2509
11291TIP3    H155364   5.010   0.265   3.173 -2.1147  0.0941  2.4253
11291TIP3    H255365   4.891   0.258   3.079  0.2938 -0.4850 -0.7469
11292TIP3   OH255366   3.575   1.061   0.573  0.3969 -0.3203 -0.3657
11292TIP3    H155367   3.643   1.018   0.624  0.8373 -0.8636 -1.3857
11292TIP3    H255368   3.550   0.997   0.506 -2.2789 -0.7933  0.9402
11293TIP3   OH255369   1.463   4.098  16.629  0.3036 -0.6003 -0.0218
11293TIP3    H155370   1.381   4.137  16.659  0.7607 -0.5361  1.2167
11293TIP3    H255371   1.501   4.060  16.708  1.8412  0.0575 -0.4162
11294TIP3   OH255372   4.454   1.741  13.304  0.4645  0.2304  0.4130
11294TIP3    H155373   4.541   1.777  13.319 -0.6367  3.1741  0.2942
11294TIP3    H255374   4.396   1.793  13.360 -1.2381 -1.7267  0.5897
11295TIP3   OH255375   6.233   5.783   0.701 -0.3660  0.1587 -0.3070
11295TIP3    H155376   6.234   5.819   0.612  0.9104  0.9362 -0.0082
11295TIP3    H255377   6.248   5.859   0.758  0.8436 -0.6037  0.4365
11296TIP3   OH255378   1.046   2.767  13.880 -0.3455 -0.1826  0.2564
11296TIP3    H155379   1.022   2.847  13.833 -1.0130 -0.7956 -0.4716
11296TIP3    H255380   1.109   2.796  13.946 -1.1282  1.0609  0.4850
11297TIP3   OH255381   3.563   0.745  16.281  0.5152 -0.6524  0.0319
11297TIP3    H155382   3.593   0.811  16.344  0.6217 -1.4913  0.8935
11297TIP3    H255383   3.641   0.692  16.264 -0.2953 -2.5886  1.9587
11298TIP3   OH255384   6.557   1.976  16.121 -0.3449  0.4371 -0.0555
11298TIP3    H155385   6.610   2.040  16.074 -0.5538  1.5452  1.1513
11298TIP3    H255386   6.603   1.962  16.204 -0.7827 -0.2838  0.0787
11299TIP3   OH255387   3.294   2.934   1.704  0.4266 -0.4057 -0.8796
11299TIP3    H155388   3.202   2.910   1.711  0.5617 -0.9410 -0.9221
11299TIP3    H255389   3.342   2.860   1.741  0.8417 -0.1285 -0.8501
11300TIP3   OH255390   1.550   6.782  13.749  0.0318 -0.9316 -0.4811
11300TIP3    H155391   1.642   6.795  13.726  0.1890 -0.3095  0.4237
11300TIP3    H255392   1.526   6.861  13.797 -1.0168 -1.0336 -0.8064
11301TIP3   OH255393   3.257   5.215  14.597  0.4675 -0.0763 -0.6094
11301TIP3    H155394   3.258   5.125  14.566  2.7274 -0.1700 -0.4453
11301TIP3    H255395   3.207   5.263  14.531 -0.1031 -1.3052 -1.0896
11302TIP3   OH255396   4.166   6.283   3.676 -0.4353  0.0979  0.0473
11302TIP3    H155397   4.215   6.263   3.597 -1.9612  1.6527 -1.4009
11302TIP3    H255398   4.232   6.311   3.740  0.7423 -0.2502 -0.9966
11303TIP3   OH255399   0.475   5.762  11.993  0.4533  0.0551 -0.3089
11303TIP3    H155400   0.491   5.668  12.006  2.1412  0.4031  0.3050
11303TIP3    H255401   0.454   5.770  11.900 -0.0353 -0.9703 -0.2995
11304TIP3   OH255402   0.275   4.849   5.275 -0.2877  0.4950  0.6461
11304TIP3    H155403   0.278   4.907   5.352 -1.1338 -0.2216  1.2434
11304TIP3    H255404   0.187   4.810   5.278  0.6775 -1.7970  0.9995
11305TIP3   OH255405   6.449   4.775  16.882  0.1459 -0.0867  0.4321
11305TIP3    H155406   6.418   4.752  16.970  1.1416 -0.2509  0.7546
11305TIP3    H255407   6.386   4.734  16.823 -0.0942 -0.6474  1.0611
11306TIP3   OH255408   4.999   5.048  15.513 -0.1364 -0.3005 -0.4639
11306TIP3    H155409   4.926   5.040  15.452 -0.1320 -0.5936 -0.4312
11306TIP3    H255410   4.979   5.126  15.564 -0.7325 -0.7151 -0.0498
11307TIP3   OH255411   0.732   3.082  13.310 -0.6021  0.5016 -0.6948
11307TIP3    H155412   0.775   3.148  13.365 -0.3678  1.5321 -2.0692
11307TIP3    H255413   0.720   3.007  13.369  0.6680  1.1394  0.4558
11308TIP3   OH255414   1.983   3.073  13.102  0.4069  0.1014  0.0657
11308TIP3    H155415   1.907   3.047  13.050  0.6763  1.0830 -0.8628
11308TIP3    H255416   2.050   3.095  13.037  1.4656 -0.6754  0.8718
11309TIP3   OH255417   4.175   6.765  14.467 -0.3939  0.3357  0.3555
11309TIP3    H155418   4.086   6.791  14.490 -0.5540  0.1621 -0.0393
11309TIP3    H255419   4.180   6.780  14.372 -0.0047  0.3400  0.3760
11310TIP3   OH255420   4.029   6.673   5.376 -0.5327  0.1347 -0.1613
11310TIP3    H155421   4.108   6.719   5.404 -1.1450  1.7279 -0.9372
11310TIP3    H255422   3.981   6.658   5.457  1.3783 -2.6332  0.6169
11311TIP3   OH255423   0.692   0.045   6.453  0.4499  0.5479  0.5863
11311TIP3    H155424   0.638  -0.011   6.508  0.5772  0.8197  0.9904
11311TIP3    H255425   0.648   0.045   6.368 -0.6676  1.4280  1.1373
11312TIP3   OH255426   2.679   5.157   3.857 -0.1344 -0.4150  0.2209
11312TIP3    H155427   2.735   5.201   3.793 -1.1721  0.4953 -0.0864
11312TIP3    H255428   2.613   5.112   3.805 -1.4406  0.9426  0.6217
11313TIP3   OH255429   2.017   4.579  13.379  0.1885  0.5504 -0.8776
11313TIP3    H155430   2.009   4.624  13.295 -0.4217  2.0309 -0.0619
11313TIP3    H255431   2.112   4.569  13.392  0.7385  5.1609  0.6109
11314TIP3   OH255432   3.687   3.764  10.879 -0.0207 -0.2048  0.3828
11314TIP3    H155433   3.704   3.835  10.940 -0.9253  0.7413 -0.4269
11314TIP3    H255434   3.751   3.777  10.809 -0.9362  0.5473 -0.3451
11315TIP3   OH255435   5.713   0.628  15.961  0.7561 -0.1948 -0.2223
11315TIP3    H155436   5.716   0.539  15.927 -1.4349 -1.1961  1.9059
11315TIP3    H255437   5.623   0.657  15.945  1.1598  1.2635 -0.0205
11316TIP3   OH255438   3.984   3.038  13.885 -0.6782 -0.1387  0.0802
11316TIP3    H155439   4.008   2.991  13.965  1.8402 -0.8023 -0.9705
11316TIP3    H255440   4.006   3.129  13.903 -0.8976 -0.1491  0.4141
11317TIP3   OH255441   6.143   6.743   0.053 -0.3956 -0.1463  0.3013
11317TIP3    H155442   6.182   6.672   0.105 -0.8604 -1.1527 -0.6693
11317TIP3    H255443   6.218   6.795   0.025 -0.1914  0.9708  2.6803
11318TIP3   OH255444   3.337   5.145   3.675 -0.2307  0.5884  0.1605
11318TIP3    H155445   3.341   5.053   3.649 -1.1450 -0.2962  2.8557
11318TIP3    H255446   3.294   5.189   3.600  0.1304 -1.1567 -1.1311
11319TIP3   OH255447   5.863   6.219  17.210 -1.6044 -0.3265  0.1360
11319TIP3    H155448   5.825   6.307  17.208 -2.5952 -0.6636  1.7183
11319TIP3    H255449   5.927   6.222  17.281 -2.6417 -1.2064  1.1645
11320TIP3   OH255450   1.899   0.235  15.412 -0.0749 -0.0207 -0.7911
11320TIP3    H155451   1.807   0.213  15.396 -0.3945  0.4135  0.3112
11320TIP3    H255452   1.907   0.326  15.385  0.1750 -0.2173 -1.3919
11321TIP3   OH255453   6.620   0.222   2.068 -0.5713 -0.5322  0.6744
11321TIP3    H155454   6.562   0.292   2.097 -1.2638 -1.0161  0.4804
11321TIP3    H255455   6.571   0.141   2.086  0.7811 -1.0621  2.2416
11322TIP3   OH255456   3.856   0.838  11.982  0.1363 -0.2464  0.0321
11322TIP3    H155457   3.823   0.787  11.908 -0.2384  2.4823 -1.8352
11322TIP3    H255458   3.944   0.802  11.998 -0.1639 -1.5548 -1.0686
11323TIP3   OH255459   0.421   3.633   0.644  0.2844 -0.0826  0.0939
11323TIP3    H155460   0.516   3.630   0.636  0.3432 -2.2107  0.9259
11323TIP3    H255461   0.389   3.602   0.559  0.4327 -2.1112  0.7407
11324TIP3   OH255462   2.599   0.672   5.231 -0.5931  0.5672  0.4006
11324TIP3    H155463   2.686   0.657   5.195 -0.3078 -0.8088  1.5383
11324TIP3    H255464   2.556   0.729   5.168 -0.0207 -1.4014 -1.9413
11325TIP3   OH255465   1.254   3.011   3.648 -0.0292 -0.0922  0.0876
11325TIP3    H155466   1.290   3.001   3.560 -0.9392  2.0543 -0.5784
11325TIP3    H255467   1.219   2.924   3.669  0.5968 -0.7616 -1.4693
11326TIP3   OH255468   5.215   3.439   1.890  0.2563 -0.1285 -0.0731
11326TIP3    H155469   5.149   3.426   1.958  0.8543  0.9919  0.7657
11326TIP3    H255470   5.244   3.530   1.902  0.8601 -0.1222 -1.3984
11327TIP3   OH255471   1.093   6.824   4.371 -0.3313  0.1034 -0.3929
11327TIP3    H155472   1.138   6.849   4.290  0.0281  1.0845  0.0918
11327TIP3    H255473   1.063   6.906   4.408 -3.0259 -0.5399 -0.9335
11328TIP3   OH255474   6.263   2.873  11.345  0.3613  0.2652 -0.1180
11328TIP3    H155475   6.286   2.799  11.289  3.8731  0.4268  0.8574
11328TIP3    H255476   6.293   2.847  11.433 -0.6989  1.8307  0.7521
11329TIP3   OH255477   5.441   5.266   1.405  0.3726  0.2203  0.5688
11329TIP3    H155478   5.509   5.213   1.364 -0.0689 -0.2770  0.4721
11329TIP3    H255479   5.486   5.346   1.432  0.8735  0.1303  0.0075
11330TIP3   OH255480   4.463   3.776  16.211  0.4484  0.5626  0.2639
11330TIP3    H155481   4.540   3.754  16.158 -2.0879 -0.0261 -3.5333
11330TIP3    H255482   4.438   3.693  16.252  0.8153  0.3304  0.0283
11331TIP3   OH255483   1.803   2.243  14.756 -0.5822  0.2561  0.3292
11331TIP3    H155484   1.894   2.235  14.728 -0.4910 -0.8293  0.8648
11331TIP3    H255485   1.793   2.335  14.780  0.1577  0.5458 -0.4426
11332TIP3   OH255486   5.435   1.186  13.725 -0.0649 -0.3628  0.7911
11332TIP3    H155487   5.375   1.169  13.799 -0.9549  1.8884  0.6464
11332TIP3    H255488   5.505   1.239  13.763 -0.4010  0.6044  0.0819
11333TIP3   OH255489   3.602   5.156  16.940 -0.2579  0.2364 -0.2163
11333TIP3    H155490   3.617   5.227  17.002  2.2766  0.2939 -0.7818
11333TIP3    H255491   3.608   5.197  16.854 -1.8723 -0.1717 -0.5618
11334TIP3   OH255492   4.294   2.625   4.259  0.2292  0.1587 -1.0330
11334TIP3    H155493   4.339   2.705   4.232  0.3037 -0.0457 -1.5223
11334TIP3    H255494   4.315   2.617   4.352 -0.3085  1.0501 -0.8169
11335TIP3   OH255495   4.498   1.642  11.723 -0.8170 -0.6118  0.3814
11335TIP3    H155496   4.420   1.678  11.765 -0.8056 -0.4215  0.2406
11335TIP3    H255497   4.483   1.547  11.721 -0.1727 -0.7838  2.1338
11336TIP3   OH255498   4.972   5.279  16.036  0.1723  0.4906 -0.5490
11336TIP3    H155499   5.027   5.347  16.076  1.6969  0.1416 -1.9044
11336TIP3    H255500   4.964   5.306  15.945  1.4981 -1.4785 -1.3301
11337TIP3   OH255501   5.225   2.291  14.735  0.1703 -0.1236  0.7508
11337TIP3    H155502   5.151   2.237  14.708 -0.5073  1.3952 -0.6160
11337TIP3    H255503   5.186   2.361  14.787  0.5487  0.9300 -0.3382
11338TIP3   OH255504   6.689   0.555  10.431  0.0045 -0.4312 -0.0704
11338TIP3    H155505   6.674   0.461  10.447  0.5528 -0.4011  0.6590
11338TIP3    H255506   6.690   0.594  10.518 -1.1833  0.4158 -0.4182
11339TIP3   OH255507   0.646   6.406  13.207  0.5911  0.3818 -0.5924
11339TIP3    H155508   0.630   6.327  13.259 -0.3947  1.1701  0.3471
11339TIP3    H255509   0.740   6.424  13.220  0.4272  0.4038  0.7327
11340TIP3   OH255510   5.695   4.555  17.079 -0.2499  0.0983  1.0247
11340TIP3    H155511   5.654   4.535  16.995 -1.0794 -0.6298  1.5797
11340TIP3    H255512   5.668   4.645  17.099 -0.6025  0.0338  0.8298
11341TIP3   OH255513   0.919   3.436  16.431  0.0649 -0.4659 -0.1644
11341TIP3    H155514   0.894   3.503  16.367 -0.6934 -0.0564  0.5229
11341TIP3    H255515   0.861   3.454  16.506  1.1182 -0.7462  0.7349
11342TIP3   OH255516   3.016   2.525  16.150  0.0411  0.2473  0.4269
11342TIP3    H155517   3.011   2.584  16.226 -0.4965  0.1618  0.4583
11342TIP3    H255518   2.984   2.577  16.077 -0.5534 -0.0453  0.4775
11343TIP3   OH255519   0.719   6.493   5.412 -0.0691 -0.2217  0.0893
11343TIP3    H155520   0.658   6.529   5.478 -0.8148  0.1912 -0.8062
11343TIP3    H255521   0.664   6.438   5.356  0.4514 -0.1320 -0.5200
11344TIP3   OH255522   6.395   1.474  10.666 -0.0831  0.5592 -0.0514
11344TIP3    H155523   6.311   1.434  10.690  0.6461 -1.0762 -0.1135
11344TIP3    H255524   6.381   1.507  10.577 -0.8707  0.9492  0.2075
11345TIP3   OH255525   1.327   0.879   1.495 -0.0824 -0.2554  0.3352
11345TIP3    H155526   1.379   0.932   1.555 -0.7492  1.1150 -0.2481
11345TIP3    H255527   1.387   0.858   1.423 -0.5022  2.0884 -0.7883
11346TIP3   OH255528   3.980   3.349  15.090  0.6565  0.1374  0.1908
11346TIP3    H155529   4.057   3.349  15.147 -0.2463 -0.6531  1.4934
11346TIP3    H255530   3.918   3.290  15.134 -1.4174  2.1755  0.1941
11347TIP3   OH255531   6.203   0.071   3.515  0.0188 -0.0306  0.1648
11347TIP3    H155532   6.148   0.006   3.472 -0.6318  0.0596  0.8411
11347TIP3    H255533   6.161   0.155   3.496  0.3096  0.1041  0.1108
11348TIP3   OH255534   1.522   3.307   5.270  0.2938  0.0478 -0.0462
11348TIP3    H155535   1.510   3.231   5.213  0.0883 -0.9083  1.2297
11348TIP3    H255536   1.583   3.363   5.222  2.8074 -2.2747  0.1978
11349TIP3   OH255537   1.440   1.827   5.142 -0.3635  0.7290 -0.4055
11349TIP3    H155538   1.431   1.733   5.155  0.3793  0.6829 -0.2132
11349TIP3    H255539   1.356   1.863   5.171 -0.4082  0.1924  0.1473
11350TIP3   OH255540   4.033   1.681  12.926 -0.2064 -0.2895  0.2771
11350TIP3    H155541   3.994   1.643  13.005  0.7370 -1.1762  0.3332
11350TIP3    H255542   4.087   1.753  12.958  0.0051 -0.5103  0.4146
11351TIP3   OH255543   6.417   3.610  11.857  0.5195  0.9234 -0.1368
11351TIP3    H155544   6.324   3.612  11.881  0.7130  0.9571  0.6362
11351TIP3    H255545   6.426   3.675  11.788  0.1844  1.7717  0.5995
11352TIP3   OH255546   6.720   4.249   0.903 -0.0548 -0.0338 -0.2523
11352TIP3    H155547   6.783   4.310   0.864  0.5370 -0.5284 -0.0801
11352TIP3    H255548   6.652   4.239   0.836  0.2688  0.1672 -0.6178
11353TIP3   OH255549   3.449   4.461  10.571  0.6931 -0.3508  0.2120
11353TIP3    H155550   3.406   4.453  10.485 -0.6702 -1.8853  0.9610
11353TIP3    H255551   3.542   4.447  10.553  1.1303  3.5570 -1.5485
11354TIP3   OH255552   1.839   0.096  13.303  0.5164  0.4483 -0.5606
11354TIP3    H155553   1.764   0.037  13.303  0.1778  0.7890  1.5732
11354TIP3    H255554   1.802   0.182  13.281  0.1031  0.7288  1.0473
11355TIP3   OH255555   1.652   5.165  16.139  0.1267 -0.2206 -0.0900
11355TIP3    H155556   1.593   5.240  16.152 -0.1277 -0.1244 -1.6484
11355TIP3    H255557   1.739   5.204  16.132 -0.1851  0.1897 -2.7176
11356TIP3   OH255558   1.889   1.142   4.034  0.2239  0.0594  0.2512
11356TIP3    H155559   1.854   1.222   3.995  0.4082 -0.1768 -0.4145
11356TIP3    H255560   1.813   1.097   4.071  0.0951  0.4497  0.4682
11357TIP3   OH255561   1.612   5.363  14.500  0.3965 -0.5260  0.6815
11357TIP3    H155562   1.566   5.321  14.573  0.3197 -0.3061  0.7604
11357TIP3    H255563   1.698   5.386  14.536 -0.7525  2.5946  1.7585
11358TIP3   OH255564   3.371   1.573  13.967 -0.1906 -0.0077 -0.6864
11358TIP3    H155565   3.388   1.602  14.056  1.1789 -1.6737 -0.3535
11358TIP3    H255566   3.431   1.626  13.913  1.4776 -1.3145 -0.2043
11359TIP3   OH255567   3.492   1.461  13.736 -0.1158 -0.0406 -0.1202
11359TIP3    H155568   3.514   1.547  13.699  1.7054 -0.4677 -0.1079
11359TIP3    H255569   3.450   1.481  13.819  0.0478  0.8432 -0.2358
11360TIP3   OH255570   3.051   4.846  13.448 -0.7583  0.8347  0.4989
11360TIP3    H155571   2.987   4.915  13.434 -0.6679  0.6248 -1.1470
11360TIP3    H255572   3.126   4.890  13.487 -1.0093  1.5097  0.2336
11361TIP3   OH255573   3.429   0.453  13.056 -0.2489 -0.4943  0.0876
11361TIP3    H155574   3.372   0.380  13.081 -0.9367  0.4390  1.3594
11361TIP3    H255575   3.378   0.531  13.075  0.6565  0.3396 -0.7992
11362TIP3   OH255576   1.445   4.823   5.471 -0.5850  0.1885 -0.0504
11362TIP3    H155577   1.462   4.848   5.562 -0.8109 -0.7650  0.2618
11362TIP3    H255578   1.351   4.839   5.459 -0.5688  0.2511 -0.0923
11363TIP3   OH255579   3.846   2.150   5.057  0.5158  0.3021 -0.7411
11363TIP3    H155580   3.777   2.105   5.007  0.2570 -0.6527  0.4045
11363TIP3    H255581   3.902   2.079   5.089  0.6693  0.8708  0.3079
11364TIP3   OH255582   0.269   4.106   1.703 -0.2063  0.1152  0.2953
11364TIP3    H155583   0.264   4.199   1.683  1.1075  0.3165  0.7529
11364TIP3    H255584   0.232   4.063   1.626  1.2972  0.9723 -0.9899
11365TIP3   OH255585   6.304   2.601   0.373  0.7369 -0.1370  0.3255
11365TIP3    H155586   6.385   2.653   0.370  0.0260  0.9804 -1.7563
11365TIP3    H255587   6.328   2.517   0.333  0.8467  0.2872 -0.5319
11366TIP3   OH255588   5.592   5.521  13.475 -0.3548  0.3224 -0.0671
11366TIP3    H155589   5.641   5.602  13.493 -0.0420 -0.0238  0.7159
11366TIP3    H255590   5.654   5.451  13.495 -1.2446 -0.1324  1.2525
11367TIP3   OH255591   0.308   5.893   2.434  0.1129 -0.1343  0.7382
11367TIP3    H155592   0.259   5.964   2.474 -1.2426  0.3437 -1.6089
11367TIP3    H255593   0.375   5.936   2.381 -0.9473 -0.5103 -0.9905
11368TIP3   OH255594   3.014   2.602  15.284 -0.1579  0.4759  0.0884
11368TIP3    H155595   3.032   2.551  15.205  2.1963  1.4580 -0.1152
11368TIP3    H255596   3.090   2.660  15.292 -1.5465  2.2018  1.6714
11369TIP3   OH255597   2.106   5.255   0.408 -0.1624  0.3781 -0.0745
11369TIP3    H155598   2.056   5.309   0.469  0.4631  0.4587  0.3734
11369TIP3    H255599   2.050   5.249   0.330 -0.2362  1.6818 -0.1448
11370TIP3   OH255600   4.224   2.082   1.595  0.3757  0.0377  0.1096
11370TIP3    H155601   4.179   2.050   1.517 -0.9844 -2.2539  1.7029
11370TIP3    H255602   4.307   2.035   1.595 -1.6484 -4.1255  2.4877
11371TIP3   OH255603   6.234   3.645  13.066  0.0328  0.7163 -0.2498
11371TIP3    H155604   6.329   3.656  13.071  0.2899 -0.8265 -1.1068
11371TIP3    H255605   6.205   3.719  13.013  0.8423  0.8694 -0.5055
11372TIP3   OH255606   0.526   3.985   0.503  0.6911  0.1121 -0.7031
11372TIP3    H155607   0.567   3.938   0.576 -0.8461  0.1178  0.2029
11372TIP3    H255608   0.571   3.952   0.425  1.9784 -0.3200  0.1793
11373TIP3   OH255609   1.394   3.366  16.273 -0.4202  0.1036 -0.3987
11373TIP3    H155610   1.332   3.318  16.327  0.4943 -0.4723  0.1580
11373TIP3    H255611   1.468   3.306  16.261 -0.0479  0.6991 -1.2061
11374TIP3   OH255612   0.172   0.966   4.218  0.8208 -0.0185 -0.1292
11374TIP3    H155613   0.175   0.879   4.178 -0.5304 -0.3501  0.4374
11374TIP3    H255614   0.217   0.955   4.301  0.4169 -0.2503  0.0615
11375TIP3   OH255615   4.405   1.111   4.624  0.5680 -0.0772 -0.5830
11375TIP3    H155616   4.338   1.042   4.631 -0.2863  0.6859 -1.0209
11375TIP3    H255617   4.385   1.172   4.695 -0.8270  1.4891 -2.2241
11376TIP3   OH255618   5.899   2.642  10.315  0.1677  0.2360 -0.0318
11376TIP3    H155619   5.888   2.618  10.407  0.2418 -0.4137 -0.1838
11376TIP3    H255620   5.982   2.690  10.313  0.4318 -0.2044  0.1614
11377TIP3   OH255621   1.874   5.458  11.773  0.1299 -0.4314  0.2660
11377TIP3    H155622   1.829   5.426  11.695  0.4339 -0.4111  0.0809
11377TIP3    H255623   1.961   5.484  11.742 -0.2742  1.0682  0.2922
11378TIP3   OH255624   5.334   6.335  11.030  0.1072  0.2217  0.4804
11378TIP3    H155625   5.306   6.337  11.121  0.7912  0.6121  0.6843
11378TIP3    H255626   5.273   6.394  10.985  0.2255  0.5962  0.8127
11379TIP3   OH255627   4.071   1.609  16.635  0.0350  0.2546 -0.3032
11379TIP3    H155628   4.139   1.676  16.625 -0.5947  0.7072 -1.7447
11379TIP3    H255629   4.007   1.648  16.695 -0.6194  1.2154 -1.5858
11380TIP3   OH255630   4.933   4.211  16.421 -0.6019  0.2447  0.0055
11380TIP3    H155631   5.009   4.268  16.424 -0.2280 -0.1727 -1.0728
11380TIP3    H255632   4.944   4.151  16.495 -1.1455  1.7137  1.3255
11381TIP3   OH255633   1.866   3.396   3.324  0.6575  0.5080  0.1553
11381TIP3    H155634   1.873   3.402   3.229  1.7319 -0.2971  0.1608
11381TIP3    H255635   1.811   3.319   3.340  0.1022  0.9061  0.1921
11382TIP3   OH255636   3.238   0.794   6.463 -0.3742  0.0870  0.4923
11382TIP3    H155637   3.262   0.877   6.505  0.8593 -0.1516  0.2886
11382TIP3    H255638   3.151   0.810   6.426 -1.5444  0.3159  3.1173
11383TIP3   OH255639   1.145   4.369   2.210 -0.1928  0.4318 -0.2102
11383TIP3    H155640   1.236   4.361   2.237  0.2815 -0.7568 -1.9660
11383TIP3    H255641   1.146   4.352   2.116 -2.0287  2.0187 -0.5794
11384TIP3   OH255642   4.162   5.492   2.937 -0.3500  0.7721  0.1092
11384TIP3    H155643   4.078   5.462   2.902 -0.0237  0.2735 -0.2575
11384TIP3    H255644   4.226   5.429   2.905  0.2002  1.2638  0.2054
11385TIP3   OH255645   4.076   1.524  14.718  0.2923 -0.0948  0.2382
11385TIP3    H155646   4.035   1.604  14.751  3.1845  1.2430  0.8740
11385TIP3    H255647   4.131   1.553  14.645  1.6529 -1.4114  0.6773
11386TIP3   OH255648   6.019   3.122  12.397 -0.0158  0.0635 -0.1081
11386TIP3    H155649   5.954   3.079  12.453  0.1753 -0.0469  0.0306
11386TIP3    H255650   6.059   3.051  12.348  2.2544 -0.3204  2.1089
11387TIP3   OH255651   6.715   6.551  12.614  0.1692 -0.3006 -0.3111
11387TIP3    H155652   6.746   6.612  12.547 -0.8687  0.4386 -0.1470
11387TIP3    H255653   6.651   6.497  12.569 -0.1146 -0.1762 -0.0629
11388TIP3   OH255654   1.087   5.456  13.799 -0.0015  0.3252  0.0031
11388TIP3    H155655   1.109   5.512  13.724  0.9033 -0.2321 -0.1671
11388TIP3    H255656   0.992   5.447  13.795 -0.0372  0.9246 -0.6377
11389TIP3   OH255657   2.493   1.194  11.767 -0.1040 -0.4183 -0.2302
11389TIP3    H155658   2.488   1.233  11.854 -1.0187 -1.5040  0.2278
11389TIP3    H255659   2.579   1.153  11.763  0.4031  0.6395 -0.2862
11390TIP3   OH255660   3.076   4.728  12.831  0.5366  0.8199  0.2336
11390TIP3    H155661   3.115   4.803  12.786 -0.8147  1.1491 -0.4339
11390TIP3    H255662   2.995   4.762  12.869 -1.4221 -0.7864 -2.1722
11391TIP3   OH255663   6.498   3.721  14.918  0.3271 -0.5027 -0.3021
11391TIP3    H155664   6.507   3.650  14.981  1.6810  0.6863  0.9349
11391TIP3    H255665   6.569   3.782  14.940  0.0138  0.6159 -2.1278
11392TIP3   OH255666   2.643   4.329  14.823  0.4545  0.1110  0.2317
11392TIP3    H155667   2.635   4.234  14.837  1.8071  0.0631  0.8222
11392TIP3    H255668   2.577   4.367  14.881 -0.0555 -0.4647  0.0384
11393TIP3   OH255669   1.313   0.072  12.676 -0.5243  0.0582 -0.0779
11393TIP3    H155670   1.221   0.092  12.692 -0.4490  0.1891  0.2027
11393TIP3    H255671   1.322   0.074  12.580 -1.3556 -2.4719 -0.2642
11394TIP3   OH255672   3.045   2.510   1.141  0.1093 -0.3394 -0.2339
11394TIP3    H155673   3.097   2.506   1.221 -0.8206  1.6468  0.5538
11394TIP3    H255674   3.033   2.604   1.126 -2.3622 -0.7029 -0.9159
11395TIP3   OH255675   4.559   6.438  13.335 -0.2787  0.0883 -0.0927
11395TIP3    H155676   4.581   6.490  13.413 -0.0473 -2.0043  1.3242
11395TIP3    H255677   4.559   6.502  13.263 -0.2639  2.0700  1.5565
11396TIP3   OH255678   6.656   5.684   2.342 -0.4413  0.2150  0.5801
11396TIP3    H155679   6.586   5.633   2.382 -2.2115  2.9685  1.2009
11396TIP3    H255680   6.723   5.691   2.411  1.0109 -3.1221 -0.2848
11397TIP3   OH255681   5.482   3.381  12.287  0.0674  0.1466 -0.2475
11397TIP3    H155682   5.486   3.449  12.354 -2.8159  1.5169 -1.3236
11397TIP3    H255683   5.535   3.310  12.322  2.6798  2.6239  1.2347
11398TIP3   OH255684   0.724   6.035  13.835 -0.4190  0.6919 -1.0272
11398TIP3    H155685   0.675   6.113  13.860  0.7146  1.0770  0.0816
11398TIP3    H255686   0.704   6.023  13.742 -0.4304  2.4400 -1.2904
11399TIP3   OH255687   6.488   1.500   6.334  0.3738  0.0179  0.4744
11399TIP3    H155688   6.545   1.487   6.410 -0.9049 -0.9793  1.3204
11399TIP3    H255689   6.532   1.456   6.262  1.4599  0.7034  0.7024
11400TIP3   OH255690   1.844   2.170  16.355 -0.1636  0.9086  0.8508
11400TIP3    H155691   1.921   2.127  16.315 -1.3615  0.6473 -1.3593
11400TIP3    H255692   1.841   2.135  16.444 -0.2642 -2.6309 -0.3580
11401TIP3   OH255693   5.337   2.968  14.835 -0.2722  0.2531 -0.6871
11401TIP3    H155694   5.368   3.044  14.787  0.0506  0.9224  0.5542
11401TIP3    H255695   5.414   2.913  14.848 -0.3014  0.2165 -0.6656
11402TIP3   OH255696   0.603   3.856  13.019  0.0776 -0.3118 -0.4165
11402TIP3    H155697   0.533   3.910  12.982 -1.7190 -1.0808  1.6293
11402TIP3    H255698   0.670   3.919  13.044 -1.2246  0.8499  0.3570
11403TIP3   OH255699   5.787   2.900  14.356  0.1981  0.0093  0.0541
11403TIP3    H155700   5.820   2.978  14.400  1.1813 -1.6519  2.4485
11403TIP3    H255701   5.865   2.859  14.319  0.0270 -0.9895  0.7778
11404TIP3   OH255702   6.600   4.724   4.650 -0.6390 -0.1023  0.0554
11404TIP3    H155703   6.639   4.643   4.617 -1.0115 -0.0216 -0.6115
11404TIP3    H255704   6.508   4.718   4.624 -1.2831 -0.6256  2.2197
11405TIP3   OH255705   2.539   6.387  15.801 -0.4142 -0.6229 -0.1508
11405TIP3    H155706   2.619   6.335  15.811  0.4249  0.2665 -1.8116
11405TIP3    H255707   2.469   6.322  15.794 -0.2512 -1.4082  3.6211
11406TIP3   OH255708   5.241   3.690   0.234 -0.0296 -0.4561 -0.3208
11406TIP3    H155709   5.183   3.628   0.191 -3.3677  1.9527  0.3033
11406TIP3    H255710   5.256   3.653   0.321  0.1948 -1.5721 -0.8194
11407TIP3   OH255711   1.833   3.219   5.033  0.1740  0.0014 -0.5336
11407TIP3    H155712   1.798   3.139   5.073 -2.2104  0.2454 -1.9221
11407TIP3    H255713   1.808   3.289   5.093 -0.2734  0.0057 -0.7262
11408TIP3   OH255714   5.538   0.079  14.393  0.3755 -0.3145  0.2842
11408TIP3    H155715   5.478   0.023  14.441 -1.0197  0.7440 -0.1609
11408TIP3    H255716   5.550   0.156  14.450 -1.4418  1.0416 -1.0384
11409TIP3   OH255717   4.118   4.891   4.924 -0.8793  0.4190  0.2875
11409TIP3    H155718   4.179   4.934   4.985  0.1951 -2.0166  1.0458
11409TIP3    H255719   4.048   4.858   4.980  0.1289 -1.8608  0.2922
11410TIP3   OH255720   4.610   1.590   1.829 -0.2264  0.0902 -0.4053
11410TIP3    H155721   4.646   1.621   1.912 -1.2647 -1.2223  0.5826
11410TIP3    H255722   4.582   1.500   1.848 -3.0471  0.6787 -1.3549
11411TIP3   OH255723   1.447   6.264  10.875  0.3045 -0.2025 -0.2409
11411TIP3    H155724   1.383   6.193  10.864  0.7724 -0.5190 -0.9553
11411TIP3    H255725   1.520   6.223  10.921 -0.0156  0.1806  0.6498
11412TIP3   OH255726   1.402   2.369   4.934 -0.0178  0.8106 -0.3321
11412TIP3    H155727   1.314   2.407   4.930 -0.5299 -0.2041  0.6772
11412TIP3    H255728   1.394   2.284   4.892  0.3457  0.4926  0.2238
11413TIP3   OH255729   1.253   3.614  13.880  0.2987  0.1653 -0.3472
11413TIP3    H155730   1.217   3.603  13.792  1.3237 -1.7326 -0.5736
11413TIP3    H255731   1.343   3.583  13.874 -0.4251 -2.8927  1.9790
11414TIP3   OH255732   4.146   6.586   4.148  0.2094  0.6384 -0.1738
11414TIP3    H155733   4.109   6.498   4.155 -0.9989  1.1248 -0.2041
11414TIP3    H255734   4.193   6.586   4.065  0.9459 -0.2256  0.2194
11415TIP3   OH255735   3.098   6.450   2.278 -0.3355  0.0702  0.1381
11415TIP3    H155736   3.182   6.488   2.305 -0.5301  0.5159  0.1273
11415TIP3    H255737   3.093   6.468   2.184  0.2469 -1.2946 -0.1713
11416TIP3   OH255738   1.567   0.436  17.148 -0.4253 -0.0010 -0.0319
11416TIP3    H155739   1.569   0.342  17.130 -0.3460  0.2315 -1.4122
11416TIP3    H255740   1.479   0.454  17.179 -0.7939 -0.3809 -0.8182
11417TIP3   OH255741   2.252   6.739  10.547 -0.3232 -0.1685 -0.1865
11417TIP3    H155742   2.159   6.759  10.544 -0.0834  0.9450 -0.6679
11417TIP3    H255743   2.256   6.644  10.557 -1.5046 -0.1858  0.3201
11418TIP3   OH255744   6.403   0.660  11.379  0.3732  0.3676  0.1608
11418TIP3    H155745   6.311   0.657  11.353  0.7780  1.1116 -1.4453
11418TIP3    H255746   6.421   0.753  11.391  0.8227  0.1952  0.9146
11419TIP3   OH255747   1.015   6.343   2.472  0.6913 -0.3472 -0.1235
11419TIP3    H155748   1.046   6.257   2.445 -0.6016 -0.7937 -0.2216
11419TIP3    H255749   0.993   6.333   2.565 -2.6548 -1.1237 -0.8768
11420TIP3   OH255750   3.184   2.899   5.309 -0.1185  0.0873 -0.4774
11420TIP3    H155751   3.102   2.928   5.348 -0.9802 -0.9428 -1.4605
11420TIP3    H255752   3.186   2.804   5.324  1.6479  0.2781  0.8721
11421TIP3   OH255753   5.087   3.234   4.606  0.2394 -0.3755 -0.2296
11421TIP3    H155754   5.006   3.198   4.570 -0.1293 -1.3407  1.4462
11421TIP3    H255755   5.098   3.318   4.562 -2.5379  0.5443  0.6386
11422TIP3   OH255756   3.619   4.391   0.887  0.4493 -0.0367  0.3199
11422TIP3    H155757   3.644   4.327   0.955 -0.4426 -1.6775 -0.8172
11422TIP3    H255758   3.619   4.340   0.806 -0.2109  1.4628 -0.6597
11423TIP3   OH255759   0.166   3.380  12.890 -0.2419 -0.2812  0.6229
11423TIP3    H155760   0.136   3.468  12.870 -4.0071 -1.6303 -0.5041
11423TIP3    H255761   0.122   3.357  12.972  0.4295 -1.2346  0.7390
11424TIP3   OH255762   0.924   0.780   3.721 -0.0520 -0.2696 -0.1457
11424TIP3    H155763   0.994   0.723   3.690  0.3327  1.2035 -2.1866
11424TIP3    H255764   0.864   0.788   3.646 -0.1516  1.8479  0.0965
11425TIP3   OH255765   3.379   5.314   0.322 -0.1945 -0.4612  0.4638
11425TIP3    H155766   3.448   5.350   0.266 -0.6771 -1.2392 -0.6916
11425TIP3    H255767   3.356   5.231   0.280 -1.4114 -0.5019  1.1675
11426TIP3   OH255768   6.077   6.273   5.881  0.2314  0.1755  0.2775
11426TIP3    H155769   6.075   6.307   5.970  0.3344  0.2044  0.2697
11426TIP3    H255770   6.156   6.312   5.843  1.6319 -1.8545  0.9676
11427TIP3   OH255771   2.738   5.171   2.483 -0.4028 -0.3747 -0.2903
11427TIP3    H155772   2.802   5.151   2.551  1.5764 -1.2037 -2.2780
11427TIP3    H255773   2.774   5.131   2.403 -2.7629  0.2677 -1.7755
11428TIP3   OH255774   2.576   5.319  13.836  0.1874  0.1692 -0.8242
11428TIP3    H155775   2.575   5.363  13.751 -1.1824 -0.4409 -1.1533
11428TIP3    H255776   2.636   5.246  13.824  0.6010  0.5410 -1.0296
11429TIP3   OH255777   4.297   0.917   4.911 -0.7412 -0.8617 -0.2142
11429TIP3    H155778   4.257   0.874   4.986  0.1489  0.2294  0.9223
11429TIP3    H255779   4.387   0.933   4.937 -0.5571  0.0105 -1.3163
11430TIP3   OH255780   4.231   4.365  15.151 -0.4406 -0.2803  0.2685
11430TIP3    H155781   4.296   4.430  15.123 -0.2299 -0.7184 -0.2833
11430TIP3    H255782   4.280   4.306  15.208 -0.8647  0.5979  1.5940
11431TIP3   OH255783   2.668   2.952  10.850  0.0725 -0.6362 -0.0135
11431TIP3    H155784   2.650   3.024  10.911  2.0030 -0.1474  0.0527
11431TIP3    H255785   2.600   2.887  10.868 -0.8373  0.5529  0.9497
11432TIP3   OH255786   0.656   3.178   4.234 -0.2797  0.3563 -0.0146
11432TIP3    H155787   0.720   3.205   4.168  0.4024  1.0698  0.9167
11432TIP3    H255788   0.598   3.118   4.187 -0.4302  1.6283 -1.5221
11433TIP3   OH255789   2.771   1.189  14.961  0.8366  0.5329 -0.2050
11433TIP3    H155790   2.825   1.183  15.040 -0.5762  0.2837  0.7780
11433TIP3    H255791   2.718   1.268  14.974  0.7533  0.6202 -1.0192
11434TIP3   OH255792   0.313   2.846  11.865 -0.9704  0.1211 -0.5883
11434TIP3    H155793   0.404   2.864  11.842 -1.2758 -0.5664 -2.5128
11434TIP3    H255794   0.265   2.924  11.838 -0.8300  1.1628  1.8588
11435TIP3   OH255795   0.779   1.148  15.858 -0.1011  0.5472  0.6643
11435TIP3    H155796   0.785   1.214  15.926 -1.5663  2.7101 -1.1665
11435TIP3    H255797   0.779   1.197  15.776 -2.2413 -1.6013 -0.7774
11436TIP3   OH255798   3.809   5.399  11.309  0.5441 -0.9171  0.0507
11436TIP3    H155799   3.864   5.321  11.305 -1.1163 -2.1632  0.4107
11436TIP3    H255800   3.766   5.393  11.394  1.1195  0.9507  0.5259
11437TIP3   OH255801   0.534   0.655   0.934 -0.5234  0.3162  0.5772
11437TIP3    H155802   0.589   0.588   0.892  0.9794  1.4450  0.6680
11437TIP3    H255803   0.469   0.605   0.983  0.6752 -1.0929  0.7906
11438TIP3   OH255804   0.380   4.602  16.370  0.2326  0.5388 -0.5148
11438TIP3    H155805   0.332   4.682  16.391  0.7133  0.3211  1.6437
11438TIP3    H255806   0.452   4.600  16.433 -1.2523 -2.9110  1.3589
11439TIP3   OH255807   2.210   0.657  12.053  0.6641 -0.0906 -0.1620
11439TIP3    H155808   2.255   0.695  12.129 -1.1601  0.6267  0.6510
11439TIP3    H255809   2.168   0.578  12.087 -1.5912  1.1418  0.0985
11440TIP3   OH255810   4.702   3.849   0.157  0.2996 -0.3642 -0.2375
11440TIP3    H155811   4.723   3.819   0.245 -1.2690 -0.9744 -0.0275
11440TIP3    H255812   4.719   3.943   0.158 -0.1571 -0.2879  0.8669
11441TIP3   OH255813   6.077   1.354  14.825 -0.0620  0.2549 -0.1302
11441TIP3    H155814   5.984   1.360  14.803 -0.0674 -0.2534 -0.2467
11441TIP3    H255815   6.089   1.264  14.856  0.5037  0.1443 -0.6499
11442TIP3   OH255816   4.686   1.308   3.577  0.0731  0.4014  0.0455
11442TIP3    H155817   4.673   1.213   3.580  1.7955  0.0578 -1.7682
11442TIP3    H255818   4.780   1.319   3.571  0.0291  2.3449  1.8208
11443TIP3   OH255819   5.902   5.769   5.363  0.4504  0.4781 -0.0484
11443TIP3    H155820   5.981   5.814   5.393 -0.8014  2.6432  0.1257
11443TIP3    H255821   5.852   5.835   5.316 -3.0216  0.3301  2.9935
11444TIP3   OH255822   6.429   4.007   4.164 -0.4324 -0.8084  1.0030
11444TIP3    H155823   6.464   4.094   4.145  0.6352 -1.1925  1.1616
11444TIP3    H255824   6.488   3.946   4.119 -0.2493 -1.5235  2.1606
11445TIP3   OH255825   4.811   0.646   0.348 -0.5364 -0.2751 -0.0946
11445TIP3    H155826   4.794   0.717   0.411  1.0191 -2.4425  3.0575
11445TIP3    H255827   4.737   0.586   0.359 -0.9906 -0.0018 -1.4842
11446TIP3   OH255828   1.126   0.290   3.318  0.1826 -0.2587  0.3939
11446TIP3    H155829   1.073   0.246   3.384  1.0935 -0.3623  1.0677
11446TIP3    H255830   1.170   0.219   3.271  1.7039 -0.0947  1.5234
11447TIP3   OH255831   4.127   5.201   0.447 -0.6281  0.1620 -0.5143
11447TIP3    H155832   4.067   5.275   0.434 -2.2728 -0.9811  0.1831
11447TIP3    H255833   4.120   5.150   0.367 -0.5306  0.0713 -0.4649
11448TIP3   OH255834   0.102   3.625   4.714 -0.1312  0.3639  0.0147
11448TIP3    H155835   0.162   3.560   4.677 -1.3878 -0.3496 -0.8133
11448TIP3    H255836   0.112   3.702   4.657 -2.4806 -0.9201 -2.2869
11449TIP3   OH255837   5.910   0.864   1.401  0.1679 -0.4016 -0.0266
11449TIP3    H155838   5.902   0.878   1.495 -1.1751  0.0119 -0.1835
11449TIP3    H255839   5.906   0.768   1.391  0.1469 -0.4376  0.3207
11450TIP3   OH255840   5.235   3.167  16.069 -0.2135 -0.8303  0.1464
11450TIP3    H155841   5.254   3.077  16.042 -0.2649 -1.0458  0.8019
11450TIP3    H255842   5.266   3.172  16.159 -0.1747 -0.1748  0.1028
11451TIP3   OH255843   5.949   5.858  14.234  0.3362 -0.2892 -0.4972
11451TIP3    H155844   5.875   5.919  14.236  1.5602  1.2464  0.3499
11451TIP3    H255845   5.946   5.813  14.318  1.9767  1.9069  0.8565
11452TIP3   OH255846   1.936   2.157  11.370  0.4519  0.0500 -0.2203
11452TIP3    H155847   1.850   2.182  11.403  0.6212  0.3933 -0.0325
11452TIP3    H255848   1.935   2.181  11.277  0.6832  0.9586  0.0018
11453TIP3   OH255849   4.400   6.044  11.919  0.0454 -0.0610  0.2701
11453TIP3    H155850   4.408   5.965  11.865 -2.4395 -0.4046  0.2734
11453TIP3    H255851   4.370   6.112  11.858 -1.0839 -0.0016  0.8753
11454TIP3   OH255852   5.832   1.693   1.802  0.0861 -0.3453  0.7303
11454TIP3    H155853   5.918   1.735   1.797 -0.0724 -0.1272 -2.5759
11454TIP3    H255854   5.842   1.611   1.753 -1.9652  0.6151 -1.5461
11455TIP3   OH255855   6.175   1.362  12.259 -0.3338  0.6514  0.2020
11455TIP3    H155856   6.205   1.371  12.349  0.1431  1.2979 -0.0103
11455TIP3    H255857   6.108   1.429  12.248 -1.2007 -0.1605  0.3905
11456TIP3   OH255858   5.480   0.615   2.503  0.2452  0.5276 -0.5896
11456TIP3    H155859   5.419   0.678   2.467  0.5586  0.8066 -0.6305
11456TIP3    H255860   5.548   0.604   2.436 -0.2996 -0.5675 -0.9949
11457TIP3   OH255861   0.918   0.384  14.164  0.0781  0.2061  0.3240
11457TIP3    H155862   0.845   0.331  14.132  1.5105 -1.1350 -0.9109
11457TIP3    H255863   0.910   0.381  14.259 -1.6995  0.4676  0.2160
11458TIP3   OH255864   5.039   4.308   1.237  0.2257  0.3552  0.0893
11458TIP3    H155865   4.949   4.280   1.220  0.1326 -0.2327  1.4148
11458TIP3    H255866   5.030   4.390   1.285  0.3496 -0.1967  1.0867
11459TIP3   OH255867   4.065   6.325   4.112  0.3768  0.7477  0.5015
11459TIP3    H155868   4.041   6.302   4.201 -0.6789  0.3049  0.1184
11459TIP3    H255869   4.096   6.243   4.073 -1.5796  0.3427 -0.2869
11460TIP3   OH255870   4.578   4.659  14.007 -0.0086  0.9553  0.2895
11460TIP3    H155871   4.588   4.590  14.072  0.9969 -0.2020 -1.0204
11460TIP3    H255872   4.558   4.738  14.058  1.1638  0.2019  2.0245
11461TIP3   OH255873   2.117   6.114  17.205 -0.1406 -0.3319  0.0702
11461TIP3    H155874   2.030   6.114  17.245  0.2587  1.5398  1.0563
11461TIP3    H255875   2.169   6.057  17.262 -0.2018  0.3128  0.7920
11462TIP3   OH255876   2.719   4.546   2.203  0.7484 -0.2616  0.3998
11462TIP3    H155877   2.764   4.627   2.227 -1.0086  0.7901  0.3460
11462TIP3    H255878   2.691   4.560   2.113  0.6747 -1.0470  0.2958
11463TIP3   OH255879   0.535   1.370   3.716 -0.4929 -0.0375  0.3026
11463TIP3    H155880   0.454   1.327   3.741 -0.4226  0.6148  1.7435
11463TIP3    H255881   0.603   1.305   3.735 -0.7264 -1.1119 -2.2013
11464TIP3   OH255882   6.441   0.857  11.713 -0.1536  0.7607  0.1103
11464TIP3    H155883   6.528   0.865  11.752  0.4889 -1.0272 -0.8251
11464TIP3    H255884   6.380   0.874  11.785  0.9877 -1.6215  1.7519
11465TIP3   OH255885   4.325   3.320  13.615 -0.2693  0.2368 -0.1450
11465TIP3    H155886   4.266   3.295  13.544 -0.0936 -0.8049  0.0542
11465TIP3    H255887   4.273   3.311  13.694 -0.2572  0.7195 -0.0758
11466TIP3   OH255888   6.125   5.847  11.598  0.2589 -0.0541 -0.0969
11466TIP3    H155889   6.130   5.916  11.664 -1.0205 -2.6067  2.9269
11466TIP3    H255890   6.217   5.829  11.575  0.7552  0.6691  1.2219
11467TIP3   OH255891   2.806   2.915  11.350  0.0156 -0.0111 -0.0218
11467TIP3    H155892   2.739   2.851  11.374 -2.2871  1.9015 -0.9257
11467TIP3    H255893   2.824   2.962  11.431  1.2153 -1.2689  0.4897
11468TIP3   OH255894   1.554   0.562   1.057  0.1855  0.0223 -0.7528
11468TIP3    H155895   1.495   0.494   1.027  0.0383 -0.4373  0.5271
11468TIP3    H255896   1.625   0.515   1.102  1.0849  0.6134 -1.5062
11469TIP3   OH255897   6.773   2.345   2.001 -0.4674  0.1165  0.1911
11469TIP3    H155898   6.833   2.420   1.994 -0.9483  0.5123  0.2213
11469TIP3    H255899   6.822   2.280   2.052 -0.2806  0.6600  0.7235
11470TIP3   OH255900   4.986   4.604   5.240  0.4643 -0.2124 -0.4300
11470TIP3    H155901   5.017   4.649   5.162 -1.9918 -0.2189 -1.4977
11470TIP3    H255902   4.921   4.664   5.278 -2.0278 -2.2407 -1.2415
11471TIP3   OH255903   3.595   2.563   4.457  0.0444 -0.0394  0.7089
11471TIP3    H155904   3.609   2.545   4.549  0.9911  2.0229  1.0150
11471TIP3    H255905   3.552   2.649   4.455 -1.5692 -0.8002 -0.7274
11472TIP3   OH255906   5.078   4.186  12.904  0.0206 -0.3394 -0.6166
11472TIP3    H155907   5.097   4.280  12.896 -1.1803 -0.0805 -0.5967
11472TIP3    H255908   5.082   4.169  12.999 -0.9005 -0.0457 -0.5173
11473TIP3   OH255909   4.960   6.095  14.202 -0.6113 -0.7824 -0.0415
11473TIP3    H155910   4.893   6.150  14.242 -0.6159  1.1841 -2.4554
11473TIP3    H255911   5.022   6.077  14.272 -2.7155 -1.1499  1.8167
11474TIP3   OH255912   2.346   6.799   5.517  0.1802  0.0922  0.1306
11474TIP3    H155913   2.322   6.707   5.523  1.4588 -0.1702  1.9915
11474TIP3    H255914   2.384   6.808   5.430 -1.9487 -0.5727 -0.9540
11475TIP3   OH255915   0.357   2.743  16.944 -0.5125 -0.6858  0.0115
11475TIP3    H155916   0.428   2.799  16.912 -0.7081 -0.4578 -0.0301
11475TIP3    H255917   0.308   2.799  17.005 -0.0033 -1.1855  0.9059
11476TIP3   OH255918   0.307   5.412  14.359  0.3020  0.2384 -0.2607
11476TIP3    H155919   0.402   5.416  14.360  0.2682  1.2787  0.5271
11476TIP3    H255920   0.281   5.471  14.288  0.2425 -0.0801 -0.5061
11477TIP3   OH255921   0.499   6.222  15.507  0.2866  0.6278 -0.2480
11477TIP3    H155922   0.536   6.273  15.435  0.9395  1.5862  0.7326
11477TIP3    H255923   0.539   6.259  15.586 -1.3338  0.4437  0.7171
11478TIP3   OH255924   1.076   4.362  12.243 -0.0699 -0.3019  0.1745
11478TIP3    H155925   0.984   4.380  12.261 -0.0052  1.5462 -1.0637
11478TIP3    H255926   1.123   4.431  12.290  0.7852 -1.6605  1.4142
11479TIP3   OH255927   5.762   5.273  13.507 -0.4457 -0.6571 -0.1174
11479TIP3    H155928   5.767   5.264  13.412 -1.6514 -0.4506 -0.2127
11479TIP3    H255929   5.835   5.219  13.540  1.9521  1.6846 -1.2181
11480TIP3   OH255930   6.810   2.480  10.974  0.1807  0.4192 -0.3345
11480TIP3    H155931   6.798   2.488  11.069  0.3419  0.8036 -0.3432
11480TIP3    H255932   6.880   2.543  10.954 -0.0960  0.5957 -0.7571
11481TIP3   OH255933   4.110   5.134   4.802 -0.4097 -0.6259  0.0230
11481TIP3    H155934   4.171   5.061   4.810  0.5657  0.2916  1.3451
11481TIP3    H255935   4.028   5.101   4.839  0.7505 -0.2764  3.2285
11482TIP3   OH255936   6.712   1.722  15.963 -0.2703  0.6159  0.5197
11482TIP3    H155937   6.798   1.714  16.004 -0.0390  0.7950  0.0817
11482TIP3    H255938   6.693   1.816  15.965  0.3778  0.8058 -1.0340
11483TIP3   OH255939   4.674   2.818   0.916 -0.6580 -0.2997 -0.0337
11483TIP3    H155940   4.660   2.840   1.008  1.4953 -1.3989  0.6296
11483TIP3    H255941   4.747   2.873   0.888 -1.1456 -0.1298 -1.0364
11484TIP3   OH255942   4.338   1.386  11.137  0.6531  0.1769  0.0402
11484TIP3    H155943   4.294   1.377  11.052  0.0806 -0.6748  0.4085
11484TIP3    H255944   4.268   1.411  11.198  1.2333  1.7446  0.1054
11485TIP3   OH255945   2.500   0.009  14.598  0.0440 -0.0512 -0.3469
11485TIP3    H155946   2.472   0.014  14.689  2.8898  0.0234  0.6264
11485TIP3    H255947   2.475   0.094  14.561 -1.6398 -0.2882  0.1500
11486TIP3   OH255948   3.832   3.770  16.060 -0.1727 -0.2808 -0.5775
11486TIP3    H155949   3.776   3.748  15.986  2.0929 -3.5731 -1.5627
11486TIP3    H255950   3.812   3.703  16.126 -0.8161  1.4668  1.0885
11487TIP3   OH255951   2.401   5.599   1.575  0.6961  0.0216  0.2778
11487TIP3    H155952   2.367   5.652   1.503  1.5215  1.2565  0.7686
11487TIP3    H255953   2.373   5.510   1.554  0.0571  0.5038 -1.0419
11488TIP3   OH255954   1.753   2.324  14.501  0.4402 -0.1010 -0.6011
11488TIP3    H155955   1.756   2.242  14.452  0.2523  0.4555 -1.5638
11488TIP3    H255956   1.772   2.298  14.591  0.6288 -1.1661 -0.9277
11489TIP3   OH255957   4.881   2.872   3.896 -0.1936 -0.1771 -0.2953
11489TIP3    H155958   4.863   2.805   3.829 -0.4576  1.3043 -1.7647
11489TIP3    H255959   4.795   2.912   3.912  0.1561  0.5378 -0.2206
11490TIP3   OH255960   5.879   5.789   3.191 -0.4565 -0.4362  0.1491
11490TIP3    H155961   5.892   5.859   3.126 -1.5332 -0.3685 -0.0061
11490TIP3    H255962   5.968   5.764   3.217  0.0716 -1.2233 -2.1755
11491TIP3   OH255963   0.823   1.525  17.231  0.5501 -0.1019  0.0242
11491TIP3    H155964   0.760   1.579  17.279  0.0648 -1.8107  1.3846
11491TIP3    H255965   0.777   1.500  17.151 -0.0283 -0.2542  0.3978
11492TIP3   OH255966   1.689   3.591  16.182  0.2774 -0.1744  0.3568
11492TIP3    H155967   1.735   3.668  16.215  1.3935  0.3577 -2.2313
11492TIP3    H255968   1.713   3.521  16.243  0.0083  1.2472  2.2044
11493TIP3   OH255969   1.086   3.410  11.186 -0.1285  0.1408 -0.2913
11493TIP3    H155970   1.004   3.375  11.153 -0.5345  0.6199  0.1998
11493TIP3    H255971   1.152   3.347  11.157 -0.5917  0.0452 -1.1677
11494TIP3   OH255972   4.935   3.409  13.232 -0.2963 -0.0871 -0.0265
11494TIP3    H155973   4.855   3.361  13.209 -1.5992  0.5691  2.7349
11494TIP3    H255974   4.983   3.350  13.290 -0.1863  0.5935  0.5885
11495TIP3   OH255975   3.559   5.289   6.231 -0.4359  0.3602 -0.1812
11495TIP3    H155976   3.532   5.371   6.273 -2.7514 -0.7488  0.6510
11495TIP3    H255977   3.632   5.257   6.285  2.0299  2.8211 -1.7580
11496TIP3   OH255978   5.785   2.498   0.967  0.1804 -0.0447 -0.2105
11496TIP3    H155979   5.867   2.527   0.927  1.1833  0.0343  1.8199
11496TIP3    H255980   5.810   2.461   1.051 -1.9889  1.2968  1.1264
11497TIP3   OH255981   0.077   1.766   5.857  0.1208  0.3919 -0.2489
11497TIP3    H155982   0.048   1.763   5.948 -1.1474  0.1435 -0.6314
11497TIP3    H255983   0.017   1.828   5.815  1.4000  1.3688 -0.6945
11498TIP3   OH255984   4.099   3.414   2.447 -0.5537  0.2114 -0.7199
11498TIP3    H155985   4.145   3.482   2.398 -0.1467  0.7099  0.3340
11498TIP3    H255986   4.006   3.439   2.440 -0.2982  1.8804  1.0736
11499TIP3   OH255987   5.905   6.371  14.155 -0.1836 -0.1712  0.3974
11499TIP3    H155988   5.870   6.445  14.104 -0.6965 -0.5735  0.1635
11499TIP3    H255989   5.882   6.294  14.104 -0.9209 -0.6066  1.3574
11500TIP3   OH255990   4.202   1.989   1.355  0.0340  0.4495 -0.2263
11500TIP3    H155991   4.137   1.945   1.301  1.3678 -2.1206  0.1050
11500TIP3    H255992   4.228   2.065   1.304 -0.2487 -0.7470 -2.2582
11501TIP3   OH255993   5.120   4.065   2.540  0.2305 -0.1058  0.3566
11501TIP3    H155994   5.203   4.089   2.498 -0.6451 -2.5236 -3.2621
11501TIP3    H255995   5.057   4.130   2.508  0.3125  0.4744  1.3574
11502TIP3   OH255996   3.721   1.087  15.310  0.1052 -0.1712  0.0929
11502TIP3    H155997   3.720   1.140  15.231  1.7720  0.9779  0.8023
11502TIP3    H255998   3.732   1.150  15.381 -2.0904 -1.0970  1.3610
11503TIP3   OH255999   3.978   6.701   6.816 -0.5970  0.4301 -0.2556
11503TIP3    H156000   4.040   6.630   6.833 -1.4900 -0.2492  0.2143
11503TIP3    H256001   3.959   6.738   6.903 -1.2293  0.3096 -0.3396
11504TIP3   OH256002   2.322   4.404   4.292  0.4542 -0.0270 -0.3921
11504TIP3    H156003   2.402   4.373   4.333  0.3231  0.0945 -0.0415
11504TIP3    H256004   2.350   4.468   4.228  0.5019  1.8285  1.3809
11505TIP3   OH256005   3.942   3.593  17.242 -0.2392  0.0728 -0.3020
11505TIP3    H156006   3.847   3.590  17.226 -0.2650  1.2074 -0.4523
11505TIP3    H256007   3.976   3.648  17.171  0.3852  0.5652  0.3740
11506TIP3   OH256008   4.292   2.135   5.293 -0.3482 -0.1446  0.1956
11506TIP3    H156009   4.198   2.146   5.285 -0.1639  0.9844 -0.6506
11506TIP3    H256010   4.322   2.214   5.339  0.3058  0.0499 -0.5335
11507TIP3   OH256011   0.292   6.655   4.989  0.3618  0.1482  0.1330
11507TIP3    H156012   0.309   6.748   4.970  0.9678 -0.3641 -2.0944
11507TIP3    H256013   0.374   6.611   4.968 -0.2791 -1.0383  0.0493
11508TIP3   OH256014   6.462   6.081   0.054  0.0260 -0.5600  0.3150
11508TIP3    H156015   6.535   6.137   0.028  1.5796 -2.0661  1.2136
11508TIP3    H256016   6.415   6.062  -0.028 -0.2244  1.5330 -0.0772
11509TIP3   OH256017   1.472   3.794  16.365  0.5870  0.7243  0.8875
11509TIP3    H156018   1.406   3.832  16.423 -0.7891  0.0069 -0.1418
11509TIP3    H256019   1.506   3.869  16.317  0.1423  1.0517  1.0722
11510TIP3   OH256020   6.334   6.279  13.246  0.0146  0.0291  0.2978
11510TIP3    H156021   6.255   6.324  13.216 -1.1269 -1.5067  0.8435
11510TIP3    H256022   6.401   6.302  13.182 -1.6865 -1.1250 -2.0578
11511TIP3   OH256023   1.675   5.280   0.697  0.2508  0.8021  0.1704
11511TIP3    H156024   1.755   5.228   0.689 -0.0166  0.2073  1.1716
11511TIP3    H256025   1.604   5.217   0.682 -0.0651  0.9333  1.0746
11512TIP3   OH256026   0.109   1.634   4.812  0.4918 -0.4328  0.1725
11512TIP3    H156027   0.068   1.562   4.860 -2.4858  0.4927 -0.7694
11512TIP3    H256028   0.148   1.689   4.880  0.4751 -1.5370  1.1060
11513TIP3   OH256029   1.558   1.729  16.287 -0.2557  0.5810 -0.3677
11513TIP3    H156030   1.520   1.817  16.286 -0.0931  0.7148  1.5499
11513TIP3    H256031   1.652   1.744  16.295 -0.2278  0.2434 -0.0606
11514TIP3   OH256032   3.532   3.898  15.271 -0.0864  0.4182 -0.0139
11514TIP3    H156033   3.451   3.847  15.267  1.5808 -2.3110 -2.9106
11514TIP3    H256034   3.524   3.962  15.201  0.4151 -0.1535 -0.6021
11515TIP3   OH256035   6.389   3.347   1.463 -0.3765  0.0416 -0.2077
11515TIP3    H156036   6.295   3.366   1.464 -0.7783 -1.7561  0.2649
11515TIP3    H256037   6.399   3.273   1.523  1.3669  0.2545 -0.1811
11516TIP3   OH256038   2.409   4.687   3.396  0.5392 -0.0637  0.2051
11516TIP3    H156039   2.360   4.614   3.360  0.3033  0.5867 -0.8301
11516TIP3    H256040   2.500   4.656   3.399  0.7204  0.1191 -1.7681
11517TIP3   OH256041   3.467   4.335  14.244 -0.0077  0.2477  0.0030
11517TIP3    H156042   3.404   4.381  14.299  1.1741  2.8996 -0.6991
11517TIP3    H256043   3.553   4.368  14.273  0.9069 -1.2961 -0.7971
11518TIP3   OH256044   2.856   3.924  15.159  0.2917 -0.2142  0.0484
11518TIP3    H156045   2.922   3.879  15.212  1.2413 -0.7748 -1.5235
11518TIP3    H256046   2.808   3.978  15.221  2.2863  0.2836  1.2531
11519TIP3   OH256047   5.131   1.884   2.319  0.4478  0.0253  0.4705
11519TIP3    H156048   5.182   1.954   2.359 -0.0664  0.3409  0.5870
11519TIP3    H256049   5.167   1.803   2.355  1.3000  0.2060  0.0453
11520TIP3   OH256050   6.642   5.038   3.936  0.8365  0.7823  0.2790
11520TIP3    H156051   6.699   4.961   3.933  0.5409  0.5660 -1.8366
11520TIP3    H256052   6.569   5.015   3.879 -0.4963  1.7389  1.5405
11521TIP3   OH256053   4.874   0.099   0.663 -0.2657  0.1629  0.1015
11521TIP3    H156054   4.847   0.190   0.648  0.4601  0.2878 -0.5053
11521TIP3    H256055   4.862   0.086   0.757 -1.0579  0.6552  0.0765
11522TIP3   OH256056   0.781   1.753   3.249 -0.4498 -0.4629 -0.8007
11522TIP3    H156057   0.785   1.713   3.162  0.4220 -2.3393  0.0669
11522TIP3    H256058   0.855   1.814   3.250  1.6693 -2.9046 -0.2600
11523TIP3   OH256059   5.815   2.939  12.842  0.6543  0.3394  0.4712
11523TIP3    H156060   5.787   2.849  12.859  0.3062  0.2788 -0.3641
11523TIP3    H256061   5.826   2.977  12.929  1.0255 -0.5728  0.8408
11524TIP3   OH256062   6.220   0.343  16.581 -0.3253 -0.3803  0.2114
11524TIP3    H156063   6.201   0.275  16.646  1.1785  1.0041  2.2275
11524TIP3    H256064   6.134   0.369  16.547 -1.0623 -1.9650  0.7800
11525TIP3   OH256065   4.022   5.409   2.365 -0.0650 -0.4435 -0.4000
11525TIP3    H156066   4.032   5.463   2.286  1.2823 -0.9169 -0.5804
11525TIP3    H256067   3.934   5.428   2.396 -0.3359  0.3461 -1.5841
11526TIP3   OH256068   5.101   6.532  14.093 -0.4580  0.3104  0.1673
11526TIP3    H156069   5.037   6.600  14.071 -0.0553  0.7885  0.4313
11526TIP3    H256070   5.138   6.506  14.009 -1.0665 -0.0321  0.0081
11527TIP3   OH256071   4.729   3.153  13.508 -1.1015  0.2622  0.4360
11527TIP3    H156072   4.673   3.111  13.444 -0.6912  0.5055 -0.0905
11527TIP3    H256073   4.699   3.244  13.511  0.1225  0.7524 -0.8728
11528TIP3   OH256074   4.929   5.344  13.277 -0.8465 -0.3825 -1.2639
11528TIP3    H156075   4.839   5.343  13.310 -0.0684 -1.8556  1.1157
11528TIP3    H256076   4.950   5.252  13.260  0.7819 -0.3249  0.1248
11529TIP3   OH256077   5.883   4.963   5.098 -0.0190 -0.6358 -0.0120
11529TIP3    H156078   5.953   4.985   5.036 -0.2168 -0.0155 -0.0265
11529TIP3    H256079   5.816   4.920   5.046  0.5112 -1.5691  0.0683
11530TIP3   OH256080   5.180   1.528   1.536  0.0760 -0.7546  0.0241
11530TIP3    H156081   5.125   1.548   1.612  0.1491  2.3882 -0.6135
11530TIP3    H256082   5.120   1.489   1.473 -1.3791  1.8337 -0.3418
11531TIP3   OH256083   0.330   5.930   2.082 -0.5093 -0.2549 -0.2398
11531TIP3    H156084   0.387   5.969   2.149 -0.6357  1.4793 -1.0962
11531TIP3    H256085   0.340   5.986   2.006 -1.6482 -1.2349 -1.1539
11532TIP3   OH256086   5.204   5.586  15.306  0.3853  0.1196  0.3425
11532TIP3    H156087   5.165   5.506  15.271  0.2679 -0.0286  0.8070
11532TIP3    H256088   5.162   5.657  15.258 -0.5147 -0.0310  0.8999
11533TIP3   OH256089   4.822   0.017  12.274  0.3736 -0.0828 -0.4166
11533TIP3    H156090   4.800   0.102  12.310 -1.4849 -0.8002  0.2645
11533TIP3    H256091   4.823   0.031  12.179  0.9169  0.8445 -0.2884
11534TIP3   OH256092   2.604   6.337   5.713  0.0233  0.2427  0.1994
11534TIP3    H156093   2.561   6.264   5.756  1.8280 -1.4237 -0.6872
11534TIP3    H256094   2.692   6.340   5.751  0.9530  0.0459 -1.8113
11535TIP3   OH256095   0.681   6.425   5.996 -0.4583  0.0843 -0.3542
11535TIP3    H156096   0.650   6.369   5.925  0.0721  0.5941 -1.0055
11535TIP3    H256097   0.764   6.387   6.022 -0.0254  0.6234 -0.8964
11536TIP3   OH256098   3.860   1.120  16.145  0.1768 -0.0984  0.6816
11536TIP3    H156099   3.777   1.083  16.114  0.1281 -1.0216  1.8721
11536TIP3    H256100   3.927   1.069  16.100  0.2407  2.4106 -2.4693
11537TIP3   OH256101   6.672   1.717   3.472  0.7125 -0.8780  0.1129
11537TIP3    H156102   6.653   1.703   3.380  0.3375 -0.3864  0.1122
11537TIP3    H256103   6.758   1.759   3.473  0.9292 -1.3160  0.0148
11538TIP3   OH256104   1.837   3.138  14.932 -0.0966 -0.8489  0.6291
11538TIP3    H156105   1.896   3.211  14.917 -0.3897 -0.6926  0.2210
11538TIP3    H256106   1.766   3.150  14.868 -0.6988 -0.8911  1.2739
11539TIP3   OH256107   1.898   1.784  17.158 -0.4163  0.3923  0.0602
11539TIP3    H156108   1.894   1.775  17.254 -0.3607 -0.4022 -0.0047
11539TIP3    H256109   1.939   1.703  17.128 -1.7394 -0.0308 -0.7369
11540TIP3   OH256110   1.535   0.880   0.634  0.4475 -0.2293  0.1628
11540TIP3    H156111   1.500   0.968   0.618  1.1841 -0.3797 -2.9903
11540TIP3    H256112   1.497   0.826   0.565  1.8784 -1.8540  0.5766
11541TIP3   OH256113   1.153   5.352  13.234 -0.2262  0.4242  0.0977
11541TIP3    H156114   1.132   5.446  13.234 -0.6571  0.3375  0.6526
11541TIP3    H256115   1.138   5.324  13.144  0.5665  1.0218 -0.2416
11542TIP3   OH256116   1.265   1.842  12.632 -0.1543  0.1570  0.2707
11542TIP3    H156117   1.225   1.800  12.708 -0.9483  0.4010 -0.0006
11542TIP3    H256118   1.198   1.902  12.600  0.1280 -0.0372 -0.7075
11543TIP3   OH256119   1.472   3.634   0.635  0.4289  0.0034  0.2727
11543TIP3    H156120   1.522   3.569   0.686 -0.7093 -0.3746  0.9590
11543TIP3    H256121   1.380   3.613   0.655  0.0333  2.0586  0.7952
11544TIP3   OH256122   5.254   5.373  14.725  0.6720 -0.3847  0.3636
11544TIP3    H156123   5.203   5.449  14.753 -0.9796 -1.5594  0.6679
11544TIP3    H256124   5.209   5.341  14.647  0.2939 -2.0552  1.2222
11545TIP3   OH256125   5.791   3.893  13.323 -0.3871 -0.6824 -0.2157
11545TIP3    H156126   5.729   3.859  13.388  2.0456 -0.2427  2.5206
11545TIP3    H256127   5.839   3.816  13.293  0.1745 -0.5850  0.4223
11546TIP3   OH256128   1.647   5.792   4.080 -0.3785 -0.5842 -0.3256
11546TIP3    H156129   1.662   5.698   4.085  0.3985 -0.4601 -0.1987
11546TIP3    H256130   1.584   5.803   4.009 -2.2209 -1.3849  1.0952
11547TIP3   OH256131   1.216   3.596   0.719  0.3983  0.0911  0.1842
11547TIP3    H156132   1.145   3.606   0.656 -0.0238  1.2769  0.8148
11547TIP3    H256133   1.205   3.507   0.753  0.2162 -0.3186 -0.8956
11548TIP3   OH256134   1.907   3.724   4.676 -0.4819 -0.2139 -0.9176
11548TIP3    H156135   1.872   3.812   4.661  1.0160  0.9504  1.7543
11548TIP3    H256136   1.851   3.686   4.744  1.3255  0.4419  1.0723
11549TIP3   OH256137   0.056   6.608   1.404 -0.6458  0.4775 -0.5077
11549TIP3    H156138   0.070   6.520   1.370 -5.2602 -0.5897 -0.2791
11549TIP3    H256139   0.007   6.595   1.486  1.1176  3.2728  1.1717
11550TIP3   OH256140   0.099   2.203   0.111  0.0076  0.4412  0.1677
11550TIP3    H156141   0.080   2.149   0.035 -0.0615 -0.2188  0.6537
11550TIP3    H256142   0.186   2.174   0.140  0.1204  0.8289  0.2301
11551TIP3   OH256143   0.711   0.989  13.479  0.7121 -0.7947  0.3120
11551TIP3    H156144   0.650   1.043  13.530  1.9114  0.6078  0.3183
11551TIP3    H256145   0.655   0.927  13.433 -0.5295 -1.1516  2.1792
11552TIP3   OH256146   3.672   2.795   6.474  0.5799  0.1798  0.3610
11552TIP3    H156147   3.613   2.869   6.460 -0.7918 -1.2433 -2.2019
11552TIP3    H256148   3.739   2.828   6.534 -1.4347  2.6320  1.4352
11553TIP3   OH256149   4.341   3.527  14.466  0.1933 -0.1945  0.1938
11553TIP3    H156150   4.318   3.437  14.487  0.7747 -0.2919  0.4410
11553TIP3    H256151   4.276   3.580  14.511  1.6601 -0.3658  2.6937
11554TIP3   OH256152   0.782   0.364   2.935 -0.1442  0.5294  1.1795
11554TIP3    H156153   0.768   0.416   2.855 -1.4994  1.6675  2.1044
11554TIP3    H256154   0.869   0.389   2.965  0.8228 -0.6670 -0.4314
11555TIP3   OH256155   4.388   2.797  16.876 -0.0678 -0.0133  0.5014
11555TIP3    H156156   4.381   2.705  16.901  0.1451  0.3497  2.0483
11555TIP3    H256157   4.297   2.825  16.862 -0.2563 -0.1223  1.4377
11556TIP3   OH256158   0.536   3.688  16.403 -0.1814  0.4206 -0.2622
11556TIP3    H156159   0.471   3.667  16.471 -0.9843 -2.0951 -1.6689
11556TIP3    H256160   0.586   3.607  16.393  1.1460  1.3431 -1.4041
11557TIP3   OH256161   3.377   1.216  11.498 -0.4603 -0.4009 -0.2390
11557TIP3    H156162   3.298   1.192  11.451 -0.3307  1.0459 -1.2576
11557TIP3    H256163   3.448   1.194  11.438 -0.1298 -0.8482  0.3025
11558TIP3   OH256164   3.317   4.837  14.435  0.2391 -0.6951  0.1987
11558TIP3    H156165   3.359   4.924  14.436  0.2652 -0.7080  0.2998
11558TIP3    H256166   3.226   4.855  14.411  0.0017 -0.5244  1.1491
11559TIP3   OH256167   4.050   3.283  11.908  0.1478 -0.4933  0.5777
11559TIP3    H156168   4.017   3.298  11.997 -1.3223  1.0782 -0.1748
11559TIP3    H256169   4.007   3.202  11.880  0.4290 -0.8640  1.1814
11560TIP3   OH256170   4.506   4.986   0.074  0.0362  0.8962 -0.2665
11560TIP3    H156171   4.585   4.987   0.020  0.4819  0.6391  0.3825
11560TIP3    H256172   4.438   5.020   0.016  0.2702 -0.4202 -1.3557
11561TIP3   OH256173   5.724   6.261  11.705  0.4524  0.4125 -0.1510
11561TIP3    H156174   5.668   6.223  11.638  1.1429 -0.3623 -0.3027
11561TIP3    H256175   5.679   6.243  11.788  0.3996 -0.0685 -0.2829
11562TIP3   OH256176   3.848   0.585  12.177  0.5493 -0.0549  0.6788
11562TIP3    H156177   3.905   0.615  12.248  1.7522 -0.5021 -0.0555
11562TIP3    H256178   3.905   0.587  12.100 -0.4548 -0.5061 -0.0817
11563TIP3   OH256179   2.417   2.499  14.176  0.6084 -0.2214  0.5607
11563TIP3    H156180   2.337   2.497  14.229  1.6162 -0.6312  2.1220
11563TIP3    H256181   2.488   2.505  14.240  1.8355  0.0803 -0.7957
11564TIP3   OH256182   6.156   5.042  16.635 -0.5103  0.2844  0.0246
11564TIP3    H156183   6.135   5.111  16.572  1.0771  1.7886  1.0524
11564TIP3    H256184   6.174   5.089  16.717 -0.5923 -1.4533  1.0851
11565TIP3   OH256185   2.925   0.672  17.034 -0.2467 -0.0226 -0.0718
11565TIP3    H156186   2.988   0.668  16.962 -0.0920 -0.8925  0.1040
11565TIP3    H256187   2.840   0.682  16.991 -0.1820 -0.8067 -0.3916
11566TIP3   OH256188   0.569   4.051  14.288 -0.0677 -0.2914 -0.4172
11566TIP3    H156189   0.593   3.988  14.220 -2.1098  1.1081 -2.5687
11566TIP3    H256190   0.623   4.128  14.269  2.0830 -1.0643  1.9237
11567TIP3   OH256191   0.516   2.128  15.004  0.1993  0.5024 -0.0521
11567TIP3    H156192   0.527   2.059  14.938  0.0755  0.1761  0.2620
11567TIP3    H256193   0.511   2.080  15.087  1.9674  1.0003  0.3777
11568TIP3   OH256194   0.543   3.063   5.157 -0.2565 -0.9333 -0.5511
11568TIP3    H156195   0.585   2.989   5.112 -0.1499  0.2389 -2.5082
11568TIP3    H256196   0.614   3.125   5.173 -0.8354  0.1849 -2.0476
11569TIP3   OH256197   3.947   5.214  17.232  0.8248  0.3829 -0.2136
11569TIP3    H156198   3.906   5.135  17.198  0.5443 -0.3758  1.7247
11569TIP3    H256199   4.032   5.218  17.189  0.2044 -0.0541 -1.5306
11570TIP3   OH256200   3.564   2.599   1.355  0.0751 -0.3517  0.0834
11570TIP3    H156201   3.485   2.585   1.407  0.1420  0.1415  0.3276
11570TIP3    H256202   3.578   2.694   1.360 -1.2722  0.1058 -2.7683
11571TIP3   OH256203   4.616   5.598   2.579  0.1375  0.1356 -1.4575
11571TIP3    H156204   4.547   5.536   2.602  1.3514 -1.5239 -2.1394
11571TIP3    H256205   4.640   5.638   2.663  0.6290 -1.7055 -0.6822
11572TIP3   OH256206   1.001   1.872   3.621  0.6003  0.7610 -0.3741
11572TIP3    H156207   0.986   1.933   3.548 -0.2068  0.5338 -0.4102
11572TIP3    H256208   0.979   1.786   3.585  1.3549  0.4871 -0.2043
11573TIP3   OH256209   4.067   5.825  12.793  0.2836  0.2869 -0.1459
11573TIP3    H156210   3.996   5.880  12.761 -0.4143 -0.7652 -0.4689
11573TIP3    H256211   4.147   5.871  12.767 -0.2706  1.5312  0.3131
11574TIP3   OH256212   2.295   0.042   3.902  0.1108 -0.0821  0.6057
11574TIP3    H156213   2.299  -0.052   3.914 -0.6071  0.0114  1.6819
11574TIP3    H256214   2.362   0.077   3.961 -0.7048  0.1566  1.4126
11575TIP3   OH256215   4.019   2.235   5.336 -0.1031 -0.6071 -0.6067
11575TIP3    H156216   4.008   2.320   5.379 -0.1270 -0.1813 -1.4335
11575TIP3    H256217   4.019   2.256   5.243  2.7985 -1.1504 -0.8107
11576TIP3   OH256218   5.353   3.470  13.470 -0.0392 -0.3007 -0.5463
11576TIP3    H156219   5.422   3.497  13.409 -1.2896  1.3484 -1.3188
11576TIP3    H256220   5.342   3.377  13.455  0.9073 -0.2626 -1.5587
11577TIP3   OH256221   1.496   2.833   4.824 -0.2598  0.2995  0.5742
11577TIP3    H156222   1.565   2.773   4.799 -0.1683  0.7537 -0.3236
11577TIP3    H256223   1.471   2.807   4.912 -0.1620 -0.9896  0.2384
11578TIP3   OH256224   3.013   1.778   4.432 -0.2930 -0.4568 -0.2609
11578TIP3    H156225   2.981   1.844   4.494 -0.6943  0.8993 -1.8570
11578TIP3    H256226   2.944   1.711   4.431 -0.9357  0.1945 -0.2578
11579TIP3   OH256227   2.876   2.358   0.144 -0.1256  0.5718 -0.7009
11579TIP3    H156228   2.892   2.275   0.190 -1.1926  0.4654 -0.4842
11579TIP3    H256229   2.959   2.379   0.101  0.5690  0.0950  0.3638
11580TIP3   OH256230   6.607   3.990   1.373  0.5158 -0.3768  0.2878
11580TIP3    H156231   6.608   3.988   1.277 -0.0843  0.5624  0.2466
11580TIP3    H256232   6.569   3.906   1.398 -4.0860  1.2228 -0.4715
11581TIP3   OH256233   0.890   2.559  13.305 -0.3024  0.3288  0.3399
11581TIP3    H156234   0.898   2.470  13.273 -0.4113  0.6922 -0.7158
11581TIP3    H256235   0.980   2.584  13.329  0.5601  1.3320 -3.2568
11582TIP3   OH256236   3.885   3.727  16.397  0.8502  0.7343 -0.1901
11582TIP3    H156237   3.808   3.686  16.358  0.1247  2.5026 -0.7214
11582TIP3    H256238   3.896   3.683  16.481  0.1404 -0.5253 -0.7367
11583TIP3   OH256239   4.060   3.216   2.917 -0.0951 -0.0824 -0.5152
11583TIP3    H156240   3.968   3.240   2.915 -0.4440 -1.2421 -3.3136
11583TIP3    H256241   4.064   3.138   2.972 -1.5742 -2.3553 -3.3470
11584TIP3   OH256242   6.655   5.382  11.013 -0.1081 -0.3176  0.0784
11584TIP3    H156243   6.640   5.380  10.919 -1.7572 -1.7971  0.3152
11584TIP3    H256244   6.732   5.328  11.027  0.1224 -0.1170 -0.4083
11585TIP3   OH256245   3.276   2.992   2.021  0.0725  0.5643  0.1884
11585TIP3    H156246   3.293   3.027   2.109 -0.8394  1.1709  0.1359
11585TIP3    H256247   3.346   2.929   2.007  0.0095  0.1673  1.5056
11586TIP3   OH256248   1.982   6.445   1.206 -0.3436  0.4157 -0.1654
11586TIP3    H156249   1.965   6.371   1.264  0.3362  0.8371  0.5869
11586TIP3    H256250   2.077   6.453   1.204 -0.3733  0.5868 -1.1184
11587TIP3   OH256251   6.634   4.691  11.453 -0.1452 -0.0294 -0.0717
11587TIP3    H156252   6.620   4.627  11.383  0.3243 -0.7685  0.4873
11587TIP3    H256253   6.701   4.651  11.509 -1.1782  0.1054  1.3268
11588TIP3   OH256254   6.092   4.045  15.846 -0.1832 -0.8021 -0.3100
11588TIP3    H156255   6.154   4.046  15.772 -0.9661 -1.6870 -1.0080
11588TIP3    H256256   6.113   3.964  15.893 -0.8694 -1.1740 -0.6252
11589TIP3   OH256257   1.372   3.214  12.206  0.2725  0.7524 -0.3659
11589TIP3    H156258   1.437   3.264  12.255  0.3747  2.7484 -2.3265
11589TIP3    H256259   1.301   3.199  12.268  0.9855  1.9073  0.7849
11590TIP3   OH256260   5.184   5.538  11.512 -0.4712 -0.0041  0.3059
11590TIP3    H156261   5.154   5.544  11.421 -2.1462  0.3161  0.8397
11590TIP3    H256262   5.218   5.449  11.520 -1.2974 -0.3932 -0.3569
11591TIP3   OH256263   2.818   6.369  15.782  0.2380 -0.5806  0.2974
11591TIP3    H156264   2.808   6.371  15.877 -1.7121  0.7036  0.1341
11591TIP3    H256265   2.857   6.454  15.760  0.5935 -0.8338 -0.0696
11592TIP3   OH256266   2.089   6.481  11.540 -0.5086 -0.3638 -0.0596
11592TIP3    H156267   2.034   6.406  11.564  0.4762 -0.1262  3.6748
11592TIP3    H256268   2.051   6.554  11.588  1.8284  0.2002  1.1176
11593TIP3   OH256269   2.909   6.588   2.509  0.3534  0.5240  0.0202
11593TIP3    H156270   2.997   6.552   2.504  1.6697  3.5304 -0.4185
11593TIP3    H256271   2.880   6.569   2.599  0.5463 -2.2199 -0.4064
11594TIP3   OH256272   5.349   4.184   0.647 -0.5402  0.3189 -0.0084
11594TIP3    H156273   5.342   4.143   0.561  0.4666 -0.4604  0.2650
11594TIP3    H256274   5.369   4.276   0.629 -1.7825  0.4908 -0.6167
11595TIP3   OH256275   1.325   5.841   2.328 -0.3014  0.0782 -0.0632
11595TIP3    H156276   1.333   5.897   2.251 -2.1537  2.5748  1.3843
11595TIP3    H256277   1.236   5.806   2.322  0.2778 -1.4451 -0.0947
11596TIP3   OH256278   3.713   5.938   1.006  0.0938 -0.0739  0.1828
11596TIP3    H156279   3.663   6.000   0.953 -0.3662 -0.3825  0.2496
11596TIP3    H256280   3.779   5.992   1.049 -0.4780  0.4224  0.4603
11597TIP3   OH256281   1.017   1.457   0.521 -0.0948  0.7025  0.1409
11597TIP3    H156282   0.999   1.427   0.610 -2.7632 -4.3237 -1.7165
11597TIP3    H256283   0.931   1.474   0.484  0.8526  1.2076 -1.9399
11598TIP3   OH256284   3.300   4.709   3.079 -0.1159  0.3291 -0.1769
11598TIP3    H156285   3.244   4.777   3.042 -0.7551  0.1916  0.5089
11598TIP3    H256286   3.389   4.739   3.062 -0.3867  1.3753  0.1770
11599TIP3   OH256287   6.727   0.436  14.822 -0.5575  0.1613  0.2104
11599TIP3    H156288   6.651   0.406  14.872 -0.1765 -3.1262 -0.9740
11599TIP3    H256289   6.694   0.444  14.732  0.6533 -2.5165 -0.5625
11600TIP3   OH256290   3.166   6.486  11.120 -0.6259  0.2056 -0.1555
11600TIP3    H156291   3.192   6.468  11.030  4.9144  1.4898  0.7973
11600TIP3    H256292   3.149   6.399  11.158 -2.9546 -0.3546 -2.2061
11601TIP3   OH256293   3.609   1.372  16.309  0.3679  0.6111  0.3221
11601TIP3    H156294   3.702   1.370  16.330  0.2235  0.3598  0.9544
11601TIP3    H256295   3.566   1.341  16.389 -0.1827 -0.4739 -0.3769
11602TIP3   OH256296   2.125   3.367  17.106 -0.2576  0.3755 -0.0623
11602TIP3    H156297   2.201   3.344  17.161  0.3225  1.5286 -0.3477
11602TIP3    H256298   2.066   3.414  17.164 -0.6797 -0.3664  0.1152
11603TIP3   OH256299   4.900   0.196   5.918  0.3488 -0.2740 -0.1445
11603TIP3    H156300   4.863   0.128   5.975 -0.8807 -0.6118 -1.2812
11603TIP3    H256301   4.994   0.179   5.919  0.5158  0.3397  2.5141
11604TIP3   OH256302   3.704   5.872  14.376  0.5776 -0.0068 -0.3428
11604TIP3    H156303   3.688   5.855  14.283  1.6140 -1.1379 -0.3436
11604TIP3    H256304   3.798   5.857  14.387  1.6407  5.0331 -0.1055
11605TIP3   OH256305   2.304   1.038  11.244 -0.1233 -0.2627 -0.8178
11605TIP3    H156306   2.395   1.038  11.274  0.0285  0.6564 -1.2362
11605TIP3    H256307   2.311   1.037  11.148 -0.5273  0.6797 -0.8668
11606TIP3   OH256308   3.602   0.005  13.604  0.4646  0.3912  0.8358
11606TIP3    H156309   3.538   0.009  13.532  0.4495  1.0469  0.8750
11606TIP3    H256310   3.554   0.033  13.681  1.0634  2.0312  0.6574
11607TIP3   OH256311   4.506   1.971   2.082 -0.1268  0.1468 -0.2431
11607TIP3    H156312   4.559   2.008   2.153 -1.1990 -0.8733  1.1465
11607TIP3    H256313   4.420   1.957   2.121 -0.2151 -2.2899 -1.1332
11608TIP3   OH256314   5.891   1.519  17.198  0.1478  0.8051 -0.2054
11608TIP3    H156315   5.880   1.514  17.293 -0.3384 -1.8157 -0.3235
11608TIP3    H256316   5.806   1.492  17.162 -0.3450  3.7059 -1.4701
11609TIP3   OH256317   2.572   3.319  11.835 -0.4291 -0.0648  0.3095
11609TIP3    H156318   2.558   3.381  11.764  0.1170  0.8395  0.9689
11609TIP3    H256319   2.628   3.250  11.797  0.6681  0.9044  0.1152
11610TIP3   OH256320   5.052   6.087  16.805 -0.2678 -0.3084 -0.0571
11610TIP3    H156321   4.995   6.078  16.882 -0.6223  1.5562 -0.0559
11610TIP3    H256322   4.994   6.074  16.730 -0.4527  0.3676 -0.0363
11611TIP3   OH256323   2.138   5.634   5.275 -0.0637 -0.5199 -0.1759
11611TIP3    H156324   2.164   5.725   5.265 -0.6576 -0.4006 -0.6907
11611TIP3    H256325   2.053   5.638   5.318 -0.0320 -0.8337 -0.0828
11612TIP3   OH256326   5.590   3.571  11.649 -0.3324  0.9496  0.6271
11612TIP3    H156327   5.654   3.540  11.584 -1.0147  0.5962  0.1056
11612TIP3    H256328   5.637   3.636  11.701  0.6812  0.1255  0.7615
11613TIP3   OH256329   1.179   0.357   1.654 -0.1804  0.2815  0.1068
11613TIP3    H156330   1.097   0.389   1.692 -1.0968 -1.7015 -0.1112
11613TIP3    H256331   1.243   0.369   1.723 -1.0400  0.1866  0.9406
11614TIP3   OH256332   0.802   4.888   4.549 -0.2265  0.1785  0.9519
11614TIP3    H156333   0.753   4.809   4.572 -4.2499  1.2138 -2.7348
11614TIP3    H256334   0.839   4.869   4.462 -2.6066  2.6481 -0.7508
11615TIP3   OH256335   4.777   4.165  12.110 -1.0492 -0.7200 -0.0439
11615TIP3    H156336   4.713   4.147  12.042 -0.4890 -0.0982 -0.7593
11615TIP3    H256337   4.854   4.197  12.063 -0.8513  0.2882  0.9161
11616TIP3   OH256338   2.326   5.755  13.476  0.0838  0.2167 -0.2107
11616TIP3    H156339   2.406   5.737  13.526  0.2776  1.7808  0.0758
11616TIP3    H256340   2.297   5.841  13.506 -0.5770  0.5716 -1.7653
11617TIP3   OH256341   3.122   3.562  16.274 -0.2766 -0.1800 -0.5188
11617TIP3    H156342   3.088   3.496  16.214 -0.1433 -0.3191 -0.4441
11617TIP3    H256343   3.103   3.527  16.361  1.0889 -0.8157 -0.4573
11618TIP3   OH256344   0.295   0.007  13.318  0.1832  0.3832 -0.5987
11618TIP3    H156345   0.352  -0.069  13.308 -0.1648 -0.1252  1.0242
11618TIP3    H256346   0.236   0.004  13.242 -0.6119 -1.6743  0.0525
11619TIP3   OH256347   1.780   2.327  13.519 -0.7356 -0.3873 -0.0201
11619TIP3    H156348   1.713   2.272  13.478 -2.9256  2.8964 -1.2238
11619TIP3    H256349   1.764   2.415  13.485  3.0057  0.9669  1.2141
11620TIP3   OH256350   5.299   5.965  15.752 -0.2145  0.4867 -0.0486
11620TIP3    H156351   5.256   6.050  15.759  1.0022  1.4698 -2.9045
11620TIP3    H256352   5.380   5.976  15.802 -0.7699  0.4366  0.8909
11621TIP3   OH256353   6.015   0.160  12.898 -0.2909  0.4631  0.1579
11621TIP3    H156354   6.077   0.215  12.851 -0.7036  1.0350  0.2760
11621TIP3    H256355   6.013   0.195  12.987  1.6052 -1.5145  1.0768
11622TIP3   OH256356   2.758   1.705  15.452  0.0664  0.1143 -0.1979
11622TIP3    H156357   2.780   1.612  15.455  0.0405  0.1072 -0.2442
11622TIP3    H256358   2.677   1.710  15.402 -1.0174 -0.0480  1.4690
11623TIP3   OH256359   4.367   0.369  12.618 -0.2585  0.3850  0.4161
11623TIP3    H156360   4.409   0.403  12.696  0.8538  0.9040 -0.3874
11623TIP3    H256361   4.407   0.283  12.605 -1.7491 -0.5008  1.4115
11624TIP3   OH256362   5.659   2.171   0.391 -0.1139  0.5633 -0.2775
11624TIP3    H156363   5.627   2.261   0.404 -3.5113 -0.1420 -2.5489
11624TIP3    H256364   5.627   2.124   0.468  1.9932  1.2446  1.1102
11625TIP3   OH256365   3.098   6.461  14.668  0.0572  0.6443  0.3809
11625TIP3    H156366   3.152   6.419  14.602 -1.4893  0.3177 -0.7383
11625TIP3    H256367   3.126   6.553  14.667  1.6218  0.2120  0.9544
11626TIP3   OH256368   6.705   3.271   3.169 -0.1226 -0.2307 -0.3338
11626TIP3    H156369   6.795   3.297   3.191  0.1050 -0.2690 -1.2059
11626TIP3    H256370   6.682   3.325   3.094 -0.7188 -0.4583 -0.3207
11627TIP3   OH256371   0.190   4.843  14.677 -0.0634  0.1759 -0.1060
11627TIP3    H156372   0.286   4.836  14.671  0.0695  1.0401  0.8039
11627TIP3    H256373   0.162   4.851  14.586  0.7923  0.5457 -0.3575
11628TIP3   OH256374   4.261   1.510   4.265 -0.2985  0.2471 -0.3021
11628TIP3    H156375   4.305   1.427   4.285  1.1963  0.9716 -0.4051
11628TIP3    H256376   4.225   1.497   4.177 -0.3874 -0.4144 -0.1733
11629TIP3   OH256377   3.978   0.988  14.545  0.1464  0.3325  0.0117
11629TIP3    H156378   3.906   0.949  14.594 -0.3913  0.1946 -0.8550
11629TIP3    H256379   4.047   1.003  14.609  0.2940 -1.8485  0.4163
11630TIP3   OH256380   0.445   1.991  16.970  0.3096  0.4241  0.1881
11630TIP3    H156381   0.463   1.960  16.881  0.1570  1.1195 -0.0983
11630TIP3    H256382   0.433   1.912  17.022  3.8621 -0.1553  0.3731
11631TIP3   OH256383   6.395   3.745  11.599 -0.2127 -0.5892 -0.2482
11631TIP3    H156384   6.448   3.665  11.594 -0.2926 -0.6706  0.2016
11631TIP3    H256385   6.423   3.796  11.523  1.2336 -0.1919  0.5099
11632TIP3   OH256386   5.119   6.318  16.250  0.1919 -0.5160  0.2649
11632TIP3    H156387   5.084   6.289  16.335 -0.2605 -0.9413 -0.0636
11632TIP3    H256388   5.131   6.237  16.200  0.0885 -0.2374 -0.2170
11633TIP3   OH256389   6.701   6.301   5.147 -0.0857  0.6993 -0.1609
11633TIP3    H156390   6.707   6.297   5.052  0.1126  1.4548 -0.1918
11633TIP3    H256391   6.728   6.391   5.169 -0.2040  0.5602  0.5976
11634TIP3   OH256392   4.720   1.322   3.209  0.6659 -0.6262 -0.4445
11634TIP3    H156393   4.741   1.402   3.257  2.0487 -1.4573  0.4056
11634TIP3    H256394   4.657   1.276   3.264 -0.4896  0.0639 -1.1537
11635TIP3   OH256395   2.166   1.623   5.267 -0.3252 -0.2704 -0.1214
11635TIP3    H156396   2.245   1.672   5.244 -0.7731 -0.0183 -1.1270
11635TIP3    H256397   2.123   1.677   5.334  0.0080 -0.0782 -0.0607
11636TIP3   OH256398   5.238   6.814  15.177  0.8008  0.7030  0.2355
11636TIP3    H156399   5.203   6.762  15.105 -0.6150  0.0703  1.3497
11636TIP3    H256400   5.223   6.905  15.150  0.0102  0.4670 -0.1444
11637TIP3   OH256401   5.821   1.643   6.139 -0.5527  0.4753 -0.1963
11637TIP3    H156402   5.850   1.573   6.197  1.4773  1.3011 -0.1340
11637TIP3    H256403   5.725   1.639   6.143 -0.4962 -1.6695  0.5127
11638TIP3   OH256404   0.233   4.299   0.111  0.1160  0.6106  0.5572
11638TIP3    H156405   0.295   4.260   0.049 -2.3029 -0.4084 -1.3411
11638TIP3    H256406   0.250   4.393   0.106  0.9406  0.4196 -0.5571
11639TIP3   OH256407   3.280   4.929   3.938  0.3348  0.1428 -0.3690
11639TIP3    H156408   3.239   4.843   3.946  0.8541  0.0835  2.7579
11639TIP3    H256409   3.324   4.943   4.022  1.8728  2.6633 -1.4809
11640TIP3   OH256410   2.015   4.372   5.013 -0.0179 -0.5382 -0.2457
11640TIP3    H156411   1.934   4.410   4.979  0.0822 -2.3118 -2.7436
11640TIP3    H256412   1.989   4.284   5.042  0.7999 -0.7244 -0.0515
11641TIP3   OH256413   2.889   1.290   1.563  0.0950 -0.2524 -0.3366
11641TIP3    H156414   2.965   1.338   1.597 -0.5937  0.6529 -0.0321
11641TIP3    H256415   2.881   1.320   1.472 -0.4504  0.3826 -0.0900
11642TIP3   OH256416   6.314   5.193  12.536 -0.2890 -0.1657 -0.3594
11642TIP3    H156417   6.399   5.225  12.505 -0.5110  0.9537  0.1437
11642TIP3    H256418   6.274   5.152  12.459  1.2778 -1.9674 -0.2677
11643TIP3   OH256419   4.371   0.312   2.859  1.0220  0.0886 -0.1968
11643TIP3    H156420   4.375   0.313   2.955  0.0429 -1.8394 -0.0910
11643TIP3    H256421   4.356   0.220   2.836 -0.4450  0.7274 -2.1078
11644TIP3   OH256422   3.825   3.424   2.419 -0.1278 -0.4510  0.3889
11644TIP3    H156423   3.838   3.505   2.370  1.3759 -0.4900  0.6732
11644TIP3    H256424   3.799   3.453   2.507  0.2807 -0.2855  0.4536
11645TIP3   OH256425   0.622   6.387  15.694 -0.3595  0.3377 -0.5145
11645TIP3    H156426   0.711   6.394  15.728 -0.5123 -1.7285  0.4711
11645TIP3    H256427   0.566   6.413  15.768 -0.6019  0.0222 -0.5861
11646TIP3   OH256428   0.739   2.864  13.059 -0.0475 -0.2663  0.4618
11646TIP3    H156429   0.684   2.941  13.073 -1.1642 -0.6437 -1.4981
11646TIP3    H256430   0.678   2.790  13.067  0.3172 -0.7399 -0.8534
11647TIP3   OH256431   6.262   6.618   1.856 -0.1610 -0.0899 -0.0353
11647TIP3    H156432   6.180   6.635   1.901 -0.0136 -0.5639  0.4204
11647TIP3    H256433   6.239   6.555   1.787 -0.3542  0.5068 -0.5201
11648TIP3   OH256434   1.558   6.114  14.846 -0.6337  0.4348  0.0935
11648TIP3    H156435   1.572   6.117  14.941  1.8850 -0.6177 -0.1791
11648TIP3    H256436   1.477   6.163  14.833 -1.4010  0.0897  2.8379
11649TIP3   OH256437   1.204   2.991  14.318 -0.0729 -0.1896  0.7611
11649TIP3    H156438   1.196   3.082  14.289  1.0533 -0.8023 -1.7148
11649TIP3    H256439   1.282   2.991  14.375  1.4116  0.0266 -1.1827
11650TIP3   OH256440   0.412   4.447  13.435 -0.2045  0.3981 -0.2985
11650TIP3    H156441   0.376   4.363  13.461  1.0936 -0.1728 -0.2846
11650TIP3    H256442   0.440   4.488  13.516  0.6673  0.1123 -0.4396
11651TIP3   OH256443   6.221   5.915  12.005 -0.3076  0.5013 -0.1764
11651TIP3    H156444   6.227   5.820  11.990 -0.1040  0.4137  0.4123
11651TIP3    H256445   6.302   5.936  12.053 -0.3627  0.9688 -0.2917
11652TIP3   OH256446   0.561   4.859   1.467  0.4398 -0.1289  0.2891
11652TIP3    H156447   0.474   4.850   1.506  0.3223  0.2150  0.1180
11652TIP3    H256448   0.615   4.796   1.513  0.1586 -0.1601  0.5815
11653TIP3   OH256449   1.240   5.408  11.750  0.0624 -0.3570 -0.6437
11653TIP3    H156450   1.164   5.387  11.697 -0.0164 -0.8615 -0.3364
11653TIP3    H256451   1.288   5.473  11.699  0.6192 -1.6997 -1.9000
11654TIP3   OH256452   5.835   5.315   5.373 -0.5817 -0.0725 -0.3534
11654TIP3    H156453   5.897   5.248   5.401 -0.5537  0.5939  1.2688
11654TIP3    H256454   5.761   5.267   5.337 -0.9044 -1.0378  1.4834
11655TIP3   OH256455   3.555   6.794   3.734 -0.6312  0.1040 -0.2386
11655TIP3    H156456   3.498   6.868   3.719  2.2014  2.7144  0.8312
11655TIP3    H256457   3.509   6.740   3.798 -2.1709  1.6859  0.0395
11656TIP3   OH256458   3.311   2.999  15.305 -0.3881 -0.8655  0.3125
11656TIP3    H156459   3.304   3.062  15.377 -0.3372 -0.1882 -0.2732
11656TIP3    H256460   3.245   3.027  15.242  0.7567 -0.3862 -0.7177
11657TIP3   OH256461   0.046   3.056   4.832  0.2626  0.1174  1.0707
11657TIP3    H156462   0.094   2.979   4.863  1.1755  0.7781  1.3412
11657TIP3    H256463  -0.042   3.023   4.814  0.1552 -0.6597  2.7901
11658TIP3   OH256464   6.028   5.196   5.882  0.2414 -0.1490 -0.1224
11658TIP3    H156465   5.937   5.191   5.853  0.7502 -0.4703 -1.8116
11658TIP3    H256466   6.023   5.211   5.976 -1.5508 -0.5523 -0.1194
11659TIP3   OH256467   3.704   0.064   5.689  0.4786 -0.4500 -0.0357
11659TIP3    H156468   3.698   0.023   5.603  0.1934 -1.4781  0.4617
11659TIP3    H256469   3.783   0.027   5.728  0.4628 -0.1894  0.2468
11660TIP3   OH256470   0.324   5.632  12.359  0.3205 -0.4551 -0.4285
11660TIP3    H156471   0.339   5.717  12.400 -0.5011 -1.3105  1.8085
11660TIP3    H256472   0.408   5.587  12.367  0.5245 -0.1638 -0.8764
11661TIP3   OH256473   4.502   1.425  12.971 -0.1932  0.0889 -0.8121
11661TIP3    H156474   4.459   1.503  13.007 -2.0876 -1.0291 -0.5171
11661TIP3    H256475   4.563   1.398  13.039 -0.1784  0.7932 -0.5326
11662TIP3   OH256476   5.301   2.484   2.735  0.5094  0.0401 -0.1913
11662TIP3    H156477   5.393   2.460   2.744  0.4871  0.6485  3.1338
11662TIP3    H256478   5.301   2.580   2.735 -0.1295  0.0586  0.7746
11663TIP3   OH256479   5.565   0.844   3.445 -0.5059  0.4245 -0.2347
11663TIP3    H156480   5.563   0.801   3.359 -2.8051 -2.1606  0.9762
11663TIP3    H256481   5.499   0.913   3.438 -0.3899  0.5015 -0.6484
11664TIP3   OH256482   4.600   6.631   4.509 -0.2917  0.0651  0.1119
11664TIP3    H156483   4.524   6.604   4.458  0.5620  0.2380 -1.3039
11664TIP3    H256484   4.609   6.725   4.491 -1.3452  0.7127  2.4786
11665TIP3   OH256485   4.596   3.142   3.360  0.2588 -0.3783 -0.2375
11665TIP3    H156486   4.658   3.183   3.301 -0.3036  1.3496  0.3029
11665TIP3    H256487   4.526   3.110   3.304  0.4268 -0.0477 -0.6371
11666TIP3   OH256488   4.712   1.887   5.455  0.2533  0.1192 -0.6792
11666TIP3    H156489   4.712   1.923   5.367 -0.6725 -1.0292 -1.1706
11666TIP3    H256490   4.798   1.845   5.465  0.7720  1.1622 -0.6267
11667TIP3   OH256491   1.998   4.224   2.046  0.3182  0.0710  0.2185
11667TIP3    H156492   2.071   4.177   2.086  1.3825  1.6886  0.2932
11667TIP3    H256493   1.951   4.262   2.120 -0.2586 -0.4682  0.1363
11668TIP3   OH256494   6.478   6.500   0.273 -0.0951 -0.0539 -0.2096
11668TIP3    H156495   6.532   6.489   0.194 -0.7832 -0.8828 -0.5809
11668TIP3    H256496   6.542   6.508   0.344  0.5396  0.8817 -0.8598
11669TIP3   OH256497   1.167   4.082  14.247 -0.0448  0.4742  0.5193
11669TIP3    H156498   1.171   4.039  14.162 -1.2934  2.0573 -0.4036
11669TIP3    H256499   1.257   4.108  14.265  0.4714 -1.1312  0.3945
11670TIP3   OH256500   1.610   5.009   1.332 -0.0378  0.5518  0.0796
11670TIP3    H156501   1.615   5.097   1.294  1.5744  0.5369  0.2151
11670TIP3    H256502   1.532   4.971   1.292 -0.8692  2.0952  0.1553
11671TIP3   OH256503   1.681   0.830   3.988  0.1200 -0.4760  0.0321
11671TIP3    H156504   1.672   0.898   4.055 -3.8228 -0.8365  0.0959
11671TIP3    H256505   1.656   0.749   4.032  1.0531 -1.3737 -1.0131
11672TIP3   OH256506   0.765   4.525  13.051 -0.2265  0.0829  0.2050
11672TIP3    H156507   0.774   4.620  13.047  1.2627 -0.0286  0.2289
11672TIP3    H256508   0.822   4.498  13.123  0.0233 -0.8859 -0.3250
11673TIP3   OH256509   4.457   1.431  16.998 -0.6088  0.0769 -0.3704
11673TIP3    H156510   4.497   1.346  17.019 -2.8635 -0.9043  0.3096
11673TIP3    H256511   4.421   1.419  16.910 -0.8403  0.3791 -0.3153
11674TIP3   OH256512   2.462   1.783   0.827  0.5395 -0.5061 -0.3125
11674TIP3    H156513   2.370   1.780   0.800  0.4027 -0.6823  0.1587
11674TIP3    H256514   2.478   1.698   0.868  0.1331  0.4737  2.0652
11675TIP3   OH256515   6.666   5.181   0.460  0.3537  0.4599  0.2954
11675TIP3    H156516   6.657   5.188   0.365  1.8366 -1.8444 -0.0833
11675TIP3    H256517   6.608   5.249   0.494  1.5832  3.0296 -2.2721
11676TIP3   OH256518   3.713   4.844  11.627 -0.3150 -0.2072  0.2124
11676TIP3    H156519   3.782   4.827  11.563 -0.4461 -0.3032  0.0971
11676TIP3    H256520   3.631   4.825  11.581 -0.3912 -0.7289  0.5497
11677TIP3   OH256521   0.810   3.178   3.422  0.3599  0.4646 -0.1083
11677TIP3    H156522   0.833   3.088   3.446  1.1353  0.9036  0.8553
11677TIP3    H256523   0.872   3.201   3.352 -0.4589 -0.0547 -1.0354
11678TIP3   OH256524   3.879   2.725   5.100 -0.3037  0.8820 -0.6750
11678TIP3    H156525   3.847   2.667   5.031 -0.1782  1.3897 -1.1609
11678TIP3    H256526   3.947   2.674   5.144 -2.7751 -0.8862  1.4282
11679TIP3   OH256527   4.296   5.263  15.475 -0.4338 -0.0829 -0.2888
11679TIP3    H156528   4.363   5.211  15.520 -0.0286  2.4625  2.3555
11679TIP3    H256529   4.232   5.283  15.543 -2.1171  0.4422 -1.9447
11680TIP3   OH256530   5.307   5.619  15.824  0.0908 -0.0513 -0.4494
11680TIP3    H156531   5.365   5.543  15.824  0.0570 -0.0764 -0.2497
11680TIP3    H256532   5.305   5.647  15.733 -0.1983 -0.5234 -0.5949
11681TIP3   OH256533   3.301   4.552   2.818  0.2706 -0.1092  0.0763
11681TIP3    H156534   3.331   4.474   2.865  0.3506 -0.6683 -0.8651
11681TIP3    H256535   3.319   4.624   2.877  3.8327 -0.3368 -0.4879
11682TIP3   OH256536   4.230   1.013   3.655  0.4205 -0.0265 -0.4884
11682TIP3    H156537   4.236   0.948   3.584  0.8754  1.0392 -1.4551
11682TIP3    H256538   4.276   0.972   3.728 -1.8896 -2.0718 -0.0362
11683TIP3   OH256539   4.365   5.527  15.270 -0.4567  0.2265 -0.4477
11683TIP3    H156540   4.371   5.446  15.322  1.5589 -0.0034 -0.9706
11683TIP3    H256541   4.393   5.596  15.330 -1.0020  0.3862 -0.3692
11684TIP3   OH256542   3.609   4.549   3.825  0.0503 -0.2463  0.5610
11684TIP3    H156543   3.642   4.623   3.877 -0.6410 -1.0094  2.1324
11684TIP3    H256544   3.567   4.590   3.749  2.6694  0.8378 -0.4362
11685TIP3   OH256545   5.525   3.367   0.947  0.1151 -0.3740 -0.0029
11685TIP3    H156546   5.481   3.348   0.864 -1.0311  0.0685  0.4826
11685TIP3    H256547   5.466   3.334   1.014  0.3963  0.4764  0.6832
11686TIP3   OH256548   4.142   3.672   0.765 -0.3015 -0.1388 -0.2683
11686TIP3    H156549   4.069   3.718   0.724 -0.2423 -0.9084 -1.2816
11686TIP3    H256550   4.175   3.614   0.697 -0.6001 -1.9559  1.0516
11687TIP3   OH256551   6.060   5.421   2.456 -0.2208 -1.1042 -0.1299
11687TIP3    H156552   6.130   5.471   2.414  0.7810 -1.3007  1.2376
11687TIP3    H256553   6.099   5.388   2.537 -2.7031  1.1530  2.1964
11688TIP3   OH256554   5.745   6.587   4.811 -0.1542  0.4947  0.0246
11688TIP3    H156555   5.665   6.598   4.862  1.0907  0.8910  1.9876
11688TIP3    H256556   5.815   6.619   4.868  1.5205 -0.6124 -1.2947
11689TIP3   OH256557   3.217   1.425   3.131 -0.1137  0.1203 -0.4748
11689TIP3    H156558   3.298   1.399   3.176 -0.6946 -1.0938 -0.0645
11689TIP3    H256559   3.218   1.374   3.050  0.2159  1.2045 -1.1760
11690TIP3   OH256560   1.512   6.375  16.259  0.0227 -0.0607 -0.0116
11690TIP3    H156561   1.479   6.381  16.169 -1.3476 -2.0098  0.2986
11690TIP3    H256562   1.493   6.461  16.297 -0.5480  0.3683 -1.2016
11691TIP3   OH256563   1.971   1.554  16.429  0.5255 -0.0946 -0.2183
11691TIP3    H156564   2.052   1.506  16.412  0.2327 -0.5109 -0.4299
11691TIP3    H256565   1.985   1.595  16.515  0.3548 -1.4309  0.4702
11692TIP3   OH256566   5.469   4.368   3.882  0.0345  0.0811 -0.0168
11692TIP3    H156567   5.517   4.444   3.850  0.4670  0.5635  1.6796
11692TIP3    H256568   5.533   4.297   3.881  0.6109  0.5266  1.4286
11693TIP3   OH256569   5.816   3.188   0.317  0.2877 -0.1216 -0.3320
11693TIP3    H156570   5.901   3.149   0.338  0.3222 -0.4526 -1.0273
11693TIP3    H256571   5.837   3.273   0.278  0.2814 -0.0115 -0.0919
11694TIP3   OH256572   2.550   0.988  10.876 -0.0035 -0.1172 -0.3212
11694TIP3    H156573   2.489   0.934  10.927 -1.2507  0.9133 -0.6553
11694TIP3    H256574   2.508   1.074  10.873  1.3590  0.5572 -0.8108
11695TIP3   OH256575   2.142   5.914   4.630 -0.2093 -0.3438 -0.5250
11695TIP3    H156576   2.164   5.821   4.635  1.0871 -0.2435 -3.0778
11695TIP3    H256577   2.102   5.925   4.544  0.0007  1.5436 -0.4169
11696TIP3   OH256578   5.527   3.932  13.449  0.7486  0.1502 -0.6273
11696TIP3    H156579   5.494   3.875  13.519  0.6413  1.5430  0.5082
11696TIP3    H256580   5.486   4.017  13.465  0.6599  0.4955 -2.4590
11697TIP3   OH256581   0.526   4.659   0.444  0.3439  0.6665 -0.4761
11697TIP3    H156582   0.603   4.636   0.497  1.1027  2.3728 -0.7994
11697TIP3    H256583   0.551   4.638   0.354  0.1530  0.5616 -0.5060
11698TIP3   OH256584   4.922   4.924  14.476 -0.1550  0.1218  0.2032
11698TIP3    H156585   5.017   4.919  14.468 -0.3647 -1.5236 -2.2546
11698TIP3    H256586   4.901   5.017  14.465  1.1067  0.4345  0.3070
11699TIP3   OH256587   1.531   1.694  15.990 -0.4248  1.2178 -0.2820
11699TIP3    H156588   1.454   1.706  16.046  0.8321  1.2331  1.5028
11699TIP3    H256589   1.569   1.782  15.982 -0.5039  1.1921 -1.0741
11700TIP3   OH256590   4.947   0.081  12.643 -0.2262  0.1757 -0.1745
11700TIP3    H156591   4.985   0.147  12.585  0.3071  1.1312  1.2148
11700TIP3    H256592   4.972  -0.003  12.603  0.0878  0.7987 -1.3331
11701TIP3   OH256593   0.655   1.825  12.303  0.2887 -0.1528 -0.0742
11701TIP3    H156594   0.575   1.782  12.334  1.6725 -2.6151  0.2917
11701TIP3    H256595   0.631   1.863  12.219 -1.6782  0.6387  0.7791
11702TIP3   OH256596   3.817   4.893  15.544  0.2901  0.0733  0.0012
11702TIP3    H156597   3.838   4.985  15.529  0.7286 -0.0496 -0.1548
11702TIP3    H256598   3.721   4.889  15.540  0.2801  0.4807 -0.2247
11703TIP3   OH256599   1.299   0.080   3.201 -0.0216 -0.3856 -0.6722
11703TIP3    H156600   1.377   0.060   3.253 -0.0719  0.1072 -0.4083
11703TIP3    H256601   1.269  -0.006   3.172 -0.2599 -0.7248  0.4959
11704TIP3   OH256602   5.260   1.099   5.892  0.2821  0.2439  0.0055
11704TIP3    H156603   5.295   1.136   5.811 -1.1572  1.9537  0.1082
11704TIP3    H256604   5.255   1.173   5.952 -0.0801 -0.7007  1.1655
11705TIP3   OH256605   5.235   1.010   3.759  0.3060  0.2462 -0.8573
11705TIP3    H156606   5.248   0.995   3.853 -0.5291 -0.6620 -0.8728
11705TIP3    H256607   5.295   1.082   3.738  0.4655  0.5021  0.3783
11706TIP3   OH256608   6.166   5.295  14.214 -0.3569 -0.1955  0.4310
11706TIP3    H156609   6.129   5.234  14.150 -0.7248 -0.7533  1.1523
11706TIP3    H256610   6.215   5.239  14.274  1.1181  0.4686 -0.1255
11707TIP3   OH256611   3.956   2.468  16.988 -0.0105  0.1595 -0.1795
11707TIP3    H156612   3.973   2.376  16.965  0.1962  0.2459 -0.3856
11707TIP3    H256613   3.942   2.511  16.903  1.5954  0.6508 -0.2378
11708TIP3   OH256614   5.701   4.056  15.509  0.8829  0.1578  0.2793
11708TIP3    H156615   5.712   4.003  15.430 -0.1752 -0.0712  0.2770
11708TIP3    H256616   5.696   4.146  15.477  1.4760  0.1642  0.1846
11709TIP3   OH256617   3.046   1.229  12.015  0.1295  0.5553  0.0048
11709TIP3    H156618   3.140   1.225  11.998  0.2791  0.6197  0.7490
11709TIP3    H256619   3.039   1.278  12.097 -0.5245  0.1536  0.1998
11710TIP3   OH256620   1.841   0.154  12.753 -0.2328 -0.1872  0.3159
11710TIP3    H156621   1.769   0.118  12.701  0.5809  0.4893 -1.3501
11710TIP3    H256622   1.811   0.147  12.844 -2.4754  0.2649 -0.3305
11711TIP3   OH256623   4.541   2.297  15.823  0.3774 -0.1879 -0.0734
11711TIP3    H156624   4.475   2.337  15.880 -1.9070  0.1476 -2.6780
11711TIP3    H256625   4.492   2.232  15.772  2.7275 -1.9660 -0.2023
11712TIP3   OH256626   3.999   1.463  15.502 -0.8624  0.6162  0.6127
11712TIP3    H156627   3.938   1.499  15.566 -0.5892 -0.4538  1.5125
11712TIP3    H256628   4.086   1.487  15.536 -0.7395  1.6073 -0.3381
11713TIP3   OH256629   0.935   5.235   6.139  0.3795  0.8780 -0.5673
11713TIP3    H156630   0.960   5.321   6.103 -1.7055  1.4645 -0.7378
11713TIP3    H256631   0.855   5.212   6.092 -0.4813  0.0103  1.2415
11714TIP3   OH256632   5.531   5.770   0.888  0.6544 -0.5102  0.1683
11714TIP3    H156633   5.474   5.796   0.961 -0.2151 -2.0408  0.0832
11714TIP3    H256634   5.620   5.783   0.921  0.3087 -2.3331  2.0094
11715TIP3   OH256635   3.395   6.806  11.641  0.2905 -0.0695  0.0374
11715TIP3    H156636   3.484   6.818  11.673  0.8927 -0.5203 -1.4151
11715TIP3    H256637   3.394   6.847  11.554 -1.3268  1.2288  0.6018
11716TIP3   OH256638   4.063   2.647  16.729 -0.4201 -0.7589 -0.0932
11716TIP3    H156639   4.106   2.669  16.646 -1.0361 -2.4634 -0.9127
11716TIP3    H256640   4.109   2.568  16.759 -0.3440 -0.2804  1.1047
11717TIP3   OH256641   2.976   3.961   5.145  0.0488 -0.4529  0.0642
11717TIP3    H156642   3.062   3.926   5.168 -1.0055 -1.7110  2.4635
11717TIP3    H256643   2.921   3.884   5.131 -0.7582  0.3286 -1.2907
11718TIP3   OH256644   4.987   0.452  11.794  0.2059 -0.2524 -0.1278
11718TIP3    H156645   5.065   0.450  11.738  0.8129 -1.2352  0.7120
11718TIP3    H256646   5.017   0.497  11.874 -0.1613 -0.4037  0.0949
11719TIP3   OH256647   0.013   3.914   1.903  0.3602 -0.2294  0.5349
11719TIP3    H156648   0.004   3.874   1.817  0.8167 -1.3782  1.0000
11719TIP3    H256649  -0.023   3.850   1.964  1.3034 -0.0388  1.3218
11720TIP3   OH256650   2.907   3.458   3.273  0.7923 -0.3861  0.0453
11720TIP3    H156651   2.834   3.408   3.236  1.6536 -1.4588 -0.2880
11720TIP3    H256652   2.913   3.536   3.218  0.3458 -0.6431 -0.3762
11721TIP3   OH256653   2.889   6.268   2.170  0.1085  0.7640  0.2374
11721TIP3    H156654   2.865   6.285   2.261 -0.6996 -2.1971  0.7008
11721TIP3    H256655   2.852   6.341   2.120 -0.0727  2.0599  2.2018
11722TIP3   OH256656   4.666   5.532  15.418  0.0342  0.4770  0.1991
11722TIP3    H156657   4.714   5.512  15.338 -1.2717 -1.4568 -0.1709
11722TIP3    H256658   4.699   5.469  15.482 -0.3929  0.6588  0.6030
11723TIP3   OH256659   3.699   0.328   5.831  0.2842 -0.1724  0.0824
11723TIP3    H156660   3.721   0.263   5.764  1.0305 -0.5069  0.6345
11723TIP3    H256661   3.684   0.277   5.910 -0.1752  0.2501  0.2713
11724TIP3   OH256662   4.479   3.547   4.321  0.2088 -0.2149  0.3019
11724TIP3    H156663   4.534   3.474   4.292  1.1867  0.8794 -0.6841
11724TIP3    H256664   4.405   3.547   4.261 -0.8202 -1.5431  1.4861
11725TIP3   OH256665   1.883   1.105  12.976 -0.1240  0.1092  0.0616
11725TIP3    H156666   1.869   1.163  12.901 -1.6038 -2.3235 -1.7144
11725TIP3    H256667   1.813   1.125  13.037  0.6870  1.6391  0.5431
11726TIP3   OH256668   5.247   6.482  16.831 -0.2804 -0.2539 -0.5040
11726TIP3    H156669   5.260   6.483  16.925 -0.0561 -2.0537 -0.4795
11726TIP3    H256670   5.310   6.545  16.797 -1.7449  1.9623  0.6466
11727TIP3   OH256671   3.118   3.638  11.962 -0.1416 -0.4645  0.1713
11727TIP3    H156672   3.096   3.665  12.051  1.5709  0.2113  0.4355
11727TIP3    H256673   3.039   3.596  11.929 -1.3006  0.6164  1.4717
11728TIP3   OH256674   1.447   6.441  14.139  0.6235 -0.1349 -0.1885
11728TIP3    H156675   1.370   6.402  14.100 -0.6444  0.1375  1.8993
11728TIP3    H256676   1.479   6.503  14.073 -1.5575  0.4949 -0.7211
11729TIP3   OH256677   5.022   4.055   1.053  0.4496  0.1119 -0.7661
11729TIP3    H156678   5.111   4.048   1.088  0.9091  1.4332 -1.5950
11729TIP3    H256679   5.031   4.111   0.975 -1.2164  0.9597 -0.3991
11730TIP3   OH256680   0.864   3.530  16.127  0.4990 -0.1856  0.2592
11730TIP3    H156681   0.782   3.541  16.079 -0.5562 -0.4317  1.8898
11730TIP3    H256682   0.924   3.593  16.088  0.2789 -1.5060 -2.4459
11731TIP3   OH256683   5.392   2.199   6.072 -0.4655 -0.8121 -0.3384
11731TIP3    H156684   5.331   2.189   6.000  0.9616  1.7618 -2.0956
11731TIP3    H256685   5.475   2.165   6.038 -0.2091 -1.4686  0.8856
11732TIP3   OH256686   3.829   0.718   5.049  0.2161 -0.8155  0.2747
11732TIP3    H156687   3.738   0.689   5.060  0.8727 -2.9979  0.4515
11732TIP3    H256688   3.877   0.675   5.119  1.6393 -0.9774 -0.7494
11733TIP3   OH256689   2.851   2.049   5.102 -0.0544 -0.0489  0.4713
11733TIP3    H156690   2.880   2.021   5.015 -1.7237 -0.2952 -0.0417
11733TIP3    H256691   2.911   2.120   5.125  0.7023 -0.2821 -0.6748
11734TIP3   OH256692   1.880   5.403   3.742 -0.2525  0.4235 -0.3144
11734TIP3    H156693   1.947   5.420   3.676  1.2444  2.6426  1.6042
11734TIP3    H256694   1.883   5.309   3.756  2.1011  0.3784 -0.7344
11735TIP3   OH256695   4.292   6.775  15.714 -0.5403  0.6379  0.4898
11735TIP3    H156696   4.314   6.787  15.622  0.4253 -0.9512  0.4790
11735TIP3    H256697   4.306   6.861  15.753 -3.2372  1.9877 -1.2324
11736TIP3   OH256698   1.022   2.169   1.063  0.0169  0.2017 -0.1627
11736TIP3    H156699   1.117   2.169   1.063  0.0838  2.7460  0.8066
11736TIP3    H256700   0.998   2.080   1.035  2.6261 -0.3608 -0.8533
11737TIP3   OH256701   5.675   5.591   1.698  0.1951  0.3572  0.2285
11737TIP3    H156702   5.740   5.526   1.724  0.4845 -0.4920 -2.3060
11737TIP3    H256703   5.591   5.549   1.716  0.3004  0.8916  2.1921
11738TIP3   OH256704   0.475   0.678   1.792 -0.6862  0.1594  0.5695
11738TIP3    H156705   0.476   0.600   1.737 -0.4240 -0.2122  1.0836
11738TIP3    H256706   0.424   0.652   1.869 -1.5478  0.8507  0.2576
11739TIP3   OH256707   2.620   1.440   4.900  0.3498 -0.2664  0.1097
11739TIP3    H156708   2.634   1.488   4.982 -0.2769 -0.7203  0.4945
11739TIP3    H256709   2.601   1.351   4.928  0.3941 -0.4853 -0.5510
11740TIP3   OH256710   3.662   4.966  14.592 -0.1103  0.5624 -0.3387
11740TIP3    H156711   3.750   4.955  14.556 -0.5968 -0.5429 -1.2586
11740TIP3    H256712   3.647   4.887  14.644  0.1393  1.6203  1.4404
11741TIP3   OH256713   3.564   5.156   3.437 -0.2529  0.8841  0.3825
11741TIP3    H156714   3.540   5.067   3.413  1.1492 -0.2372  2.7482
11741TIP3    H256715   3.483   5.206   3.426 -1.1564 -0.7298 -0.7171
11742TIP3   OH256716   6.690   2.677  16.712 -0.3431  0.1456  0.1335
11742TIP3    H156717   6.769   2.673  16.659 -1.2445  0.0516 -1.2583
11742TIP3    H256718   6.698   2.760  16.760  0.5839  0.1419  0.0070
11743TIP3   OH256719   5.554   3.216  15.669  0.3519 -0.5148 -0.1859
11743TIP3    H156720   5.539   3.258  15.754 -0.5859 -1.3514  0.0823
11743TIP3    H256721   5.645   3.236  15.649  0.2567  0.7022  0.4452
11744TIP3   OH256722   1.225   4.089  13.729 -0.2509  0.2840  0.0112
11744TIP3    H156723   1.256   4.171  13.691 -0.5674  0.8096  0.8573
11744TIP3    H256724   1.277   4.022  13.685 -0.9914  0.8057 -1.7263
11745TIP3   OH256725   1.318   5.653  13.794 -0.0823  0.2672 -0.3249
11745TIP3    H156726   1.368   5.590  13.845 -2.3976 -0.7696  0.8116
11745TIP3    H256727   1.294   5.606  13.714 -0.9443  0.0353  0.0609
11746TIP3   OH256728   0.955   0.320  12.914  0.3381 -0.3397 -0.1871
11746TIP3    H156729   0.945   0.395  12.856  0.3813 -0.2796 -0.1176
11746TIP3    H256730   0.883   0.329  12.976  0.5201 -0.1875  0.0060
11747TIP3   OH256731   4.697   1.981   6.568 -0.2922  0.0140  0.2852
11747TIP3    H156732   4.659   2.069   6.563 -1.7240 -0.3626  2.8032
11747TIP3    H256733   4.621   1.923   6.572  0.5273 -1.0270  2.1239
11748TIP3   OH256734   2.860   4.750   1.343  0.0497 -0.1720 -0.0347
11748TIP3    H156735   2.949   4.716   1.350  0.3772  0.6440 -0.1648
11748TIP3    H256736   2.860   4.800   1.261  0.1990  1.9382  1.1874
11749TIP3   OH256737   2.171   4.170  12.558  0.0856  0.4473 -0.0653
11749TIP3    H156738   2.178   4.076  12.541  0.1284  0.6203 -1.0596
11749TIP3    H256739   2.237   4.210  12.501  1.9713  0.9134  2.2784
11750TIP3   OH256740   1.355   3.747   3.679 -0.7552 -0.1974 -0.1036
11750TIP3    H156741   1.305   3.747   3.597 -1.0874  0.9807  0.0906
11750TIP3    H256742   1.301   3.697   3.740 -2.2286  1.8821  0.3874
11751TIP3   OH256743   1.795   1.163  12.047  0.1750  0.6083 -0.5911
11751TIP3    H156744   1.727   1.215  12.090  1.0077  2.0172 -0.9076
11751TIP3    H256745   1.865   1.157  12.113  0.8627  1.5518 -1.1991
11752TIP3   OH256746   3.461   5.376  12.667  0.1287 -0.0119  0.2992
11752TIP3    H156747   3.376   5.400  12.629  1.9124  1.8122 -3.0967
11752TIP3    H256748   3.500   5.317  12.602  1.3881 -1.0432  1.9176
11753TIP3   OH256749   3.967   4.042  13.454 -0.4823  0.7075 -0.1615
11753TIP3    H156750   4.026   4.070  13.524 -0.3133  0.9897 -0.4166
11753TIP3    H256751   3.898   3.993  13.499  0.3232 -0.2459  0.0719
11754TIP3   OH256752   3.988   4.912   1.188 -0.0045 -0.6663 -0.1785
11754TIP3    H156753   4.013   4.980   1.125  0.1338  0.6202  1.2220
11754TIP3    H256754   3.963   4.837   1.133  1.7547 -0.1924 -1.7435
11755TIP3   OH256755   4.911   4.801  10.833 -0.2161  0.1410  0.1234
11755TIP3    H156756   4.886   4.709  10.827  1.0657 -0.1468 -2.2078
11755TIP3    H256757   4.856   4.845  10.769 -1.3083  1.1809  1.7067
11756TIP3   OH256758   0.677   4.239  13.866 -0.4717 -0.0005  0.3244
11756TIP3    H156759   0.740   4.268  13.932  0.7311 -1.9690  0.1027
11756TIP3    H256760   0.591   4.263  13.902  0.1642 -0.7398  2.4486
11757TIP3   OH256761   3.555   5.608  14.630 -0.6890 -0.2522  0.0426
11757TIP3    H156762   3.501   5.658  14.691 -0.5352 -1.5327  1.3111
11757TIP3    H256763   3.644   5.638  14.647 -0.7445  0.0767 -0.2464
11758TIP3   OH256764   4.954   4.522   0.068 -0.4511 -0.0939 -0.0778
11758TIP3    H156765   4.935   4.444   0.016 -2.1160  1.3297 -1.7734
11758TIP3    H256766   5.043   4.547   0.043  0.3755 -1.7722  1.0106
11759TIP3   OH256767   3.625   2.081   4.568 -0.0222 -0.2664 -0.2794
11759TIP3    H156768   3.609   2.169   4.536 -0.6615  0.2981  1.4564
11759TIP3    H256769   3.591   2.023   4.500 -0.4321  0.8328 -1.0325
11760TIP3   OH256770   0.010   0.808  13.194  0.0326  0.0848  1.2312
11760TIP3    H156771  -0.051   0.878  13.216 -0.9801 -0.6627  0.9182
11760TIP3    H256772  -0.039   0.728  13.212  0.1120 -0.5691 -1.0992
11761TIP3   OH256773   6.130   1.620  16.143  0.0524  0.4061  0.0038
11761TIP3    H156774   6.127   1.703  16.192  0.1468  0.3541  0.0999
11761TIP3    H256775   6.127   1.552  16.211 -1.1040  0.3124 -0.1309
11762TIP3   OH256776   2.501   2.193   4.380 -0.1610  0.1997 -0.2508
11762TIP3    H156777   2.422   2.231   4.343 -0.0357 -0.1541 -0.9043
11762TIP3    H256778   2.572   2.229   4.326  0.0724  0.0981 -0.0118
11763TIP3   OH256779   0.155   3.553   2.021  0.1927  0.3580  0.1538
11763TIP3    H156780   0.084   3.613   2.001  0.3562  0.8462  0.9812
11763TIP3    H256781   0.114   3.481   2.068  0.0244 -0.1070 -0.6836
11764TIP3   OH256782   0.447   6.187  16.800 -0.7021 -0.0929 -0.8558
11764TIP3    H156783   0.512   6.120  16.821  0.2834  1.1904  0.4279
11764TIP3    H256784   0.480   6.230  16.721 -1.4091 -1.1841 -1.7615
11765TIP3   OH256785   3.368   0.481  14.418 -0.1180 -0.2261 -0.7459
11765TIP3    H156786   3.391   0.531  14.339  1.3500  2.3031  1.1304
11765TIP3    H256787   3.278   0.509  14.438  0.5227  1.3719  0.0186
11766TIP3   OH256788   0.907   6.257  15.029  0.1905 -0.1100 -0.2421
11766TIP3    H156789   0.884   6.261  15.122  0.4188  0.1199 -0.1911
11766TIP3    H256790   0.947   6.343  15.011 -1.2120  0.4305 -0.9185
11767TIP3   OH256791   2.563   2.709  12.593  0.0219 -0.1069  0.7853
11767TIP3    H156792   2.553   2.668  12.679 -0.3376 -0.7337  0.4506
11767TIP3    H256793   2.609   2.643  12.541  0.0244  0.1769  0.4252
11768TIP3   OH256794   5.558   2.197   1.984  0.4526 -0.0371 -0.0171
11768TIP3    H156795   5.535   2.152   1.903 -1.8402  0.4766  0.2925
11768TIP3    H256796   5.543   2.132   2.053 -0.9117  0.5536  0.2609
11769TIP3   OH256797   3.652   6.267   2.405 -0.0226 -0.0611  0.0360
11769TIP3    H156798   3.747   6.269   2.404  0.0141  0.6016 -2.6291
11769TIP3    H256799   3.630   6.176   2.428  1.1882 -0.1412  1.0141
11770TIP3   OH256800   5.360   5.855   5.172  0.3621 -0.2249  1.2725
11770TIP3    H156801   5.323   5.929   5.220 -1.1188  1.8778 -2.6074
11770TIP3    H256802   5.452   5.879   5.157 -0.6391  2.4032 -2.0586
11771TIP3   OH256803   6.008   0.518   4.549 -0.1761 -0.1289  0.0394
11771TIP3    H156804   6.086   0.464   4.538 -0.9863 -0.7221 -4.7927
11771TIP3    H256805   6.035   0.605   4.521 -1.1077 -0.2897 -1.4529
11772TIP3   OH256806   3.487   0.886  13.275  0.0405 -0.2570  0.2086
11772TIP3    H156807   3.404   0.932  13.257 -0.3427 -0.4901  1.2827
11772TIP3    H256808   3.548   0.956  13.298 -0.6498 -0.2320  2.2447
11773TIP3   OH256809   4.424   4.925   2.370  0.5388 -0.2310  0.2356
11773TIP3    H156810   4.398   4.919   2.278  0.4082 -3.2043  0.3680
11773TIP3    H256811   4.438   5.018   2.385 -3.8696  0.9963 -1.5762
11774TIP3   OH256812   2.054   0.506  15.615 -0.1465 -0.2472  0.1557
11774TIP3    H156813   2.034   0.432  15.673  1.6947  0.5549  1.9327
11774TIP3    H256814   2.010   0.581  15.655  1.5562  0.4121  0.8857
11775TIP3   OH256815   1.493   0.465  12.435 -0.4014  0.2445 -0.6166
11775TIP3    H156816   1.499   0.559  12.449 -0.2408 -0.0596  1.6870
11775TIP3    H256817   1.399   0.447  12.432 -0.4398  0.5870 -2.1624
11776TIP3   OH256818   4.992   2.452  16.000 -0.1437  0.0873 -0.0682
11776TIP3    H156819   5.024   2.375  16.045  1.7497  0.5026 -0.6205
11776TIP3    H256820   5.001   2.431  15.907  1.3773  1.3066 -0.2376
11777TIP3   OH256821   2.737   1.880  15.982  0.4568  0.5034  0.0455
11777TIP3    H156822   2.704   1.876  15.893  0.3063 -0.0871  0.1206
11777TIP3    H256823   2.830   1.859  15.975  1.2424  3.6516 -0.3551
11778TIP3   OH256824   1.875   5.900   0.108 -0.7325 -0.1313 -0.1027
11778TIP3    H156825   1.782   5.921   0.114 -0.4859  1.3119 -0.9224
11778TIP3    H256826   1.883   5.848   0.028 -0.8845 -0.5851  0.1761
11779TIP3   OH256827   2.235   1.094   0.105 -0.5255 -0.0403 -0.1968
11779TIP3    H156828   2.228   1.188   0.118 -1.1409 -0.0141 -0.6725
11779TIP3    H256829   2.249   1.083   0.011  1.5926 -0.3370  0.0887
11780TIP3   OH256830   1.514   0.883  16.719  0.4494  0.2465 -0.4201
11780TIP3    H156831   1.526   0.959  16.663  0.0509 -0.3735 -1.3629
11780TIP3    H256832   1.538   0.914  16.807 -2.6216  2.3487 -0.1781
11781TIP3   OH256833   0.191   0.963  14.024 -0.1837  0.0047  0.4829
11781TIP3    H156834   0.133   0.994  13.954  0.6708  0.5851  0.0112
11781TIP3    H256835   0.279   0.977  13.990  0.2706 -2.5603  0.4374
11782TIP3   OH256836   4.593   0.049   1.356 -0.8449 -0.2320 -0.0996
11782TIP3    H156837   4.581   0.129   1.304 -2.8183 -1.2076 -1.2639
11782TIP3    H256838   4.660  -0.000   1.308 -0.1253  0.3937  0.2416
11783TIP3   OH256839   2.957   1.628   5.333 -0.1025  0.6495 -0.4216
11783TIP3    H156840   2.970   1.680   5.254 -0.8952 -0.0437 -1.0231
11783TIP3    H256841   3.021   1.557   5.325 -0.5357  0.2880 -0.7023
11784TIP3   OH256842   6.484   4.904   0.252  0.4368  0.0448 -0.0228
11784TIP3    H156843   6.543   4.976   0.230  0.2188  0.9955  2.2484
11784TIP3    H256844   6.542   4.832   0.278  0.6345 -0.4542 -1.6996
11785TIP3   OH256845   3.557   4.628   5.005  0.0776  1.0810  0.0658
11785TIP3    H156846   3.547   4.712   5.050 -0.4079  0.6917  0.6968
11785TIP3    H256847   3.472   4.584   5.016  0.2289  0.6299 -0.5094
11786TIP3   OH256848   5.096   1.714  10.598  0.1412 -0.0353 -0.0955
11786TIP3    H156849   5.182   1.754  10.607  0.0430  0.1424  0.0486
11786TIP3    H256850   5.114   1.623  10.573  0.3610  0.1330 -0.5589
11787TIP3   OH256851   3.312   2.661  14.506  0.0315 -0.1893 -0.1771
11787TIP3    H156852   3.219   2.664  14.484 -0.4165 -1.9280  1.2671
11787TIP3    H256853   3.347   2.744  14.474 -2.3560  1.2634  0.7173
11788TIP3   OH256854   6.213   6.569   0.254 -0.5880  0.1709  0.1731
11788TIP3    H156855   6.178   6.492   0.299  2.0035 -0.3427  1.5080
11788TIP3    H256856   6.308   6.559   0.260 -0.1374  3.4998  0.4132
11789TIP3   OH256857   1.420   0.466   5.050  0.4480  0.2376  0.1762
11789TIP3    H156858   1.507   0.462   5.011  1.2756 -1.3517  2.0411
11789TIP3    H256859   1.436   0.480   5.143 -1.3420  0.7513  0.4436
11790TIP3   OH256860   3.524   4.813   4.170  0.0491  0.1432 -0.1729
11790TIP3    H156861   3.511   4.907   4.164 -1.5658 -0.0053  0.4019
11790TIP3    H256862   3.512   4.793   4.263 -0.9090 -0.7744 -0.4700
11791TIP3   OH256863   5.836   2.872   3.680 -0.1262  0.1900  0.0486
11791TIP3    H156864   5.927   2.897   3.665  0.0154 -0.4863 -0.2510
11791TIP3    H256865   5.826   2.873   3.775  0.3538 -0.2759  0.1063
11792TIP3   OH256866   3.800   0.230  12.713 -0.2900  0.2174  0.4718
11792TIP3    H156867   3.711   0.265  12.707 -0.6656 -0.9059 -1.0495
11792TIP3    H256868   3.838   0.248  12.627  1.3094  1.4997  1.3911
11793TIP3   OH256869   5.907   6.049   4.504  0.7722  0.2201  0.7000
11793TIP3    H156870   5.879   5.965   4.541  0.1361  0.2233  0.2443
11793TIP3    H256871   5.975   6.026   4.441 -1.1292 -0.2601 -1.3069
11794TIP3   OH256872   6.245   0.990  11.174 -0.6439  0.2048 -0.2006
11794TIP3    H156873   6.251   0.972  11.268 -0.4048  0.8182 -0.0954
11794TIP3    H256874   6.231   0.904  11.134  0.4855 -0.2245  0.2821
11795TIP3   OH256875   6.606   2.022   1.009  0.3389  0.0446 -0.7373
11795TIP3    H156876   6.576   2.108   1.039  0.7981  0.0587 -0.2781
11795TIP3    H256877   6.571   2.012   0.921  1.5908  1.4063 -1.4374
11796TIP3   OH256878   6.508   2.808  16.091  0.0470  0.2029 -0.2222
11796TIP3    H156879   6.580   2.790  16.030 -0.4541 -1.6228 -0.3290
11796TIP3    H256880   6.541   2.777  16.176 -0.3866 -0.1259 -0.1694
11797TIP3   OH256881   6.115   0.579  15.625 -0.0074 -0.0393  0.2095
11797TIP3    H156882   6.166   0.583  15.544  1.4533  0.1571  1.0851
11797TIP3    H256883   6.169   0.625  15.689  0.5329 -3.0430  2.1049
11798TIP3   OH256884   5.434   5.865  13.373 -0.6027 -0.0694 -1.0326
11798TIP3    H156885   5.400   5.786  13.330  0.5882 -0.6708 -0.9105
11798TIP3    H256886   5.472   5.917  13.303 -1.8485  0.6648 -1.1875
11799TIP3   OH256887   5.071   6.683   0.973  0.2447 -0.4301  0.8154
11799TIP3    H156888   5.112   6.768   0.991 -1.5141  0.8742 -0.9627
11799TIP3    H256889   5.092   6.630   1.050  0.3216  2.0276  2.6049
11800TIP3   OH256890   5.083   5.089   2.716 -0.1448 -0.4303 -0.2255
11800TIP3    H156891   5.089   5.184   2.707 -0.1435 -0.5101 -1.1408
11800TIP3    H256892   5.005   5.075   2.770  1.3161  0.1723  2.1821
11801TIP3   OH256893   1.780   2.409   5.518 -0.0371 -0.6953  0.3024
11801TIP3    H156894   1.798   2.328   5.567 -1.0026 -0.5910  0.8485
11801TIP3    H256895   1.739   2.467   5.581 -1.6653 -0.6898 -0.6864
11802TIP3   OH256896   5.778   4.410   1.782  0.7198 -0.3789 -0.0273
11802TIP3    H156897   5.738   4.323   1.769 -1.8189  0.7346 -0.2383
11802TIP3    H256898   5.768   4.427   1.875  0.0282  0.2096 -0.2056
11803TIP3   OH256899   5.421   3.806  12.558 -0.1457  0.1193 -0.0211
11803TIP3    H156900   5.435   3.718  12.526 -3.1911 -0.6557  0.4122
11803TIP3    H256901   5.473   3.812  12.638  0.6964 -0.9948 -0.4675
11804TIP3   OH256902   3.404   1.691   4.112 -0.0146 -0.2131  0.2259
11804TIP3    H156903   3.469   1.747   4.069  0.3396 -0.8499 -0.0750
11804TIP3    H256904   3.415   1.605   4.072 -2.2789  0.0508 -1.1744
11805TIP3   OH256905   4.235   5.680   0.716  0.2185  0.0295  0.1511
11805TIP3    H156906   4.209   5.615   0.782  0.4626  0.3366  0.5565
11805TIP3    H256907   4.267   5.628   0.642 -1.5113 -0.3651 -0.3687
11806TIP3   OH256908   4.069   3.555   5.228  0.2698  0.3393  0.3067
11806TIP3    H156909   4.015   3.499   5.172 -1.2303  0.3885  1.6060
11806TIP3    H256910   4.079   3.505   5.309  1.6835  0.6071  0.3094
11807TIP3   OH256911   6.289   1.978  14.505 -0.0550 -0.4203 -0.4721
11807TIP3    H156912   6.286   1.894  14.460  0.7468 -1.0857  0.6959
11807TIP3    H256913   6.299   2.042  14.434  0.0069 -1.3436 -1.3205
11808TIP3   OH256914   6.126   1.014  14.285  0.2912 -0.1965 -0.7515
11808TIP3    H156915   6.111   1.079  14.354  2.8119 -0.4138  0.1073
11808TIP3    H256916   6.039   0.978  14.268 -0.5521  0.3256  1.8573
11809TIP3   OH256917   3.894   3.518  14.229  0.5417 -0.4394 -0.0205
11809TIP3    H156918   3.948   3.494  14.305  0.4204 -0.7059 -0.0151
11809TIP3    H256919   3.818   3.460  14.235 -0.1185  0.4442  0.3882
11810TIP3   OH256920   2.062   3.517   5.402  0.1904 -0.7562  0.8035
11810TIP3    H156921   2.132   3.569   5.439 -1.3566 -0.4223  3.4577
11810TIP3    H256922   2.023   3.573   5.335  2.8189 -1.2578 -1.3814
11811TIP3   OH256923   1.739   5.317   1.585  0.3933  0.4140 -0.3852
11811TIP3    H156924   1.757   5.233   1.627 -2.2807 -0.4651 -0.8118
11811TIP3    H256925   1.826   5.354   1.568  1.6679 -0.5966  2.9639
11812TIP3   OH256926   0.239   2.204   0.529  0.4798  0.2009  0.6047
11812TIP3    H156927   0.233   2.234   0.620 -2.0586  0.4894  0.4251
11812TIP3    H256928   0.150   2.174   0.508  1.3716 -1.3521 -1.2988
11813TIP3   OH256929   0.374   0.447  13.872  0.8105  0.4210 -0.0231
11813TIP3    H156930   0.412   0.533  13.855 -0.8111  1.1525 -0.1551
11813TIP3    H256931   0.348   0.450  13.964  0.4329  0.2238 -0.1187
11814TIP3   OH256932   4.034   3.204  11.571  0.3458 -0.1311 -0.3899
11814TIP3    H156933   4.071   3.163  11.493  1.3211 -0.7741  0.3833
11814TIP3    H256934   4.100   3.267  11.599 -0.3625  0.7024 -0.5413
11815TIP3   OH256935   5.779   2.552   5.060  0.4811  0.3780  0.2201
11815TIP3    H156936   5.841   2.548   4.987  1.3221 -1.0151  0.9589
11815TIP3    H256937   5.794   2.470   5.108 -1.1685  0.5260  1.0499
11816TIP3   OH256938   6.504   3.344   1.213 -0.5852  0.9754  0.1449
11816TIP3    H156939   6.528   3.252   1.199 -1.8919  0.8189 -1.4895
11816TIP3    H256940   6.481   3.349   1.306 -3.3735 -1.1602 -0.2702
11817TIP3   OH256941   0.759   5.074   1.465  0.0396  0.4146 -0.8463
11817TIP3    H156942   0.686   5.012   1.458 -0.9963  1.4100  0.6954
11817TIP3    H256943   0.838   5.020   1.455 -0.8629 -0.9545 -0.7537
11818TIP3   OH256944   5.863   1.377  12.886 -0.0975 -0.6528 -0.1868
11818TIP3    H156945   5.913   1.312  12.936  0.2218  0.0004  0.3500
11818TIP3    H256946   5.928   1.419  12.829 -0.3290 -0.8892 -0.6332
11819TIP3   OH256947   4.665   5.229  11.027  0.3144 -0.1295  0.8280
11819TIP3    H156948   4.721   5.152  11.032  0.3766 -0.2527 -0.9867
11819TIP3    H256949   4.662   5.250  10.934 -0.5196  1.4686  1.1807
11820TIP3   OH256950   3.675   1.639  13.580  0.1091 -0.0105  0.0079
11820TIP3    H156951   3.740   1.706  13.599  1.4223 -1.2337 -0.0461
11820TIP3    H256952   3.715   1.584  13.513 -0.8558 -0.9786  0.1857
11821TIP3   OH256953   3.531   5.031   3.847 -0.5546 -0.8240 -0.2237
11821TIP3    H156954   3.491   5.090   3.783 -0.4903  0.3125  0.7385
11821TIP3    H256955   3.486   5.052   3.929 -0.1255 -1.7278  0.2537
11822TIP3   OH256956   4.018   1.759   0.014  0.2417 -0.3394 -0.6234
11822TIP3    H156957   4.082   1.752   0.085  0.0435  0.5182 -0.3357
11822TIP3    H256958   3.935   1.777   0.059 -0.0091 -0.4303 -1.0448
11823TIP3   OH256959   6.001   3.655   3.611  0.1608 -0.2149  0.0453
11823TIP3    H156960   5.936   3.609   3.558 -0.3939  1.8476 -1.1752
11823TIP3    H256961   5.993   3.616   3.698 -2.6644 -0.1036 -0.0773
11824TIP3   OH256962   6.695   6.456  16.084 -0.3820  0.3596 -0.1110
11824TIP3    H156963   6.648   6.373  16.077 -1.5682  0.8613  1.3544
11824TIP3    H256964   6.665   6.508  16.009  0.0149 -0.3277 -0.7676
11825TIP3   OH256965   6.382   1.080  17.143 -0.4001  0.0964  0.1076
11825TIP3    H156966   6.295   1.095  17.178  0.1432  0.4396  1.3716
11825TIP3    H256967   6.404   0.991  17.170 -0.9455 -0.5820 -1.5546
11826TIP3   OH256968   5.571   2.973   3.273 -0.1314 -0.0174  0.1947
11826TIP3    H156969   5.613   2.899   3.317 -1.4949  0.1016  1.7918
11826TIP3    H256970   5.595   2.963   3.181 -0.3932 -2.5490  0.3230
11827TIP3   OH256971   5.308   3.988   4.232  0.5638 -0.2983 -0.0742
11827TIP3    H156972   5.239   3.930   4.199  1.5729 -1.5751 -0.0070
11827TIP3    H256973   5.365   4.003   4.157  1.5007 -1.1856  0.4435
11828TIP3   OH256974   2.616   0.378  12.220 -0.2988 -0.7638 -0.3038
11828TIP3    H156975   2.676   0.421  12.281  1.7292 -2.0061 -1.2783
11828TIP3    H256976   2.598   0.293  12.260 -1.6634 -0.2985  0.0997
11829TIP3   OH256977   4.183   5.213   5.166  0.0150  0.3713 -1.0145
11829TIP3    H156978   4.151   5.187   5.252  2.0418 -2.7614 -1.0483
11829TIP3    H256979   4.116   5.272   5.132 -1.2615  1.0501  2.3087
11830TIP3   OH256980   4.825   2.079  16.890 -0.2993  0.3712 -0.2260
11830TIP3    H156981   4.752   2.134  16.860  0.2255  1.0078 -0.3549
11830TIP3    H256982   4.809   2.067  16.984 -0.6082  0.4494 -0.2658
11831TIP3   OH256983   5.016   2.574  10.589  0.6825  0.0975 -0.0089
11831TIP3    H156984   5.080   2.511  10.623  1.7168  1.2302  0.2171
11831TIP3    H256985   5.063   2.621  10.520 -0.4441 -0.1381 -0.9633
11832TIP3   OH256986   0.326   0.390   5.266  0.7436 -0.2144 -0.1238
11832TIP3    H156987   0.263   0.459   5.249  2.1125  0.8290 -1.1310
11832TIP3    H256988   0.393   0.431   5.322  0.3273 -1.4349  1.3533
11833TIP3   OH256989   1.720   2.460  13.192 -0.1803  0.5148  0.3919
11833TIP3    H156990   1.734   2.543  13.236  0.6536  0.2729  0.5947
11833TIP3    H256991   1.746   2.477  13.101  0.7405  0.2767  0.5999
11834TIP3   OH256992   2.999   6.636  12.629  0.6780 -0.6250  0.5212
11834TIP3    H156993   3.083   6.590  12.630  0.4057 -1.1388  1.6481
11834TIP3    H256994   2.997   6.685  12.711  0.9305  1.3905 -0.6329
11835TIP3   OH256995   1.264   2.767   1.744  0.1548 -0.0377  0.1836
11835TIP3    H156996   1.309   2.690   1.708  0.8680  0.9795 -1.2273
11835TIP3    H256997   1.328   2.809   1.801 -0.0064 -0.1211  0.4301
11836TIP3   OH256998   3.009   2.551   4.514 -0.3918  0.5843 -0.3427
11836TIP3    H156999   2.947   2.547   4.586  0.6483  1.0395  0.6052
11836TIP3    H257000   3.045   2.640   4.518  0.3546  0.3176 -0.8464
11837TIP3   OH257001   3.606   5.994  12.341  0.3201  0.6156  0.1973
11837TIP3    H157002   3.678   6.056  12.354  1.2832  0.1708 -2.3673
11837TIP3    H257003   3.527   6.046  12.359  1.1119  2.5242 -1.3931
11838TIP3   OH257004   6.615   6.339  11.752  0.0768  1.0333 -0.0547
11838TIP3    H157005   6.670   6.305  11.681 -1.5415  0.4539 -1.0792
11838TIP3    H257006   6.609   6.266  11.814 -1.9052 -0.0321 -1.3850
11839TIP3   OH257007   2.281   1.136   3.886 -0.1032  0.4874 -0.5782
11839TIP3    H157008   2.262   1.227   3.908 -0.8751 -0.3641  2.9828
11839TIP3    H257009   2.211   1.110   3.827 -1.3323  1.5388  0.3729
11840TIP3   OH257010   4.363   3.610  11.810 -0.1371 -0.4354 -0.4204
11840TIP3    H157011   4.385   3.551  11.881 -0.7118 -0.2944 -0.1224
11840TIP3    H257012   4.272   3.590  11.788  0.2182 -0.8888 -1.5216
11841TIP3   OH257013   4.325   1.880   5.230  0.3123  0.5620 -0.0396
11841TIP3    H157014   4.392   1.874   5.162 -0.3289 -0.0558 -0.6241
11841TIP3    H257015   4.340   1.965   5.270  0.6203  0.9868 -1.0325
11842TIP3   OH257016   1.811   0.422  15.971 -0.1590  0.3654 -0.8285
11842TIP3    H157017   1.831   0.347  15.915  0.7523 -0.2201  0.2285
11842TIP3    H257018   1.737   0.464  15.930 -2.1196 -2.3375 -0.3306
11843TIP3   OH257019   3.004   1.253  13.827  0.2471  0.4951 -0.1943
11843TIP3    H157020   2.982   1.252  13.920 -0.9537 -3.7750 -0.3384
11843TIP3    H257021   3.082   1.199  13.820 -0.8602 -0.9974 -1.7999
11844TIP3   OH257022   2.945   6.353  10.678 -0.7843 -0.0700  0.1754
11844TIP3    H157023   3.027   6.306  10.668 -0.4565  0.7794 -1.4621
11844TIP3    H257024   2.878   6.285  10.678 -0.1310 -0.7355  1.0927
11845TIP3   OH257025   1.314   2.552  16.428 -0.1997 -0.5888 -0.5759
11845TIP3    H157026   1.251   2.569  16.358 -0.8127  2.0166  0.4669
11845TIP3    H257027   1.274   2.483  16.480 -1.8946  0.4796 -0.3714
11846TIP3   OH257028   2.913   5.738  16.158 -0.2674  0.2709 -0.2380
11846TIP3    H157029   2.918   5.830  16.132  2.5629  1.0946  2.5799
11846TIP3    H257030   2.869   5.739  16.243 -0.7349 -1.0770 -0.4423
11847TIP3   OH257031   2.740   6.419   0.233 -0.3789  0.2603  0.1822
11847TIP3    H157032   2.676   6.489   0.247 -0.3712  0.3019  0.0128
11847TIP3    H257033   2.807   6.434   0.300 -0.4405  0.3402  0.2262
11848TIP3   OH257034   2.071   2.000  11.897 -0.3845  0.4445  0.8874
11848TIP3    H157035   2.022   1.935  11.949 -1.2903  0.5548  0.1912
11848TIP3    H257036   2.147   2.021  11.951 -0.0403 -1.2323  1.1153
11849TIP3   OH257037   0.153   5.481   0.085 -0.5201 -0.7943 -0.0904
11849TIP3    H157038   0.216   5.553   0.089 -0.0621 -1.2356  1.3175
11849TIP3    H257039   0.109   5.483   0.170  0.3128 -2.8635  0.4637
11850TIP3   OH257040   3.807   2.356  12.242 -0.9670 -0.6798 -0.0826
11850TIP3    H157041   3.737   2.294  12.219 -2.3605 -0.3322  2.7387
11850TIP3    H257042   3.765   2.442  12.240  0.7599  0.2394 -3.2184
11851TIP3   OH257043   1.258   3.198   5.727 -0.2459 -0.5945  0.4345
11851TIP3    H157044   1.211   3.194   5.810 -1.6035 -0.9285 -0.3201
11851TIP3    H257045   1.238   3.284   5.692  0.3364 -0.4473  0.4574
11852TIP3   OH257046   0.714   4.173   2.869  0.0475 -0.2628 -0.1363
11852TIP3    H157047   0.621   4.197   2.859  0.0811 -0.3874 -0.7332
11852TIP3    H257048   0.713   4.099   2.930 -0.3111 -0.7954 -0.7835
11853TIP3   OH257049   4.100   6.822   5.678 -0.4384 -0.4839 -0.2668
11853TIP3    H157050   4.193   6.802   5.671  0.0307  1.2759  0.3206
11853TIP3    H257051   4.097   6.905   5.726 -2.3413 -0.7954  0.2469
11854TIP3   OH257052   2.619   2.212  11.135 -0.2237 -0.1987 -0.1871
11854TIP3    H157053   2.530   2.248  11.137  0.3517  1.2788 -0.2569
11854TIP3    H257054   2.655   2.235  11.220  0.5846  0.4993 -0.7136
11855TIP3   OH257055   2.704   4.016  13.052  0.1812 -0.3126 -0.5301
11855TIP3    H157056   2.785   3.980  13.016 -0.0186 -1.9995  0.6094
11855TIP3    H257057   2.732   4.091  13.104  1.2621 -1.8006  1.1460
11856TIP3   OH257058   1.515   4.219  13.666 -1.0268 -0.5522  0.2008
11856TIP3    H157059   1.563   4.302  13.674 -0.9977 -0.1754 -2.6180
11856TIP3    H257060   1.427   4.246  13.639 -0.8183 -1.4151 -1.4443
11857TIP3   OH257061   4.362   6.795   1.642  0.0580  0.5156  0.6408
11857TIP3    H157062   4.336   6.805   1.551 -0.5081 -0.0778  0.7310
11857TIP3    H257063   4.452   6.827   1.645  0.7326 -1.1870 -0.5100
11858TIP3   OH257064   1.829   4.993  16.625 -0.2505  0.4135  0.2173
11858TIP3    H157065   1.862   5.041  16.549 -0.4978 -0.8593 -0.7150
11858TIP3    H257066   1.898   4.930  16.645 -0.7472 -0.1292  0.2398
11859TIP3   OH257067   5.576   0.699   0.635  0.1698  0.3215 -0.1661
11859TIP3    H157068   5.645   0.733   0.578 -0.0748  0.1870 -0.5416
11859TIP3    H257069   5.618   0.691   0.721  0.6743  0.0622 -0.4363
11860TIP3   OH257070   4.836   3.419  16.297 -0.0891 -0.4220 -0.2233
11860TIP3    H157071   4.835   3.358  16.224  2.4490 -0.4726 -0.2970
11860TIP3    H257072   4.880   3.497  16.264  1.4977 -0.5981  1.2819
11861TIP3   OH257073   4.912   1.041  14.892 -0.4087 -0.1930  0.0558
11861TIP3    H157074   4.917   1.124  14.938 -2.0105 -0.0781  0.0991
11861TIP3    H257075   4.828   1.045  14.845 -0.2017 -1.5049 -0.4802
11862TIP3   OH257076   3.091   1.267   3.834  0.0691  0.6169  0.1632
11862TIP3    H157077   3.008   1.313   3.833  0.4860  1.3993 -0.9537
11862TIP3    H257078   3.087   1.210   3.757  0.8612  1.2395 -0.3524
11863TIP3   OH257079   2.196   1.197  14.097 -0.6906  0.1348 -0.5358
11863TIP3    H157080   2.284   1.233  14.112  0.1421 -0.1348 -3.9617
11863TIP3    H257081   2.173   1.155  14.180  1.2625  2.4382  1.3228
11864TIP3   OH257082   0.444   1.573   3.320 -0.4873  0.3311 -0.3192
11864TIP3    H157083   0.423   1.623   3.398  0.4950 -1.5594  1.2345
11864TIP3    H257084   0.539   1.569   3.318 -0.5170 -0.4295 -1.0923
11865TIP3   OH257085   4.288   6.397  12.188 -0.0639  1.0528 -0.0076
11865TIP3    H157086   4.341   6.387  12.109 -1.8791 -1.1557 -1.0423
11865TIP3    H257087   4.225   6.465  12.165 -2.6372 -1.7093 -1.8158
11866TIP3   OH257088   0.482   4.129  14.906  0.3885 -0.1599  0.0473
11866TIP3    H157089   0.523   4.171  14.981 -0.0790  0.4638 -0.0407
11866TIP3    H257090   0.533   4.049  14.892  0.8276  0.0090  0.6716
11867TIP3   OH257091   1.713   6.726  14.845 -0.1060 -0.4222  0.0927
11867TIP3    H157092   1.786   6.689  14.895 -0.8001 -1.1261  0.6050
11867TIP3    H257093   1.636   6.712  14.901 -0.6255  0.3538 -0.4177
11868TIP3   OH257094   5.772   2.942  16.357  0.3417  0.0557 -0.2389
11868TIP3    H157095   5.840   2.920  16.293 -0.9955 -0.9012 -1.3700
11868TIP3    H257096   5.821   2.968  16.435  2.0082  0.5798 -1.4078
11869TIP3   OH257097   3.646   1.215  12.113  0.0093 -0.8295  0.5243
11869TIP3    H157098   3.662   1.263  12.032 -2.3122 -1.2201 -0.2348
11869TIP3    H257099   3.662   1.123  12.091 -1.4085 -1.0295  0.2301
11870TIP3   OH257100   2.347   1.685  11.495  0.2680 -0.7765 -0.6738
11870TIP3    H157101   2.430   1.673  11.542  0.8985 -0.1900 -1.5814
11870TIP3    H257102   2.324   1.598  11.463 -0.1822 -1.1903  0.6917
11871TIP3   OH257103   4.291   2.953   6.098 -0.3708 -0.2014  0.3920
11871TIP3    H157104   4.207   2.998   6.092 -0.0861  0.6212  2.0596
11871TIP3    H257105   4.268   2.860   6.092 -1.4207  0.0060  0.8541
11872TIP3   OH257106   2.007   6.717   4.520  0.4984  0.0530 -0.2949
11872TIP3    H157107   2.097   6.695   4.497  0.5973 -1.2735  1.2033
11872TIP3    H257108   2.009   6.729   4.615 -1.0124 -0.5209 -0.1671
11873TIP3   OH257109   0.853   2.682   2.085 -0.0997 -0.5467 -0.3748
11873TIP3    H157110   0.844   2.588   2.068 -0.1908 -0.2885 -1.8886
11873TIP3    H257111   0.882   2.719   2.002 -2.3738  1.1000 -0.5267
11874TIP3   OH257112   2.284   2.708  13.047  0.0043 -0.9276  0.0369
11874TIP3    H157113   2.308   2.770  13.116  0.5392 -0.1356 -0.8322
11874TIP3    H257114   2.221   2.756  12.994  1.7207 -0.4033 -1.6657
11875TIP3   OH257115   5.379   6.197  11.694  0.3433 -0.4762 -0.3764
11875TIP3    H157116   5.353   6.287  11.714  1.6421  0.0555 -0.9772
11875TIP3    H257117   5.452   6.180  11.753 -0.3060 -1.3935  0.1955
11876TIP3   OH257118   5.876   0.202  11.528 -0.1147  0.1984 -0.2449
11876TIP3    H157119   5.833   0.190  11.443 -0.2149  2.9162 -0.6605
11876TIP3    H257120   5.969   0.210  11.507 -0.2195  1.6808 -0.2362
11877TIP3   OH257121   3.275   2.654  11.525 -0.2073  0.3176 -0.4919
11877TIP3    H157122   3.325   2.574  11.511  0.7134  0.5488  1.2418
11877TIP3    H257123   3.184   2.628  11.510 -0.0149 -1.2682  0.7839
11878TIP3   OH257124   6.525   2.664  12.988 -0.2474  0.4091  0.4374
11878TIP3    H157125   6.597   2.607  12.962 -0.2586  0.8144 -0.5538
11878TIP3    H257126   6.540   2.683  13.080  1.0777  0.7247  0.1728
11879TIP3   OH257127   2.535   2.487  13.504 -0.0913  0.1655 -0.0365
11879TIP3    H157128   2.562   2.575  13.530  1.0837  0.1597 -1.1613
11879TIP3    H257129   2.525   2.492  13.409  2.0879 -1.4129 -0.4175
11880TIP3   OH257130   0.129   2.550   2.042  0.6868  0.1936 -0.3097
11880TIP3    H157131   0.140   2.634   1.998  0.6044  0.5354  0.3096
11880TIP3    H257132   0.217   2.526   2.070  0.3370  1.6797  2.3807
11881TIP3   OH257133   1.610   0.966   2.489 -0.2878  0.4938  0.1479
11881TIP3    H157134   1.661   0.961   2.570  1.1079 -2.5662 -0.7809
11881TIP3    H257135   1.575   0.878   2.477 -0.8355  0.9833 -2.3590
11882TIP3   OH257136   3.561   4.047  14.209 -0.4450 -0.9236 -0.1452
11882TIP3    H157137   3.636   4.047  14.269 -1.4023 -0.8368  1.1031
11882TIP3    H257138   3.578   4.119  14.149 -1.1011  1.4238  2.2570
11883TIP3   OH257139   4.224   5.373  11.909 -0.0308  0.3181 -1.0655
11883TIP3    H157140   4.165   5.417  11.970 -1.6823  0.5450 -2.7410
11883TIP3    H257141   4.289   5.331  11.965 -0.1403  2.3668  0.7335
11884TIP3   OH257142   4.589   0.458   0.298  0.0142 -0.1703 -0.4288
11884TIP3    H157143   4.560   0.484   0.211  2.0752  0.3102 -1.0263
11884TIP3    H257144   4.595   0.363   0.294 -0.6752 -0.2121 -0.5451
11885TIP3   OH257145   6.450   6.814  15.098 -0.3149  0.3778 -0.0177
11885TIP3    H157146   6.364   6.792  15.060 -0.3928  2.5901 -1.3051
11885TIP3    H257147   6.455   6.909  15.092  1.5291  0.4406  1.6731
11886TIP3   OH257148   3.974   5.186   5.768  0.0664  0.1543  0.3564
11886TIP3    H157149   3.913   5.139   5.711  0.4150 -1.0935  0.9751
11886TIP3    H257150   4.047   5.126   5.780  0.7722  1.0644  0.7791
11887TIP3   OH257151   3.901   6.729   4.433  0.2297 -0.3992  0.1977
11887TIP3    H157152   3.842   6.656   4.455 -0.2312  0.3010  1.3360
11887TIP3    H257153   3.893   6.737   4.338 -1.2524 -0.5632  0.2782
11888TIP3   OH257154   1.368   5.516  12.812 -0.0203  0.2852 -0.8272
11888TIP3    H157155   1.392   5.473  12.730 -0.1806 -2.3418  0.3998
11888TIP3    H257156   1.382   5.609  12.795  2.7481 -0.3755 -2.9055
11889TIP3   OH257157   4.094   3.983  11.327  0.2617  0.2995 -0.2890
11889TIP3    H157158   4.167   3.954  11.381 -0.4519  1.4495  1.3593
11889TIP3    H257159   4.072   3.907  11.274  1.1429 -0.7910  0.8599
11890TIP3   OH257160   3.962   2.885  13.291 -0.5745  0.5234 -0.3391
11890TIP3    H157161   4.047   2.845  13.273 -0.6766  1.3751 -3.1382
11890TIP3    H257162   3.939   2.930  13.210 -2.6952  2.1860  1.0838
11891TIP3   OH257163   0.642   3.411   0.397  0.1675 -0.1222 -0.0513
11891TIP3    H157164   0.556   3.453   0.403 -0.5935 -1.7737  2.1047
11891TIP3    H257165   0.705   3.483   0.398 -1.1158  1.0648  2.3149
11892TIP3   OH257166   3.848   4.572   5.667 -0.6656 -0.1621  0.0051
11892TIP3    H157167   3.867   4.567   5.761 -0.3678 -2.3395 -0.1224
11892TIP3    H257168   3.930   4.603   5.628  0.5655 -2.9506  0.1421
11893TIP3   OH257169   1.574   6.612   1.229  0.0434  0.3573  0.0622
11893TIP3    H157170   1.633   6.654   1.166  1.6378  1.4636  2.1435
11893TIP3    H257171   1.523   6.684   1.266 -0.4448 -0.1812  0.4632
11894TIP3   OH257172   4.617   0.056   3.597  0.1241 -0.2667  0.3117
11894TIP3    H157173   4.660   0.109   3.665  0.5653 -1.8878  1.3589
11894TIP3    H257174   4.556   0.001   3.645 -1.7314  0.5890 -0.9650
11895TIP3   OH257175   1.814   6.349  15.055  0.4736  0.1711  0.2546
11895TIP3    H157176   1.830   6.433  15.011 -0.5289  1.1123  1.5831
11895TIP3    H257177   1.898   6.303  15.051  0.7725  0.7770 -1.4029
11896TIP3   OH257178   2.718   0.183   1.871  0.1434  0.2491  0.0569
11896TIP3    H157179   2.812   0.181   1.854  0.1685 -1.2985  0.1677
11896TIP3    H257180   2.679   0.148   1.791 -0.4169  1.5856 -0.2815
11897TIP3   OH257181   0.894   6.060  16.005 -0.1448 -0.3793  0.3894
11897TIP3    H157182   0.950   5.983  15.995 -0.1706 -0.2567 -0.9513
11897TIP3    H257183   0.954   6.129  16.035 -0.2185 -1.0102  2.1056
11898TIP3   OH257184   1.351   1.524   5.273 -0.8759 -0.0615  0.0793
11898TIP3    H157185   1.258   1.507   5.260 -0.7964  0.2608 -1.0793
11898TIP3    H257186   1.354   1.601   5.329 -1.3594  0.8712 -1.1208
11899TIP3   OH257187   0.821   5.832  14.860  0.4279  0.3892 -0.4346
11899TIP3    H157188   0.727   5.825  14.873  0.5284  0.8258  0.7231
11899TIP3    H257189   0.837   5.795  14.773 -0.7522 -0.0677 -0.4745
11900TIP3   OH257190   4.869   5.291   1.764  0.1642 -0.1785  0.0349
11900TIP3    H157191   4.846   5.279   1.672 -1.3265 -2.1385  0.5918
11900TIP3    H257192   4.948   5.237   1.776 -0.6501 -1.3579  0.2567
11901TIP3   OH257193   1.188   2.754   3.289 -0.3958 -0.9470  0.8639
11901TIP3    H157194   1.122   2.708   3.340 -1.1093 -0.3160  0.5299
11901TIP3    H257195   1.163   2.737   3.198 -0.7975  0.2542  0.7317
11902TIP3   OH257196   2.353   0.104  16.369  0.2290  0.5506  0.0682
11902TIP3    H157197   2.348   0.186  16.321  1.2097  1.2414  1.1063
11902TIP3    H257198   2.417   0.051  16.321  1.6263  1.4489  0.8752
11903TIP3   OH257199   1.230   1.203  14.084 -0.2222  0.2590  1.1424
11903TIP3    H157200   1.162   1.169  14.027 -1.3926  1.4241  1.7747
11903TIP3    H257201   1.311   1.164  14.052 -1.1569 -0.9991  0.2354
11904TIP3   OH257202   5.386   6.390  14.121 -1.0070 -0.2545  0.1416
11904TIP3    H157203   5.440   6.368  14.046 -1.4168  0.5189 -0.3886
11904TIP3    H257204   5.381   6.485  14.121 -1.0530 -0.2457  1.1189
11905TIP3   OH257205   5.224   1.710  16.952 -0.6150 -0.1270 -0.3408
11905TIP3    H157206   5.293   1.658  16.992 -0.1712  0.5569 -0.2056
11905TIP3    H257207   5.188   1.762  17.024 -0.9110 -0.0905 -0.5123
11906TIP3   OH257208   1.882   5.876   2.412 -0.3361 -0.0987  0.1044
11906TIP3    H157209   1.963   5.825   2.411  0.8253  1.6262 -1.1785
11906TIP3    H257210   1.817   5.818   2.451  1.7223 -1.2212  2.1238
11907TIP3   OH257211   1.003   3.004  13.731 -0.4588 -0.7528 -0.1651
11907TIP3    H157212   1.078   3.018  13.673 -0.8374 -1.0291 -0.7330
11907TIP3    H257213   0.964   3.090  13.742 -0.6865 -0.7759 -0.7473
11908TIP3   OH257214   4.703   0.891  12.254 -0.5991 -0.4891 -0.9980
11908TIP3    H157215   4.615   0.921  12.232 -0.9064 -0.8244 -0.2697
11908TIP3    H257216   4.711   0.907  12.348  0.1888 -0.2995 -1.0861
11909TIP3   OH257217   3.237   4.528  13.935  0.1771  0.5253 -0.0833
11909TIP3    H157218   3.282   4.588  13.994  0.8878  2.2774 -2.2991
11909TIP3    H257219   3.145   4.554  13.939  0.1297  0.2748  0.6177
11910TIP3   OH257220   1.490   6.273   0.383 -0.1070  0.2827 -0.5600
11910TIP3    H157221   1.491   6.227   0.467 -2.8400 -1.1021 -1.1909
11910TIP3    H257222   1.502   6.204   0.318  3.0100  1.4490 -1.4110
11911TIP3   OH257223   2.400   6.106   5.524  0.3137  0.0776 -0.2029
11911TIP3    H157224   2.442   6.037   5.472 -0.2745  0.9224 -1.8662
11911TIP3    H257225   2.423   6.085   5.615 -0.7566 -2.9382 -0.5147
11912TIP3   OH257226   3.181   0.088   0.792  0.2560 -0.5924 -0.4026
11912TIP3    H157227   3.247   0.158   0.792 -1.1546  0.9030 -2.9004
11912TIP3    H257228   3.104   0.128   0.752 -1.2700 -3.0886 -0.1845
11913TIP3   OH257229   6.577   5.074   5.179 -0.1747  0.2599  0.6915
11913TIP3    H157230   6.553   5.166   5.168  1.9110  0.9331  1.3237
11913TIP3    H257231   6.627   5.053   5.100 -2.0133 -0.8636 -0.2288
11914TIP3   OH257232   2.334   4.102  14.250 -0.4321  0.4584  0.0774
11914TIP3    H157233   2.418   4.146  14.266  1.1466 -2.0918 -0.6372
11914TIP3    H257234   2.301   4.142  14.170  1.2037  0.0592 -0.8464
11915TIP3   OH257235   4.789   0.879   0.505 -0.6699  0.0203  0.4970
11915TIP3    H157236   4.877   0.902   0.474 -1.1286 -0.8430 -1.6161
11915TIP3    H257237   4.736   0.955   0.485 -0.9510 -0.5104 -0.8908
11916TIP3   OH257238   4.254   0.705  16.634 -0.4740  0.5118 -0.4557
11916TIP3    H157239   4.193   0.741  16.570 -1.7148  0.6472  0.7593
11916TIP3    H257240   4.204   0.699  16.715  0.8459 -0.3093  0.3485
11917TIP3   OH257241   1.766   0.616   6.760  0.7259 -0.2077 -0.0504
11917TIP3    H157242   1.732   0.692   6.808 -0.4506  0.4620 -1.8230
11917TIP3    H257243   1.852   0.644   6.729  1.1636 -0.3680  0.9697
11918TIP3   OH257244   5.260   1.080  14.894  0.0579 -0.1965  0.1174
11918TIP3    H157245   5.300   1.128  14.822  0.0776 -4.4698 -3.1679
11918TIP3    H257246   5.182   1.040  14.855 -0.2066 -2.3698  2.5995
11919TIP3   OH257247   5.329   5.360  16.610 -0.2280  0.0563 -0.1462
11919TIP3    H157248   5.298   5.388  16.524  2.0281  2.8012 -0.2217
11919TIP3    H257249   5.267   5.397  16.672 -0.0289  0.9916 -0.4910
11920TIP3   OH257250   5.930   2.140  16.982 -0.1728 -0.1525  0.6733
11920TIP3    H157251   5.918   2.094  16.899 -1.5864  1.7502 -0.2468
11920TIP3    H257252   5.852   2.119  17.033 -0.9773  1.3825  0.1286
11921TIP3   OH257253   0.798   5.458  15.021 -0.9853 -0.1437 -0.1314
11921TIP3    H157254   0.845   5.469  14.938  0.7137 -0.7484  0.6954
11921TIP3    H257255   0.860   5.410  15.077 -2.0244  0.3814  1.5356
11922TIP3   OH257256   5.280   3.564   4.570 -0.1145 -0.0148  0.7847
11922TIP3    H157257   5.339   3.632   4.602 -1.0545  1.7900 -1.0963
11922TIP3    H257258   5.243   3.525   4.649  1.2191  0.9384  1.9318
11923TIP3   OH257259   3.737   3.261   4.948 -0.1305  0.2563 -0.7203
11923TIP3    H157260   3.780   3.284   4.866 -0.1189  3.8895  0.1500
11923TIP3    H257261   3.645   3.285   4.935 -0.2079  0.4938  0.1807
11924TIP3   OH257262   5.502   1.645  17.109 -0.3538 -0.2501  0.2502
11924TIP3    H157263   5.510   1.688  17.194 -1.5184  0.2940  0.1055
11924TIP3    H257264   5.583   1.666  17.064  0.5360 -1.0374  1.4298
11925TIP3   OH257265   2.700   5.737  14.273 -0.3745  0.3843 -0.0949
11925TIP3    H157266   2.740   5.674  14.213  1.8611  0.7621  0.8711
11925TIP3    H257267   2.638   5.685  14.324 -0.0732 -0.5912 -0.6787
11926TIP3   OH257268   4.302   0.831  13.517  0.8482 -0.0354 -0.6357
11926TIP3    H157269   4.271   0.901  13.574  0.6494 -0.5891 -0.0379
11926TIP3    H257270   4.373   0.870  13.466 -0.4012  1.0691 -1.5693
11927TIP3   OH257271   5.420   6.131  13.505  0.1111  0.2640 -0.4178
11927TIP3    H157272   5.386   6.046  13.476 -2.0335  0.8353  0.2312
11927TIP3    H257273   5.508   6.136  13.467 -0.8583 -0.9016 -3.0473
11928TIP3   OH257274   0.797   2.306  10.751  0.4228 -0.3037 -0.3440
11928TIP3    H157275   0.845   2.368  10.697  3.3234 -1.7426  0.4108
11928TIP3    H257276   0.807   2.339  10.840  0.8900 -1.1221 -0.0791
11929TIP3   OH257277   1.377   4.755   2.394 -0.9004 -0.0448 -0.6602
11929TIP3    H157278   1.320   4.788   2.324  0.4186  0.8437 -1.3680
11929TIP3    H257279   1.440   4.826   2.408  0.6670 -1.3886 -0.6415
11930TIP3   OH257280   4.614   2.370   5.385  0.4867  0.3637 -0.2207
11930TIP3    H157281   4.649   2.353   5.473 -1.4878  1.7194  0.9223
11930TIP3    H257282   4.593   2.284   5.350 -1.2150 -0.1496  1.8120
11931TIP3   OH257283   1.348   4.358   3.374  0.2986 -0.3094  0.6454
11931TIP3    H157284   1.270   4.309   3.346  0.0936 -0.2094  1.0360
11931TIP3    H257285   1.323   4.450   3.366  0.0154 -0.2778  1.7520
11932TIP3   OH257286   4.430   5.873   2.753 -0.1419 -0.1098  0.0321
11932TIP3    H157287   4.451   5.861   2.660 -0.7096 -1.2312  0.0288
11932TIP3    H257288   4.337   5.853   2.759 -0.4381  1.3227  0.6280
11933TIP3   OH257289   0.143   4.937   1.353  0.7816  0.1961 -0.7308
11933TIP3    H157290   0.084   4.997   1.399 -0.7369 -1.3501 -0.5794
11933TIP3    H257291   0.181   4.991   1.283 -1.0522  1.1886 -1.0263
11934TIP3   OH257292   3.179   4.113   0.774 -0.3645 -0.5477 -0.2439
11934TIP3    H157293   3.093   4.151   0.792 -0.8725 -2.4119  1.7028
11934TIP3    H257294   3.201   4.144   0.686 -3.3697 -0.6473 -1.1422
11935TIP3   OH257295   3.848   6.790   4.718 -0.0697  0.4083 -0.5290
11935TIP3    H157296   3.930   6.828   4.750  0.3289 -1.6200  1.0674
11935TIP3    H257297   3.873   6.747   4.636 -0.2261  2.2603 -1.5994
11936TIP3   OH257298   5.228   3.704   2.248 -0.5706  0.1755  0.8482
11936TIP3    H157299   5.171   3.727   2.321  0.1129  0.4821  1.3028
11936TIP3    H257300   5.316   3.721   2.280 -0.0654 -1.9939  0.8213
11937TIP3   OH257301   6.167   4.377  13.655 -0.2016  0.2642  0.4905
11937TIP3    H157302   6.187   4.290  13.620  0.1309  0.9008 -1.0214
11937TIP3    H257303   6.192   4.437  13.584 -0.8507  1.5625  1.3190
11938TIP3   OH257304   5.748   2.197   2.745 -0.2537 -0.1096  0.4271
11938TIP3    H157305   5.843   2.184   2.746 -0.2369 -0.2305  3.0877
11938TIP3    H257306   5.713   2.121   2.792 -1.4169  1.3332  1.9992
11939TIP3   OH257307   0.968   0.917  16.841  0.8374  0.3219  0.5655
11939TIP3    H157308   1.044   0.859  16.835  0.8161  0.2678  0.8506
11939TIP3    H257309   0.986   0.986  16.776  0.3375 -0.6083 -0.6079
11940TIP3   OH257310   0.212   6.472  15.667 -0.3425 -0.3906  0.0806
11940TIP3    H157311   0.216   6.461  15.762  0.8025  0.9203  0.2164
11940TIP3    H257312   0.202   6.383  15.633 -1.3154 -0.8276  1.4383
11941TIP3   OH257313   1.407   4.307  12.572 -0.2958  0.1229  0.2728
11941TIP3    H157314   1.380   4.392  12.537  2.1804  1.0551  0.3543
11941TIP3    H257315   1.461   4.269  12.502  0.5148 -0.3001  1.0972
11942TIP3   OH257316   1.937   2.108  12.982 -0.0282 -0.4692  0.3585
11942TIP3    H157317   2.032   2.119  12.976  0.0724  0.1745  2.3195
11942TIP3    H257318   1.903   2.155  12.906  1.1931 -0.5444 -0.2711
11943TIP3   OH257319   6.649   3.587  12.254 -0.0142 -0.4379 -0.0690
11943TIP3    H157320   6.700   3.532  12.312  0.7975  1.7730  1.4586
11943TIP3    H257321   6.605   3.649  12.312  0.1817  1.3673 -1.7280
11944TIP3   OH257322   5.091   2.525  11.926  0.2808 -0.0237 -0.2404
11944TIP3    H157323   5.136   2.445  11.955  0.1664  0.3765  1.0994
11944TIP3    H257324   4.998   2.501  11.926  0.3222 -0.2140 -0.9419
11945TIP3   OH257325   1.238   0.942   0.774  0.2929 -0.0733  0.2470
11945TIP3    H157326   1.146   0.917   0.773  0.4280 -0.5656  0.0357
11945TIP3    H257327   1.284   0.863   0.802  0.9379 -0.7610 -2.5027
11946TIP3   OH257328   3.746   2.140  13.602 -0.6662 -0.0183  0.7042
11946TIP3    H157329   3.801   2.184  13.538 -1.4850 -1.2961 -0.9777
11946TIP3    H257330   3.783   2.052  13.609 -2.0358 -0.6754  0.0690
11947TIP3   OH257331   0.410   1.156  14.449 -0.1000  0.2038  0.3957
11947TIP3    H157332   0.417   1.224  14.382  0.6111  0.8736  1.1144
11947TIP3    H257333   0.316   1.143  14.461 -0.2804  1.7243  0.8721
11948TIP3   OH257334   2.126   1.457  17.200  0.1323  0.1933 -0.2981
11948TIP3    H157335   2.129   1.501  17.115  0.1774 -1.0135 -0.9422
11948TIP3    H257336   2.205   1.488  17.245  1.5878 -1.1897 -1.7560
11949TIP3   OH257337   3.433   3.565  16.401 -0.4620 -0.9676  0.4277
11949TIP3    H157338   3.438   3.484  16.350 -0.2255 -0.1574 -0.8845
11949TIP3    H257339   3.370   3.619  16.353  1.8251  0.9081 -0.6629
11950TIP3   OH257340   1.117   5.310   0.849  0.4666  0.8092 -0.4123
11950TIP3    H157341   1.158   5.224   0.848  0.5207  0.8396 -0.6670
11950TIP3    H257342   1.046   5.304   0.785  0.6193  1.0295 -0.6013
11951TIP3   OH257343   0.440   6.565   2.479  0.5993  0.6559  0.6241
11951TIP3    H157344   0.391   6.632   2.431  1.8697  1.2609  0.1501
11951TIP3    H257345   0.509   6.538   2.419  0.8143 -0.2482  1.2617
11952TIP3   OH257346   4.513   4.593  16.542 -0.6844 -0.1229 -0.5283
11952TIP3    H157347   4.423   4.616  16.565 -0.5629  0.4701 -0.6193
11952TIP3    H257348   4.561   4.676  16.548 -0.1985 -0.3847 -0.7352
11953TIP3   OH257349   6.261   0.544  13.076 -0.1254 -0.1129  0.4209
11953TIP3    H157350   6.260   0.536  13.172  0.6645 -1.1605  0.3617
11953TIP3    H257351   6.267   0.638  13.060  1.5370  0.0025  1.4449
11954TIP3   OH257352   0.278   6.595   1.060  0.4714 -0.1715 -0.4326
11954TIP3    H157353   0.257   6.636   1.144  0.4977 -0.8045 -0.1091
11954TIP3    H257354   0.216   6.633   0.998 -0.8866 -1.1540  0.2772
11955TIP3   OH257355   3.659   3.141   0.045  0.1558  0.3264 -0.8878
11955TIP3    H157356   3.736   3.097   0.083 -0.9025 -1.7113 -0.9719
11955TIP3    H257357   3.664   3.122  -0.048 -0.6784 -0.1881 -0.8304
11956TIP3   OH257358   4.584   4.572   3.274 -0.7775  0.2094  0.5920
11956TIP3    H157359   4.644   4.638   3.238 -0.4456 -0.2935  0.2020
11956TIP3    H257360   4.558   4.520   3.198  1.6677 -2.2802  1.2740
11957TIP3   OH257361   1.054   5.131   4.988 -0.2542  1.0975  0.0824
11957TIP3    H157362   1.083   5.054   4.938  0.9412  1.3250  0.4039
11957TIP3    H257363   1.107   5.129   5.067 -0.5204  2.0290  0.2857
11958TIP3   OH257364   2.000   0.336   5.245  0.4588 -0.3205  0.3025
11958TIP3    H157365   2.052   0.416   5.256  1.5660 -1.1530  1.4604
11958TIP3    H257366   2.052   0.268   5.289  0.1542 -1.9335 -1.6694
11959TIP3   OH257367   2.090   5.795  14.813 -0.7435  0.6339 -0.5404
11959TIP3    H157368   2.114   5.803  14.721  0.5447 -1.6356 -0.4636
11959TIP3    H257369   2.038   5.714  14.818 -4.4932  2.8066  0.1339
11960TIP3   OH257370   3.118   3.016  17.215  0.1015  0.2239  0.0874
11960TIP3    H157371   3.214   3.021  17.208  0.0737 -0.5583 -1.3827
11960TIP3    H257372   3.102   2.967  17.295  1.0516 -1.9157 -0.9431
11961TIP3   OH257373   0.962   5.572  16.293 -0.7079 -0.2523 -0.2660
11961TIP3    H157374   0.979   5.607  16.380  0.3884  0.8719 -0.9047
11961TIP3    H257375   0.877   5.608  16.269 -1.9548 -2.1215  1.0696
11962TIP3   OH257376   4.102   1.143  11.348 -0.7464  0.1052 -0.5553
11962TIP3    H157377   4.067   1.177  11.265 -1.6426  0.3368 -0.0940
11962TIP3    H257378   4.119   1.222  11.400  0.5474  0.0064 -0.7759
11963TIP3   OH257379   5.434   3.630  15.463 -0.2540 -0.1564  0.6417
11963TIP3    H157380   5.467   3.710  15.422  0.5371 -1.1019 -0.6325
11963TIP3    H257381   5.450   3.643  15.557 -0.2598  1.2163  0.4783
11964TIP3   OH257382   0.068   4.753   2.783  0.4766  0.6737 -0.5158
11964TIP3    H157383   0.005   4.712   2.724 -0.2619  2.0598 -0.7311
11964TIP3    H257384   0.151   4.752   2.735  0.9753 -2.1218  0.1743
11965TIP3   OH257385   4.174   0.606  14.717 -0.2094  0.3595  0.3369
11965TIP3    H157386   4.102   0.559  14.676 -0.1101  0.7968 -0.3478
11965TIP3    H257387   4.132   0.663  14.781 -0.3461 -0.4943  1.0294
11966TIP3   OH257388   6.202   4.376   1.342  0.3118 -0.2542  0.3716
11966TIP3    H157389   6.120   4.385   1.391 -0.2233  0.1437 -0.5662
11966TIP3    H257390   6.175   4.338   1.258  0.4196  3.6824 -1.6703
11967TIP3   OH257391   5.790   2.329   5.218 -0.2755 -0.3540 -0.2582
11967TIP3    H157392   5.769   2.238   5.199 -0.6207 -0.4174  0.4055
11967TIP3    H257393   5.736   2.351   5.294  0.9832 -0.0823  0.5838
11968TIP3   OH257394   5.964   6.768  15.642 -0.1940  0.5393  0.1709
11968TIP3    H157395   5.879   6.782  15.683 -1.2038  0.5188 -1.8207
11968TIP3    H257396   5.975   6.673  15.639  0.3740  0.5507  1.2908
11969TIP3   OH257397   0.553   4.486   2.578 -0.6878 -0.5572  0.1877
11969TIP3    H157398   0.580   4.397   2.601  1.8908 -0.1809 -1.0721
11969TIP3    H257399   0.587   4.540   2.649  0.5381 -0.2536 -0.6099
11970TIP3   OH257400   5.522   4.784   0.602  0.4058 -0.2239 -0.0136
11970TIP3    H157401   5.472   4.702   0.597  0.2110 -0.0893 -0.3764
11970TIP3    H257402   5.490   4.827   0.681 -1.4885  0.7560 -1.2147
11971TIP3   OH257403   6.802   3.230  16.738  0.1472 -0.2073 -0.5532
11971TIP3    H157404   6.830   3.163  16.799 -0.0271  0.0409 -0.1961
11971TIP3    H257405   6.839   3.311  16.773 -0.6596  0.0593 -0.3052
11972TIP3   OH257406   4.222   4.266  14.542  0.4962 -0.2709  0.2207
11972TIP3    H157407   4.264   4.308  14.467 -0.2310  0.5185  0.2390
11972TIP3    H257408   4.208   4.176  14.514 -0.8561  0.2889 -1.0878
11973TIP3   OH257409   4.288   3.425  12.949  0.1724  0.2309  0.4610
11973TIP3    H157410   4.265   3.346  12.998  0.7085 -0.2665 -0.0738
11973TIP3    H257411   4.228   3.425  12.874  0.6320 -0.0432  0.0892
11974TIP3   OH257412   1.676   3.775   0.175 -0.0386 -0.0233  0.3498
11974TIP3    H157413   1.738   3.780   0.103 -0.8543 -2.1668 -0.5778
11974TIP3    H257414   1.645   3.865   0.187 -2.0603  0.1158 -3.9629
11975TIP3   OH257415   6.516   1.455   5.142 -0.5842  0.2725  0.8303
11975TIP3    H157416   6.499   1.360   5.144  0.9010 -0.0739 -0.7195
11975TIP3    H257417   6.520   1.481   5.234 -1.9420 -0.9731  1.2849
11976TIP3   OH257418   3.212   2.902  12.680 -0.8515  0.0449 -0.1075
11976TIP3    H157419   3.278   2.893  12.611 -0.3992 -1.0524  0.4307
11976TIP3    H257420   3.143   2.841  12.654 -1.2063  0.4755 -0.1736
11977TIP3   OH257421   1.048   3.964  15.090 -0.2106  0.6707  0.1335
11977TIP3    H157422   1.061   3.876  15.055  0.6809  1.7881 -2.6201
11977TIP3    H257423   1.130   3.984  15.137  0.2687  0.6321 -0.6783
11978TIP3   OH257424   4.024   5.679  12.214 -0.6489  0.4416 -0.8735
11978TIP3    H157425   3.958   5.748  12.215  0.5720  1.6587 -0.7655
11978TIP3    H257426   4.092   5.711  12.154  0.3763 -0.2350 -0.1176
11979TIP3   OH257427   5.758   0.771   0.260  0.2149  0.1162 -0.5126
11979TIP3    H157428   5.822   0.739   0.198  1.2399 -2.0990  1.5200
11979TIP3    H257429   5.802   0.768   0.345 -1.8393  0.7434  0.6729
11980TIP3   OH257430   1.960   4.568   1.129 -0.0498 -0.2879  0.5626
11980TIP3    H157431   1.874   4.607   1.142 -1.1676 -1.8087 -1.5506
11980TIP3    H257432   2.022   4.638   1.149 -1.8510  1.7759 -0.6673
11981TIP3   OH257433   0.444   3.321  11.336  0.8108  0.1943 -0.4301
11981TIP3    H157434   0.508   3.383  11.369 -0.8353  1.2515  0.9460
11981TIP3    H257435   0.488   3.236  11.341  2.1689  0.9046  0.2258
11982TIP3   OH257436   3.712   6.321  11.485  0.0406  0.0095 -0.1496
11982TIP3    H157437   3.772   6.391  11.458 -1.7818  2.0524  0.7682
11982TIP3    H257438   3.656   6.307  11.409  0.6594 -0.7817 -0.4725
11983TIP3   OH257439   0.939   4.230   5.934 -0.4538 -0.5012 -0.0252
11983TIP3    H157440   0.935   4.135   5.945 -2.0383 -0.4284  0.2595
11983TIP3    H257441   0.964   4.262   6.021 -1.2263 -0.5910  0.2349
11984TIP3   OH257442   0.191   0.430  11.629  0.4055 -0.1313 -0.6577
11984TIP3    H157443   0.265   0.442  11.688 -0.3617  2.4999 -0.1122
11984TIP3    H257444   0.214   0.482  11.551 -0.8299  0.7297 -0.4738
11985TIP3   OH257445   4.977   0.681  12.280 -0.5348  0.1974 -0.2458
11985TIP3    H157446   5.031   0.712  12.353  0.6305  0.1118 -1.0501
11985TIP3    H257447   5.038   0.674  12.207 -0.6123 -4.0438 -0.1423
11986TIP3   OH257448   4.874   0.799  15.665 -0.2071 -0.0786 -0.4289
11986TIP3    H157449   4.804   0.773  15.605 -0.5815  0.0169 -0.0395
11986TIP3    H257450   4.838   0.784  15.752  1.0078 -2.0059 -0.2130
11987TIP3   OH257451   4.131   6.472  11.517 -0.2520 -0.1728 -0.0303
11987TIP3    H157452   4.225   6.487  11.516 -0.3364  0.4879  0.6701
11987TIP3    H257453   4.093   6.550  11.478 -0.5025 -0.5981 -0.6590
11988TIP3   OH257454   5.029   3.276  11.682 -0.1633 -0.2387 -0.4690
11988TIP3    H157455   5.100   3.216  11.705 -0.3273 -0.7145 -1.1670
11988TIP3    H257456   5.032   3.344  11.749  0.5112 -0.6243 -0.0994
11989TIP3   OH257457   2.559   2.381   4.601  0.2373  0.0796 -1.0507
11989TIP3    H157458   2.487   2.350   4.657  0.8402  1.3424  0.4873
11989TIP3    H257459   2.552   2.327   4.523 -0.7429 -1.6632  0.1581
11990TIP3   OH257460   6.427   6.457   5.638 -0.3164 -0.0033 -0.7115
11990TIP3    H157461   6.434   6.465   5.734 -2.6587  0.4756 -0.5016
11990TIP3    H257462   6.428   6.362   5.623  1.4571 -0.0697 -0.4018
11991TIP3   OH257463   0.162   1.245   3.442 -0.0103  0.7345  0.0924
11991TIP3    H157464   0.184   1.232   3.534 -0.9847 -0.9566  0.1272
11991TIP3    H257465   0.112   1.327   3.440 -2.6697 -0.7180  1.5962
11992TIP3   OH257466   2.928   3.205   1.913 -0.1055  0.1791  0.3261
11992TIP3    H157467   3.007   3.177   1.866 -0.2154  0.2186  0.1161
11992TIP3    H257468   2.906   3.290   1.875 -0.7000 -0.1899 -0.1685
11993TIP3   OH257469   1.670   2.677   4.172  0.7327 -0.1194  0.5620
11993TIP3    H157470   1.651   2.670   4.078 -0.9933 -1.1599  0.9421
11993TIP3    H257471   1.697   2.768   4.184  1.1983 -0.0224 -0.9659
11994TIP3   OH257472   5.412   6.080  11.014 -0.6210 -0.5588  0.1812
11994TIP3    H157473   5.369   6.165  11.022  0.7891  0.0870  1.0535
11994TIP3    H257474   5.479   6.093  10.947 -1.6722 -1.5496 -1.1258
11995TIP3   OH257475   2.739   6.130  13.558  0.0637  0.1345  0.4479
11995TIP3    H157476   2.646   6.123  13.583  0.1418  0.4707  0.8455
11995TIP3    H257477   2.757   6.049  13.511 -0.4066  0.0195  0.4583
11996TIP3   OH257478   3.211   4.442  16.193 -0.0270  0.4265  0.0447
11996TIP3    H157479   3.160   4.400  16.124 -0.5973 -0.3387  0.9207
11996TIP3    H257480   3.281   4.379  16.213  0.8976  1.1861 -0.6918
11997TIP3   OH257481   1.700   1.888   4.287  0.0039  0.3134 -0.2637
11997TIP3    H157482   1.609   1.886   4.258  0.0659 -1.6110 -0.4070
11997TIP3    H257483   1.695   1.870   4.381  0.1401  2.0285  0.1091
11998TIP3   OH257484   4.482   0.490   5.412 -0.0035 -0.0940 -0.4532
11998TIP3    H157485   4.519   0.563   5.462  0.9939 -1.1251  0.3735
11998TIP3    H257486   4.446   0.531   5.333 -2.4875  1.7225  1.4543
11999TIP3   OH257487   6.570   6.777  15.583  0.5763  0.5188  0.0253
11999TIP3    H157488   6.595   6.691  15.551  0.6714  0.2286  0.8433
11999TIP3    H257489   6.650   6.811  15.623 -0.0256  0.0070  1.7637
12000TIP3   OH257490   4.743   3.363   6.664  0.2089  0.0526 -0.0363
12000TIP3    H157491   4.732   3.449   6.704 -1.8229 -0.9147  1.6866
12000TIP3    H257492   4.816   3.374   6.603 -1.2095  3.5330 -1.4262
12001TIP3   OH257493   2.389   2.942   3.647 -0.3574 -0.3070 -0.1412
12001TIP3    H157494   2.422   2.964   3.560  2.7700 -0.7210  0.7933
12001TIP3    H257495   2.361   2.851   3.640  0.1788 -0.4403 -0.6684
12002TIP3   OH257496   0.646   5.136  16.295 -0.2690 -0.0458  0.2594
12002TIP3    H157497   0.740   5.130  16.281 -0.4146  1.9037 -2.6436
12002TIP3    H257498   0.608   5.081  16.226 -1.1999  0.8565  0.0087
12003TIP3   OH257499   3.152   0.358  14.213 -0.1957  0.4102  0.6086
12003TIP3    H157500   3.243   0.330  14.217 -0.0365  0.4635 -1.5903
12003TIP3    H257501   3.140   0.388  14.123 -2.7739 -0.9360  0.4197
12004TIP3   OH257502   4.531   2.964   6.443 -0.4484 -0.5050 -0.2283
12004TIP3    H157503   4.540   3.016   6.523 -1.3795  0.5948 -0.8224
12004TIP3    H257504   4.527   2.873   6.474  0.7537 -0.2156  0.8534
12005TIP3   OH257505   2.937   3.162   4.857  0.3014 -0.0291  0.2255
12005TIP3    H157506   2.895   3.215   4.790 -0.2765 -0.3944  0.2936
12005TIP3    H257507   2.918   3.072   4.832 -1.8320 -0.1737  2.0397
12006TIP3   OH257508   3.070   0.246   5.994  0.3010 -0.0260 -0.5340
12006TIP3    H157509   3.082   0.256   5.900  1.9903  1.7719 -0.2088
12006TIP3    H257510   3.157   0.263   6.031 -0.3187 -0.6677  1.3581
12007TIP3   OH257511   1.144   6.300  15.705  0.2402 -0.0953  0.3512
12007TIP3    H157512   1.193   6.379  15.730 -0.1068 -0.3530  1.9428
12007TIP3    H257513   1.210   6.231  15.700  0.5258  0.2415 -0.9218
12008TIP3   OH257514   2.886   0.321   4.238  0.5447  0.6230 -0.3751
12008TIP3    H157515   2.974   0.293   4.265  0.3366  0.1944 -0.1348
12008TIP3    H257516   2.894   0.337   4.144  0.3296 -1.6816 -0.8495
12009TIP3   OH257517   6.770   6.284   5.981  0.2517  0.1870  0.4475
12009TIP3    H157518   6.856   6.275   6.022  0.2098  1.6807  0.9062
12009TIP3    H257519   6.709   6.292   6.053 -0.0161  1.2148  0.1221
12010TIP3   OH257520   0.361   6.009  13.149  0.5042  0.3937 -0.0531
12010TIP3    H157521   0.389   5.935  13.095  2.0982  1.3130 -0.5393
12010TIP3    H257522   0.325   5.968  13.228  1.1650 -0.9140 -0.3975
12011TIP3   OH257523   1.885   3.749   0.966 -0.0756 -0.2590  0.3639
12011TIP3    H157524   1.832   3.784   0.895  0.2641 -1.8241 -0.7004
12011TIP3    H257525   1.851   3.793   1.045  0.3641  2.4465 -0.8335
12012TIP3   OH257526   6.254   6.069  14.679 -0.0901 -0.2029  0.2306
12012TIP3    H157527   6.276   5.980  14.706 -0.5275 -0.0415  1.1873
12012TIP3    H257528   6.211   6.059  14.594  0.8692 -0.7896 -0.1996
12013TIP3   OH257529   3.902   3.345  16.473  0.2610  0.4564  0.3166
12013TIP3    H157530   3.961   3.270  16.466  0.6089  0.7084  0.5212
12013TIP3    H257531   3.895   3.362  16.567 -4.3185 -2.8328  0.8991
12014TIP3   OH257532   4.934   0.673   4.466  0.3844  0.5589  0.3710
12014TIP3    H157533   4.867   0.610   4.492  0.1595  0.3976 -0.5713
12014TIP3    H257534   4.949   0.725   4.544 -1.2848  0.9945  0.4411
12015TIP3   OH257535   2.033   3.589  15.987  0.3853 -0.3006  0.4429
12015TIP3    H157536   1.959   3.539  16.023  0.3245  0.1508  0.9646
12015TIP3    H257537   1.999   3.678  15.976  0.9752  0.0156  1.1133
12016TIP3   OH257538   5.596   5.119   0.620  0.5902 -0.9249  0.1315
12016TIP3    H157539   5.556   5.088   0.539 -0.9384 -0.2923  0.5953
12016TIP3    H257540   5.612   5.212   0.605 -1.3963 -0.3623  1.1176
12017TIP3   OH257541   5.643   3.204  12.717 -0.2608 -0.4693  0.6689
12017TIP3    H157542   5.697   3.129  12.693 -0.8018 -0.9225  0.8337
12017TIP3    H257543   5.633   3.197  12.812 -0.7874 -0.5263  0.6163
12018TIP3   OH257544   0.238   1.892  13.865 -0.6066  0.0119  0.1054
12018TIP3    H157545   0.289   1.971  13.849  2.3332 -1.6365  0.6737
12018TIP3    H257546   0.229   1.851  13.779  0.2520 -0.3640  0.1891
12019TIP3   OH257547   2.374   4.247  11.992 -0.4632  0.3185 -0.3176
12019TIP3    H157548   2.390   4.281  12.080  1.1562 -1.6641  0.2145
12019TIP3    H257549   2.327   4.165  12.006 -0.3703  0.0848 -1.3138
12020TIP3   OH257550   3.947   0.597  17.196  0.5674 -0.2248  0.2076
12020TIP3    H157551   4.008   0.580  17.125  0.0552 -0.3253 -0.2171
12020TIP3    H257552   3.874   0.537  17.180 -1.0055  1.8661 -0.9768
12021TIP3   OH257553   0.027   6.057   3.098  0.6558  0.3190  0.2656
12021TIP3    H157554  -0.046   5.997   3.111 -0.0572  1.2026  0.4475
12021TIP3    H257555   0.101   6.014   3.141  0.2513 -0.5919  0.0749
12022TIP3   OH257556   3.375   2.849  11.308 -0.0102 -0.5465 -0.1009
12022TIP3    H157557   3.381   2.755  11.323 -1.4480 -1.1370 -2.6622
12022TIP3    H257558   3.281   2.867  11.299  0.2654  1.0329 -0.1863
12023TIP3   OH257559   2.173   5.072   3.448  0.1915  0.3406  0.0521
12023TIP3    H157560   2.253   5.022   3.434 -0.5404 -0.5785 -0.9630
12023TIP3    H257561   2.139   5.089   3.360 -1.2509 -0.1414  0.4931
12024TIP3   OH257562   0.952   3.013   5.246 -0.8962  0.3289  0.4648
12024TIP3    H157563   1.038   2.973   5.232 -0.2577  1.8400 -0.1284
12024TIP3    H257564   0.926   2.983   5.333  0.0356 -0.4872  0.4778
12025TIP3   OH257565   0.042   0.374   2.019  0.1106  0.3562 -0.0154
12025TIP3    H157566   0.134   0.398   2.012 -0.0244  0.8054 -0.3635
12025TIP3    H257567   0.031   0.344   2.109  1.1803 -2.2704 -0.6546
12026TIP3   OH257568   4.431   6.645   0.091 -0.4556 -0.0784  0.0462
12026TIP3    H157569   4.469   6.628   0.176 -0.5397  0.0348  0.1070
12026TIP3    H257570   4.338   6.659   0.109 -0.6045 -0.7639 -0.1477
12027TIP3   OH257571   4.024   4.233  12.885 -0.1811 -0.4946 -0.1605
12027TIP3    H157572   3.934   4.264  12.882  0.0423  0.0859 -2.8511
12027TIP3    H257573   4.077   4.310  12.862  0.9955 -0.9726  0.7962
12028TIP3   OH257574   5.201   5.807   1.122  0.5225  0.0960  0.1479
12028TIP3    H157575   5.280   5.811   1.175  0.3156 -2.0392  0.7077
12028TIP3    H257576   5.129   5.799   1.184 -0.4001  3.6238 -0.2765
12029TIP3   OH257577   3.278   4.169   1.051  0.3883 -0.5210 -0.3583
12029TIP3    H157578   3.219   4.156   0.977 -0.4007  0.2083  0.1218
12029TIP3    H257579   3.240   4.115   1.121 -0.7673  1.2773  0.4903
12030TIP3   OH257580   3.124   0.280  14.480  0.2244  0.2811  0.4276
12030TIP3    H157581   3.046   0.316  14.522  0.1359  1.6710 -0.8220
12030TIP3    H257582   3.123   0.318  14.392  0.7049 -2.0360 -0.6597
12031TIP3   OH257583   6.584   5.696   6.525 -0.0324  0.2150  0.0368
12031TIP3    H157584   6.531   5.617   6.531  1.2393 -0.7831 -1.0032
12031TIP3    H257585   6.630   5.701   6.609 -0.9633  0.5088  0.5415
12032TIP3   OH257586   5.034   3.866  14.199  0.2563 -0.1713  0.0114
12032TIP3    H157587   5.082   3.809  14.139  1.3231 -0.7113  1.3129
12032TIP3    H257588   5.041   3.822  14.284  2.6461  2.6554  1.4792
12033TIP3   OH257589   4.799   3.423  11.663  0.2539  0.0346 -0.7292
12033TIP3    H157590   4.776   3.336  11.696 -0.0969  0.7760  1.1188
12033TIP3    H257591   4.894   3.429  11.675 -0.1486  1.3308  3.1202
12034TIP3   OH257592   1.758   0.418   1.203 -0.1153  0.8135 -0.2178
12034TIP3    H157593   1.748   0.378   1.116  1.0546  0.6586 -0.2908
12034TIP3    H257594   1.835   0.376   1.240  0.2441  1.9263  0.3152
12035TIP3   OH257595   5.537   2.604   3.577 -0.5041  0.2347 -0.8228
12035TIP3    H157596   5.467   2.615   3.642 -1.6339 -0.2847 -1.8925
12035TIP3    H257597   5.492   2.569   3.500  0.6462  1.5614 -2.1675
12036TIP3   OH257598   4.405   4.618   4.562 -0.2217  0.0130 -0.5712
12036TIP3    H157599   4.430   4.654   4.647 -1.5327  0.1562 -0.2131
12036TIP3    H257600   4.483   4.627   4.507  0.4562  0.4604  0.4442
12037TIP3   OH257601   3.629   6.206   4.832  0.2868  0.4318  0.1889
12037TIP3    H157602   3.542   6.169   4.845 -0.0803  1.1138 -0.2642
12037TIP3    H257603   3.686   6.156   4.891 -0.3701 -0.1531  0.3367
12038TIP3   OH257604   0.652   6.407  15.359 -0.1085  0.5848  0.0773
12038TIP3    H157605   0.704   6.328  15.344 -2.2702 -0.8967  0.0047
12038TIP3    H257606   0.717   6.478  15.361  1.8442 -1.0865 -0.4318
12039TIP3   OH257607   6.361   1.155   2.740  0.0065  0.6917  0.6175
12039TIP3    H157608   6.370   1.109   2.823  0.2425  2.4947  1.6499
12039TIP3    H257609   6.268   1.178   2.735  0.1686  1.4589  0.9071
12040TIP3   OH257610   6.524   6.548  13.978  0.0558 -0.1686  0.0507
12040TIP3    H157611   6.574   6.627  13.999  0.6919  0.4869 -3.3601
12040TIP3    H257612   6.578   6.476  14.011  0.6866  0.6967  0.9876
12041TIP3   OH257613   2.327   2.601   2.060  0.4625 -0.6815  0.2571
12041TIP3    H157614   2.280   2.534   2.010 -1.1641 -0.0800  0.9388
12041TIP3    H257615   2.310   2.682   2.013  1.0650 -0.4867  0.3641
12042TIP3   OH257616   1.278   1.948  13.277  0.1712  0.0198 -0.1231
12042TIP3    H157617   1.296   1.925  13.368  1.0625  2.1315  0.3021
12042TIP3    H257618   1.364   1.948  13.235 -0.0533  0.4241 -0.5960
12043TIP3   OH257619   3.408   0.554   2.147 -0.6982  0.1147 -0.2113
12043TIP3    H157620   3.443   0.488   2.207 -0.3906 -0.0458 -0.5635
12043TIP3    H257621   3.393   0.631   2.202  3.6088  1.4844 -0.5730
12044TIP3   OH257622   5.921   2.596   3.135  0.2047 -0.7354 -0.2584
12044TIP3    H157623   6.016   2.600   3.129  0.3929 -0.0092  2.0451
12044TIP3    H257624   5.899   2.504   3.124  1.3727 -1.1871  0.9796
12045TIP3   OH257625   1.730   5.737   4.880  0.2901 -0.0836  0.3393
12045TIP3    H157626   1.738   5.642   4.873 -1.7958 -0.3420  0.6873
12045TIP3    H257627   1.664   5.750   4.948  0.1535  1.5999 -0.0783
12046TIP3   OH257628   5.754   2.070  14.627 -0.0872  0.1905 -0.2482
12046TIP3    H157629   5.693   2.016  14.576  0.7921 -0.3365 -0.7752
12046TIP3    H257630   5.780   2.014  14.700 -0.2625  0.4323  0.0003
12047TIP3   OH257631   3.011   1.917   6.195  0.0364 -0.4726  0.4365
12047TIP3    H157632   2.958   1.898   6.272 -0.1628  0.7740  0.6369
12047TIP3    H257633   3.010   2.013   6.188  0.4792 -0.5326 -0.8114
12048TIP3   OH257634   1.840   0.455   0.128  0.3196 -0.5457 -0.1485
12048TIP3    H157635   1.764   0.509   0.105  0.7337 -0.2985 -0.9855
12048TIP3    H257636   1.803   0.370   0.153 -0.3153  0.0173  0.8811
12049TIP3   OH257637   2.360   2.233  16.425 -0.2768  0.1042 -0.7354
12049TIP3    H157638   2.456   2.236  16.434 -0.2449  0.9148 -1.2119
12049TIP3    H257639   2.344   2.260  16.335 -0.8859 -1.7191 -1.2091
12050TIP3   OH257640   6.796   5.933   4.627  0.1518 -0.3819 -0.0475
12050TIP3    H157641   6.752   5.884   4.697 -0.7519  0.8820  0.3175
12050TIP3    H257642   6.789   5.877   4.550  2.5280 -2.5122  1.1521
12051TIP3   OH257643   5.745   3.804   1.670 -0.3868  0.1621  0.0613
12051TIP3    H157644   5.765   3.711   1.658  0.1807  0.2532  0.2503
12051TIP3    H257645   5.825   3.849   1.643  0.0830  0.4886  1.8675
12052TIP3   OH257646   6.570   1.087  14.644 -0.1528  0.1594  0.2358
12052TIP3    H157647   6.632   1.032  14.596 -0.3213  0.2043 -0.0337
12052TIP3    H257648   6.618   1.168  14.661 -0.0769  0.1269  0.1774
12053TIP3   OH257649   6.493   6.808   0.194  0.0657  0.3363  0.0941
12053TIP3    H157650   6.449   6.805   0.278  1.7261  0.3849  1.0233
12053TIP3    H257651   6.586   6.803   0.216  0.5264 -0.1708 -1.7744
12054TIP3   OH257652   3.930   2.358   2.623 -0.2592  0.0197  0.3614
12054TIP3    H157653   4.007   2.321   2.578  0.5145  1.2427  0.6366
12054TIP3    H257654   3.922   2.306   2.703  1.4958  1.0792  1.2984
12055TIP3   OH257655   5.723   2.776  16.023  0.6975  0.0586  0.0796
12055TIP3    H157656   5.798   2.728  16.058 -0.0875 -1.2644 -0.0175
12055TIP3    H257657   5.686   2.719  15.956 -1.6164 -0.2382  1.5126
12056TIP3   OH257658   3.426   0.569  12.398 -0.1373  0.7204 -0.1847
12056TIP3    H157659   3.496   0.506  12.416 -1.1857 -0.6227 -0.6510
12056TIP3    H257660   3.419   0.571  12.303  0.1173  1.8213 -0.1870
12057TIP3   OH257661   2.934   1.318   0.248  0.2618 -0.4859  0.2782
12057TIP3    H157662   2.959   1.322   0.341 -1.7387 -0.4975  0.8520
12057TIP3    H257663   2.915   1.226   0.232  0.7890 -0.5163 -0.2226
12058TIP3   OH257664   6.690   3.800  14.432  0.4421  0.2136 -0.5138
12058TIP3    H157665   6.642   3.740  14.374  0.7398 -1.0518  0.4941
12058TIP3    H257666   6.641   3.797  14.514  0.8694  0.8292 -0.2358
12059TIP3   OH257667   6.137   6.628  16.731 -0.0687  0.2015 -0.2793
12059TIP3    H157668   6.183   6.707  16.760  0.1238 -0.8572  2.6142
12059TIP3    H257669   6.207   6.569  16.702 -0.0523  0.3503 -0.5511
12060TIP3   OH257670   3.297   1.970  12.054 -0.1034  0.0780  0.3594
12060TIP3    H157671   3.237   1.896  12.066  1.3220 -0.9351  1.4886
12060TIP3    H257672   3.259   2.020  11.982 -1.7300 -1.1073  0.3449
12061TIP3   OH257673   5.425   5.011   4.262 -0.8051 -0.1839  0.5771
12061TIP3    H157674   5.364   5.084   4.263 -0.2324  0.3880 -1.3503
12061TIP3    H257675   5.445   4.997   4.169  2.1856 -0.1460  1.1023
12062TIP3   OH257676   2.041   5.764  14.533 -0.1077 -0.2223  0.6506
12062TIP3    H157677   2.079   5.711  14.464 -1.2877  0.0124 -0.2101
12062TIP3    H257678   2.011   5.843  14.489 -0.3605  0.1962  1.5368
12063TIP3   OH257679   1.442   0.260  12.894  0.3000 -0.4902 -0.2832
12063TIP3    H157680   1.399   0.200  12.833 -1.2450  2.1641 -2.0461
12063TIP3    H257681   1.452   0.342  12.844  2.0941  0.8172  2.0003
12064TIP3   OH257682   5.681   4.234  13.856  0.4075  0.5285 -0.5621
12064TIP3    H157683   5.604   4.227  13.800  0.1977 -2.5682 -0.0469
12064TIP3    H257684   5.753   4.201  13.804  0.8439  0.7049 -0.0844
12065TIP3   OH257685   1.935   3.221  11.364  0.0741  0.4577 -0.5952
12065TIP3    H157686   1.943   3.148  11.425 -0.3434 -0.5362 -1.6916
12065TIP3    H257687   1.963   3.185  11.280  0.0139  1.6111 -1.1278
12066TIP3   OH257688   1.361   5.412  13.941  0.5681  0.1850 -0.5163
12066TIP3    H157689   1.389   5.353  13.872  0.4447 -0.9958  0.4114
12066TIP3    H257690   1.265   5.403  13.942  0.6840 -1.4688  1.1833
12067TIP3   OH257691   1.735   0.206   2.458 -0.1320  0.0301  0.3424
12067TIP3    H157692   1.691   0.151   2.393  1.8608 -0.1867 -0.9148
12067TIP3    H257693   1.813   0.238   2.413 -0.8168  3.3629  1.2565
12068TIP3   OH257694   5.214   1.202  17.190  0.1313 -0.3999  0.2353
12068TIP3    H157695   5.159   1.124  17.203 -0.9612  0.1792 -0.6927
12068TIP3    H257696   5.264   1.183  17.111  1.7532 -1.1571  1.3844
12069TIP3   OH257697   2.153   0.906   1.740 -0.8785 -0.0284  0.0348
12069TIP3    H157698   2.110   0.899   1.826  0.6578 -0.9725  0.7781
12069TIP3    H257699   2.084   0.885   1.677 -1.9376  0.2438  1.0685
12070TIP3   OH257700   0.016   5.712  17.303  0.1552 -0.1902  0.0041
12070TIP3    H157701  -0.031   5.682  17.225  1.3050 -0.5752 -0.5732
12070TIP3    H257702   0.077   5.641  17.323  0.2976  0.1643  0.9047
12071TIP3   OH257703   5.674   5.657   1.422 -0.0550  0.2453 -0.2669
12071TIP3    H157704   5.653   5.583   1.479 -0.9672  0.1483 -0.7049
12071TIP3    H257705   5.719   5.720   1.478  2.2671 -1.3195 -0.2563
12072TIP3   OH257706   6.501   0.933  14.191  0.5523  0.3417  0.2717
12072TIP3    H157707   6.436   1.002  14.182  0.1753  0.0680  0.8162
12072TIP3    H257708   6.458   0.866  14.245  0.9034 -0.3215 -0.2539
12073TIP3   OH257709   2.457   6.798  15.283  0.1302 -1.1147 -0.6967
12073TIP3    H157710   2.393   6.766  15.219 -0.1579  0.3248 -1.1761
12073TIP3    H257711   2.415   6.782  15.368 -1.4846  0.8455 -1.0232
12074TIP3   OH257712   2.064   2.078   4.356  0.4637  0.2186  0.1853
12074TIP3    H157713   2.135   2.095   4.419  1.4495 -1.4645 -0.4027
12074TIP3    H257714   1.988   2.121   4.394  2.2151  4.2796 -0.3306
12075TIP3   OH257715   2.389   3.401   4.625 -0.4946  0.2555 -0.3012
12075TIP3    H157716   2.311   3.456   4.633  0.1790  0.9286  2.6693
12075TIP3    H257717   2.462   3.463   4.626  0.1581 -0.4094 -2.4424
12076TIP3   OH257718   3.640   6.239  16.441  0.0888  0.2664 -0.6414
12076TIP3    H157719   3.624   6.176  16.511 -0.7421  0.9855 -0.1739
12076TIP3    H257720   3.601   6.200  16.363  1.2247 -0.6456 -0.7849
12077TIP3   OH257721   4.531   3.861  15.491 -0.3714  0.4911 -0.1124
12077TIP3    H157722   4.478   3.854  15.571 -0.5771 -0.4665 -0.3209
12077TIP3    H257723   4.492   3.799  15.430  0.8251 -0.0518 -0.3631
12078TIP3   OH257724   2.426   3.886  15.560  0.3258 -0.0618 -0.0236
12078TIP3    H157725   2.501   3.859  15.507  0.3784 -0.4078  0.2196
12078TIP3    H257726   2.458   3.962  15.609  0.1285  0.5538 -0.8284
12079TIP3   OH257727   5.389   1.153  15.271  0.1283  0.2269 -0.2113
12079TIP3    H157728   5.331   1.188  15.338  0.6139  2.8769 -1.0578
12079TIP3    H257729   5.468   1.126  15.319  0.0241  1.0149  0.4298
12080TIP3   OH257730   4.965   6.293   1.350  0.1623  0.2050 -0.0982
12080TIP3    H157731   4.904   6.243   1.404  1.2380  0.7806  1.7312
12080TIP3    H257732   5.051   6.277   1.389  0.6168  3.0522  0.2882
12081TIP3   OH257733   6.289   0.105  12.968  0.1593  0.4246 -0.9076
12081TIP3    H157734   6.342   0.173  13.009  0.2402 -0.4367  0.4979
12081TIP3    H257735   6.352   0.047  12.925  0.3958 -0.5097  0.6273
12082TIP3   OH257736   0.619   2.189  11.807  0.3060  0.0094 -0.1883
12082TIP3    H157737   0.584   2.269  11.768 -0.1720  0.3340  0.8899
12082TIP3    H257738   0.695   2.218  11.858 -1.9633  0.4299  3.2586
12083TIP3   OH257739   2.484   1.756  12.915 -0.5479 -0.3582 -0.0359
12083TIP3    H157740   2.480   1.809  12.994 -0.5436 -1.5305  0.7728
12083TIP3    H257741   2.552   1.691  12.933 -1.1326 -1.1672 -0.6536
12084TIP3   OH257742   5.562   4.759   5.637  0.6755 -0.2160  0.2425
12084TIP3    H157743   5.473   4.755   5.672  0.4287  1.2197 -0.1617
12084TIP3    H257744   5.551   4.786   5.546  1.4582 -1.4555 -0.2443
12085TIP3   OH257745   6.550   3.492  15.625 -0.4532 -0.2360  0.1194
12085TIP3    H157746   6.585   3.403  15.624 -0.5714 -0.2980 -1.5606
12085TIP3    H257747   6.577   3.529  15.541  0.1554  1.5550  1.0337
12086TIP3   OH257748   1.920   1.553  16.112  0.2792 -0.7707 -0.2907
12086TIP3    H157749   1.852   1.566  16.045 -0.7199  2.8538  1.2032
12086TIP3    H257750   1.879   1.493  16.174 -0.0908 -1.5102 -1.2131
12087TIP3   OH257751   2.738   0.906   4.459 -0.0048 -0.4046 -0.2143
12087TIP3    H157752   2.691   0.983   4.426  0.7196  0.1087 -0.0773
12087TIP3    H257753   2.716   0.904   4.553 -0.1385 -0.4546 -0.2457
12088TIP3   OH257754   1.384   5.987  16.569  0.3537  0.0108 -0.5551
12088TIP3    H157755   1.411   6.037  16.492  0.7441  0.9615  0.1669
12088TIP3    H257756   1.463   5.981  16.622  0.2331 -1.1551 -0.4969
12089TIP3   OH257757   2.193   1.503  16.734 -0.9278  0.0405  0.0630
12089TIP3    H157758   2.100   1.522  16.747 -1.0002 -1.5263  2.3368
12089TIP3    H257759   2.199   1.469  16.645 -2.5437  0.0630 -0.0731
12090TIP3   OH257760   6.402   5.905   4.749  0.1935 -0.6539 -0.3544
12090TIP3    H157761   6.411   5.871   4.660 -0.9033 -0.5674 -0.5144
12090TIP3    H257762   6.443   5.839   4.805 -0.5343 -1.4856 -0.7891
12091TIP3   OH257763   5.589   4.489  12.121  0.1116 -0.4453 -0.8405
12091TIP3    H157764   5.573   4.405  12.078 -4.3014  0.0626 -0.6348
12091TIP3    H257765   5.557   4.555  12.060 -1.5930  0.6297  1.0730
12092TIP3   OH257766   0.029   5.687   5.006 -0.3001  0.1022  0.7809
12092TIP3    H157767   0.071   5.608   4.973 -1.7638 -0.4990  0.2727
12092TIP3    H257768   0.100   5.737   5.046  0.5010 -1.9628  2.1253
12093TIP3   OH257769   5.991   4.729  15.974 -0.7095 -0.0690 -0.0334
12093TIP3    H157770   6.051   4.771  16.036 -0.9147  0.3702 -0.1238
12093TIP3    H257771   6.026   4.641  15.961 -0.1566  0.1457  0.0107
12094TIP3   OH257772   1.717   0.200  10.820  0.2985 -0.7611 -0.4460
12094TIP3    H157773   1.658   0.263  10.860  0.8902 -0.9461  0.7675
12094TIP3    H257774   1.664   0.122  10.804 -0.1563 -0.3684 -0.8905
12095TIP3   OH257775   4.775   2.815   3.414  0.2202  0.4699  0.1819
12095TIP3    H157776   4.753   2.903   3.382  0.1966  0.2206 -0.4895
12095TIP3    H257777   4.730   2.756   3.354  0.7744 -0.0167  0.2433
12096TIP3   OH257778   0.785   2.382  12.778  0.0864  0.0883 -0.0154
12096TIP3    H157779   0.861   2.426  12.815 -0.6222  1.0852  0.3052
12096TIP3    H257780   0.819   2.300  12.744  0.8653 -0.7818  2.5948
12097TIP3   OH257781   1.970   5.442   0.558 -0.1571 -0.2478  0.3477
12097TIP3    H157782   1.919   5.460   0.480 -1.8311 -0.7924  1.2594
12097TIP3    H257783   1.930   5.496   0.626  1.7691  0.8401  0.7067
12098TIP3   OH257784   2.791   1.474   0.052 -0.2912 -0.4337  0.3759
12098TIP3    H157785   2.843   1.414   0.106 -1.1525 -0.1251  1.5802
12098TIP3    H257786   2.851   1.546   0.031  0.3008 -0.9681  0.1802
12099TIP3   OH257787   1.216   3.131   5.157  0.3563 -0.0790  0.5903
12099TIP3    H157788   1.197   3.084   5.238 -1.4344  1.6622  1.2458
12099TIP3    H257789   1.177   3.217   5.169  3.0773  1.5001 -0.7384
12100TIP3   OH257790   6.659   6.758  10.491  1.3929 -0.1734  0.3101
12100TIP3    H157791   6.610   6.751  10.573  0.7434  1.7302  0.1209
12100TIP3    H257792   6.738   6.808  10.514  1.6271 -0.3715 -0.0571
12101TIP3   OH257793   2.397   0.970   3.568  0.0748 -0.0579  0.1835
12101TIP3    H157794   2.324   0.970   3.630 -0.0128  1.9209  0.1454
12101TIP3    H257795   2.410   0.878   3.546 -2.7426 -0.4475 -0.2221
12102TIP3   OH257796   3.097   0.975  14.587 -0.0855 -0.0792 -0.5632
12102TIP3    H157797   3.019   1.024  14.560 -0.6091 -1.0144 -0.7724
12102TIP3    H257798   3.168   1.040  14.584 -0.7125  0.5964 -1.1262
12103TIP3   OH257799   4.365   1.962  14.594 -0.0697 -0.0359  0.2498
12103TIP3    H157800   4.275   1.958  14.560  0.8545 -0.8203 -2.4236
12103TIP3    H257801   4.380   2.055  14.610 -0.7928  0.3540 -1.1085
12104TIP3   OH257802   1.690   1.243   0.715  0.8217 -0.3215 -0.3484
12104TIP3    H157803   1.756   1.275   0.776  1.2125 -1.7191  0.0154
12104TIP3    H257804   1.727   1.160   0.682  0.0056 -0.2748 -1.4424
12105TIP3   OH257805   4.233   4.651  13.911  0.7703  0.5186  0.2683
12105TIP3    H157806   4.294   4.583  13.881 -2.9534 -2.8759 -0.4880
12105TIP3    H257807   4.243   4.651  14.006  1.8231 -0.0065  0.1805
12106TIP3   OH257808   0.299   4.876   1.610 -0.2511  0.5612 -0.3067
12106TIP3    H157809   0.248   4.888   1.530 -0.4261  0.9034 -0.1438
12106TIP3    H257810   0.246   4.818   1.664 -0.6393  1.2075  0.0130
12107TIP3   OH257811   5.216   2.235   5.331 -0.0096  0.2010  0.9357
12107TIP3    H157812   5.247   2.304   5.390 -2.8301 -0.0244  2.8590
12107TIP3    H257813   5.121   2.233   5.344 -0.2246 -2.8828 -0.3555
12108TIP3   OH257814   2.457   2.188   2.605 -0.1476  0.1513  0.1055
12108TIP3    H157815   2.482   2.097   2.624  2.1489  0.4546 -1.0542
12108TIP3    H257816   2.454   2.191   2.509  0.5191  1.4600  0.1154
12109TIP3   OH257817   4.658   1.194  17.109 -0.3814 -0.0512  0.6555
12109TIP3    H157818   4.714   1.123  17.142  0.0661  0.2749  0.6153
12109TIP3    H257819   4.720   1.263  17.085 -0.8025  0.2812  0.5222
12110TIP3   OH257820   0.545   0.915  17.011 -0.0031  0.3441 -0.4621
12110TIP3    H157821   0.559   0.989  16.952  0.1163  0.3227 -0.4605
12110TIP3    H257822   0.512   0.846  16.954 -0.8541  0.6334 -0.3415
12111TIP3   OH257823   5.363   5.914  15.316 -0.2545 -0.2508 -0.1320
12111TIP3    H157824   5.450   5.934  15.349 -0.5830  0.0666  0.5839
12111TIP3    H257825   5.323   6.000  15.299  0.1490 -0.4127 -2.0742
12112TIP3   OH257826   0.107   3.258  17.207 -0.2393 -0.4279 -0.0816
12112TIP3    H157827   0.156   3.223  17.282 -0.0409 -0.0344 -0.0276
12112TIP3    H257828   0.165   3.247  17.132  0.6809  1.6803  0.2708
12113TIP3   OH257829   1.444   3.845  12.670 -0.2932  0.0292  0.1569
12113TIP3    H157830   1.389   3.839  12.749  0.8239  3.1299  1.3149
12113TIP3    H257831   1.493   3.926  12.682  0.7385  0.0309 -3.2778
12114TIP3   OH257832   5.229   2.989  16.687 -0.3610 -0.1400  0.4154
12114TIP3    H157833   5.279   2.957  16.761  0.0290  0.8469  0.5899
12114TIP3    H257834   5.144   2.945  16.694 -0.4455  0.2028  1.6305
12115TIP3   OH257835   4.485   0.439   0.879  0.5517 -0.2110  0.0702
12115TIP3    H157836   4.409   0.491   0.853  0.1605 -0.5619  0.5007
12115TIP3    H257837   4.535   0.496   0.937 -0.5450 -0.7412  1.5950
12116TIP3   OH257838   6.167   5.763   1.796  0.1454  0.0316 -0.2267
12116TIP3    H157839   6.107   5.688   1.793  2.0066 -1.5583  0.6007
12116TIP3    H257840   6.219   5.750   1.875  0.3036  2.4295  0.1557
12117TIP3   OH257841   1.670   6.620  16.158  0.2297 -0.2026  0.0696
12117TIP3    H157842   1.749   6.599  16.208  1.0044  1.9744 -0.1317
12117TIP3    H257843   1.697   6.689  16.098 -1.0941 -1.5615 -2.2496
12118TIP3   OH257844   0.588   2.673   1.926 -0.1321 -0.2514 -0.0706
12118TIP3    H157845   0.572   2.755   1.879 -0.0032  0.8560  1.6900
12118TIP3    H257846   0.683   2.670   1.938 -0.1061 -0.8222 -0.4000
12119TIP3   OH257847   5.098   6.443   3.271  0.0739 -0.4318 -0.1015
12119TIP3    H157848   5.157   6.518   3.281 -1.7799  1.2307 -1.0356
12119TIP3    H257849   5.020   6.467   3.320 -1.5883 -0.5337 -2.5345
12120TIP3   OH257850   4.214   5.222  13.304 -0.3134  0.2848 -0.1980
12120TIP3    H157851   4.217   5.306  13.348  0.8409 -0.1144  0.5281
12120TIP3    H257852   4.300   5.213  13.263 -0.6117 -0.3057 -0.7094
12121TIP3   OH257853   5.965   0.076   1.792 -0.7627 -0.2906 -0.6373
12121TIP3    H157854   5.975   0.172   1.788 -0.3550 -0.3190 -0.2904
12121TIP3    H257855   5.978   0.048   1.701  1.7377 -0.2573 -0.3395
12122TIP3   OH257856   0.427   5.030   5.456 -0.1888  0.1564  0.1831
12122TIP3    H157857   0.417   5.120   5.424  0.3235  0.4730  0.8959
12122TIP3    H257858   0.364   5.022   5.527  0.6091  0.3440  0.9196
12123TIP3   OH257859   5.470   4.228  17.003  0.8495  0.4226 -0.0310
12123TIP3    H157860   5.563   4.206  17.008  0.7260 -0.1929 -0.3441
12123TIP3    H257861   5.429   4.170  17.067  0.5381 -0.1570 -0.7422
12124TIP3   OH257862   4.534   6.052   5.441  0.3333 -0.0001  0.1920
12124TIP3    H157863   4.454   6.080   5.486  0.0023  0.2033 -0.5137
12124TIP3    H257864   4.591   6.129   5.445  0.8327 -0.4120  1.4322
12125TIP3   OH257865   5.107   1.335  10.749 -0.5649  0.5881  0.3495
12125TIP3    H157866   5.124   1.420  10.792 -0.5664  0.7191  0.0908
12125TIP3    H257867   5.188   1.315  10.702 -0.8733  0.8762 -0.3163
12126TIP3   OH257868   6.510   6.718   5.371 -0.2001 -0.1218  0.4184
12126TIP3    H157869   6.509   6.692   5.278 -0.9974  1.5313 -0.0691
12126TIP3    H257870   6.561   6.650   5.414 -0.5873 -1.4221 -1.0866
12127TIP3   OH257871   4.934   6.429  11.096 -0.4637  0.9366 -0.0698
12127TIP3    H157872   5.015   6.456  11.054  1.0880 -1.9272  0.7926
12127TIP3    H257873   4.896   6.366  11.035 -0.3712 -0.0816  0.8934
12128TIP3   OH257874   3.609   2.249   1.973  0.0667  0.5452  0.2910
12128TIP3    H157875   3.650   2.334   1.985  0.4612  0.4114 -0.0861
12128TIP3    H257876   3.657   2.209   1.900 -1.1512  0.6552 -0.6084
12129TIP3   OH257877   4.146   2.096  10.334 -0.1744 -0.6648  0.5262
12129TIP3    H157878   4.232   2.079  10.296 -1.1419  0.3052 -2.4664
12129TIP3    H257879   4.091   2.024  10.301 -0.9376 -0.1439  0.6407
12130TIP3   OH257880   4.252   1.822  16.735 -0.0145 -0.1085  0.1260
12130TIP3    H157881   4.290   1.783  16.814  1.2473  1.6285  0.4282
12130TIP3    H257882   4.324   1.823  16.672 -0.2807  0.9005 -0.1702
12131TIP3   OH257883   1.442   2.383  14.461  0.3572  0.6430 -0.2503
12131TIP3    H157884   1.527   2.339  14.467  0.5157  0.9935  0.1437
12131TIP3    H257885   1.432   2.426  14.546  0.4116  1.7415 -0.7902
12132TIP3   OH257886   5.987   3.776   5.409  0.1109 -0.1828 -0.2027
12132TIP3    H157887   6.025   3.836   5.473  0.5013 -0.4686 -0.1644
12132TIP3    H257888   6.032   3.797   5.327  0.3303 -0.5067 -0.1628
12133TIP3   OH257889   0.638   1.205   6.247  0.2039  0.3387  0.3287
12133TIP3    H157890   0.596   1.289   6.231 -2.0510 -0.8092 -0.2369
12133TIP3    H257891   0.618   1.185   6.338  0.3896  0.2330  0.3462
12134TIP3   OH257892   2.044   5.398  13.908 -0.3815 -0.2590  0.4023
12134TIP3    H157893   2.129   5.374  13.871 -0.4997 -1.2171  0.7301
12134TIP3    H257894   2.057   5.393  14.002 -0.8121 -0.4769  0.4524
12135TIP3   OH257895   3.379   5.434   2.341  0.2201  0.7109 -0.2033
12135TIP3    H157896   3.322   5.489   2.287  1.6226  1.3779 -1.0766
12135TIP3    H257897   3.468   5.453   2.309  0.9855  0.0871  1.4386
12136TIP3   OH257898   5.921   5.994  16.098 -0.0430 -0.5141 -0.4257
12136TIP3    H157899   5.854   6.007  16.165 -1.6976 -1.0175 -1.9018
12136TIP3    H257900   5.978   6.071  16.106 -1.4130  0.4812  0.1880
12137TIP3   OH257901   3.684   5.432   3.394  0.2321 -0.0744 -0.7082
12137TIP3    H157902   3.626   5.357   3.383  0.0141 -0.3814  1.8916
12137TIP3    H257903   3.768   5.393   3.418  0.2167  0.4647  0.2802
12138TIP3   OH257904   4.085   5.423   5.808 -0.2513 -0.0354 -0.3193
12138TIP3    H157905   4.171   5.399   5.773 -0.0998  3.2054 -2.5891
12138TIP3    H257906   4.036   5.340   5.808  2.8687 -2.0796  1.4532
12139TIP3   OH257907   5.256   3.725   1.941 -0.2208 -0.0791 -0.0329
12139TIP3    H157908   5.162   3.736   1.927  0.0315  2.9608 -0.0577
12139TIP3    H257909   5.268   3.742   2.035  0.2958 -0.6208  0.0053
12140TIP3   OH257910   4.858   0.941   2.226 -0.4985  0.4700  0.2047
12140TIP3    H157911   4.893   0.889   2.299  1.9435  0.1589 -1.0979
12140TIP3    H257912   4.764   0.940   2.240 -0.2766 -1.3713  2.1714
12141TIP3   OH257913   4.694   4.355  11.622  0.4254  0.0290  0.3239
12141TIP3    H157914   4.780   4.395  11.609  0.8949 -1.1046 -0.2051
12141TIP3    H257915   4.711   4.261  11.628 -0.9413 -0.4393 -1.8057
12142TIP3   OH257916   3.097   1.772  14.682  0.5636 -0.4130  0.2031
12142TIP3    H157917   3.121   1.845  14.625  0.3566  0.0451  0.6883
12142TIP3    H257918   3.086   1.697  14.623 -1.5530  0.4815 -0.6435
12143TIP3   OH257919   1.980   4.712  14.660 -0.1370  0.0641 -0.3999
12143TIP3    H157920   1.928   4.647  14.613  1.1235 -1.0103 -0.3841
12143TIP3    H257921   1.922   4.787  14.669 -1.7339 -1.1370 -0.1997
12144TIP3   OH257922   2.849   3.973  15.774 -0.2444 -0.4178  0.2098
12144TIP3    H157923   2.759   3.972  15.742 -0.3686  0.6429  0.4774
12144TIP3    H257924   2.891   4.044  15.726  0.1908 -0.3050  0.7413
12145TIP3   OH257925   5.605   1.511  11.643  0.4257 -0.3967  0.0682
12145TIP3    H157926   5.626   1.567  11.718  0.3567 -0.0051 -0.2002
12145TIP3    H257927   5.662   1.435  11.653 -0.3687 -0.8739  1.1241
12146TIP3   OH257928   6.305   3.408  14.297  0.1298  0.3796  0.2024
12146TIP3    H157929   6.294   3.315  14.317 -1.2421  0.1023 -1.5668
12146TIP3    H257930   6.341   3.410  14.209  1.1808  1.5455  0.6268
12147TIP3   OH257931   4.502   4.175   0.523 -1.0338 -0.2977 -0.0483
12147TIP3    H157932   4.504   4.200   0.431  2.1322 -0.6508 -0.2060
12147TIP3    H257933   4.526   4.255   0.570 -1.0727 -0.5060  0.3272
12148TIP3   OH257934   4.347   3.142  16.461 -0.0284  1.0389 -0.3758
12148TIP3    H157935   4.442   3.143  16.462 -0.0210  2.4510 -0.5102
12148TIP3    H257936   4.321   3.146  16.553 -0.0581 -4.2135  0.1321
12149TIP3   OH257937   5.382   2.391  15.094  0.4351 -0.5092  0.1839
12149TIP3    H157938   5.289   2.379  15.114  0.6152  0.8943  2.1462
12149TIP3    H257939   5.383   2.443  15.013 -0.5864  1.4702  1.3669
12150TIP3   OH257940   6.092   3.026   5.554 -0.3868 -0.4184  0.2079
12150TIP3    H157941   6.076   3.064   5.468  1.7946 -1.4824 -0.7407
12150TIP3    H257942   6.013   3.045   5.604 -0.5923  2.7795 -1.0814
12151TIP3   OH257943   0.971   1.624   4.415 -0.1498 -0.5997  0.3447
12151TIP3    H157944   0.991   1.657   4.328  0.0862 -1.8750 -0.1040
12151TIP3    H257945   1.045   1.653   4.469  0.6626 -1.4332 -0.3085
12152TIP3   OH257946   2.634   0.104   6.370 -0.2808 -0.5395  0.2001
12152TIP3    H157947   2.646   0.011   6.353  0.2157 -0.1308 -1.9565
12152TIP3    H257948   2.721   0.136   6.394  0.2897 -0.0869 -2.2238
12153TIP3   OH257949   5.204   2.383   3.822 -0.0494  0.7397  0.3121
12153TIP3    H157950   5.152   2.452   3.864  1.3562 -0.3674  4.3118
12153TIP3    H257951   5.143   2.311   3.810 -0.5838  1.2236  0.0802
12154TIP3   OH257952   0.129   3.737  13.428 -0.0257 -0.1113  0.0008
12154TIP3    H157953   0.141   3.691  13.345  0.0382 -0.1143  0.0110
12154TIP3    H257954   0.057   3.691  13.471  0.0965 -0.2593  0.0492
12155TIP3   OH257955   3.130   4.671   6.389  0.7624  0.1074 -0.7154
12155TIP3    H157956   3.134   4.713   6.474  0.5621  0.4308 -0.8633
12155TIP3    H257957   3.156   4.581   6.405 -0.4351 -0.1422 -0.1109
12156TIP3   OH257958   1.485   5.764  15.542 -0.1085 -0.6482 -0.5258
12156TIP3    H157959   1.524   5.852  15.535 -0.2471 -0.5104  0.3904
12156TIP3    H257960   1.393   5.778  15.520 -0.4546 -0.2860  1.0520
12157TIP3   OH257961   4.161   2.957   4.682  0.3075  0.2307  0.1418
12157TIP3    H157962   4.244   2.967   4.729 -0.5303  0.2338  1.6667
12157TIP3    H257963   4.095   2.947   4.750 -0.8000 -1.1557 -1.0542
12158TIP3   OH257964   6.479   4.704   0.865 -0.7527 -0.0759  0.1405
12158TIP3    H157965   6.423   4.698   0.942  1.3712 -0.1123  1.7829
12158TIP3    H257966   6.568   4.700   0.900  0.3303  1.4078 -2.1903
12159TIP3   OH257967   3.409   6.678   1.908 -0.0498 -0.0808 -0.4402
12159TIP3    H157968   3.498   6.642   1.908  0.8102  1.8360 -1.9227
12159TIP3    H257969   3.364   6.630   1.838 -0.2565 -1.1064  0.3620
12160TIP3   OH257970   2.843   0.548  14.592 -0.2381 -0.0369  0.1697
12160TIP3    H157971   2.805   0.636  14.591 -0.3817 -0.0992  0.0588
12160TIP3    H257972   2.793   0.500  14.525  1.6291  0.5592 -1.7516
12161TIP3   OH257973   6.280   1.478   0.464  0.4108  0.0438  0.0403
12161TIP3    H157974   6.200   1.504   0.508  0.6417 -0.4654  0.7868
12161TIP3    H257975   6.333   1.436   0.533  0.9912 -0.3086 -0.6040
12162TIP3   OH257976   2.438   2.503   1.355 -0.5729  0.0626 -0.2484
12162TIP3    H157977   2.417   2.468   1.442 -0.3578 -3.4576 -1.4411
12162TIP3    H257978   2.367   2.565   1.337  0.5058  2.6411  3.1637
12163TIP3   OH257979   6.294   3.611  16.512  0.1542  0.7458  0.3009
12163TIP3    H157980   6.234   3.666  16.462  0.3991  1.2862  0.5950
12163TIP3    H257981   6.240   3.537  16.542 -0.3493  1.1962  0.5063
12164TIP3   OH257982   0.413   3.308  11.893 -0.0605  0.1115  0.1293
12164TIP3    H157983   0.361   3.341  11.966 -2.5434 -1.1547 -0.9142
12164TIP3    H257984   0.426   3.384  11.837 -0.6653  0.5099  0.5181
12165TIP3   OH257985   2.085   2.101   5.620 -0.2280 -0.1368  0.0742
12165TIP3    H157986   2.059   2.134   5.707 -0.8899 -0.0849 -0.1380
12165TIP3    H257987   2.009   2.117   5.565  0.7048  1.2556 -0.9058
12166TIP3   OH257988   4.850   4.874  13.700  0.0235  0.0518 -0.5887
12166TIP3    H157989   4.833   4.781  13.714  1.4610 -0.3823 -1.5338
12166TIP3    H257990   4.764   4.916  13.711 -0.8881 -1.5147 -1.3440
12167TIP3   OH257991   0.075   1.350   4.581  1.1261 -0.7527 -0.2250
12167TIP3    H157992   0.020   1.320   4.653 -0.1206 -0.4041 -0.9916
12167TIP3    H257993   0.159   1.306   4.595  0.8220 -0.9137  1.2582
12168TIP3   OH257994   1.623   4.689  15.474 -0.3591 -0.4759 -0.2909
12168TIP3    H157995   1.590   4.758  15.416  1.4481  0.3860 -0.3446
12168TIP3    H257996   1.565   4.693  15.551 -1.6242 -0.3932 -1.2118
12169TIP3   OH257997   3.899   3.050  10.187 -0.4344 -0.3396 -0.2929
12169TIP3    H157998   3.833   3.067  10.255 -1.0777 -1.0978 -0.7094
12169TIP3    H257999   3.945   2.972  10.218  0.7591  0.5856  0.3392
12170TIP3   OH258000   6.617   5.336  17.152  0.1516  0.0048 -0.1540
12170TIP3    H158001   6.585   5.353  17.240 -0.9389 -1.3055 -0.2680
12170TIP3    H258002   6.648   5.421  17.121  1.2366  0.3553  1.7287
12171TIP3   OH258003   3.491   4.742  11.489  0.1764 -0.0626  0.0241
12171TIP3    H158004   3.506   4.654  11.455 -0.7261  0.0190 -0.6209
12171TIP3    H258005   3.422   4.778  11.433  0.7054  1.1508  0.1188
12172TIP3   OH258006   3.678   0.442   1.780  0.6887 -0.0224 -0.4456
12172TIP3    H158007   3.672   0.483   1.694 -1.0712  0.3775 -0.1731
12172TIP3    H258008   3.686   0.515   1.841  1.0018 -0.2598 -0.1983
12173TIP3   OH258009   0.062   5.202   0.948  0.5285  0.2592  0.1852
12173TIP3    H158010   0.021   5.239   1.026 -1.9656  1.9957 -1.7787
12173TIP3    H258011   0.008   5.127   0.925  0.5827  0.3953 -0.4235
12174TIP3   OH258012   2.892   3.516  11.550  0.7271 -0.1429 -0.0260
12174TIP3    H158013   2.987   3.512  11.548  0.7182 -0.1816 -1.4864
12174TIP3    H258014   2.872   3.609  11.541  0.6292 -0.1370  0.2525
12175TIP3   OH258015   6.766   3.891   0.807 -0.4680  0.4238 -0.3883
12175TIP3    H158016   6.762   3.985   0.795 -0.8830  0.3356 -0.9767
12175TIP3    H258017   6.791   3.879   0.899 -3.3086  1.0989  0.5761
12176TIP3   OH258018   3.803   1.852  10.674 -0.4200 -0.0647  0.1467
12176TIP3    H158019   3.810   1.781  10.738  1.2200 -1.1532 -1.1586
12176TIP3    H258020   3.875   1.911  10.695  1.0553 -1.1855 -1.5073
12177TIP3   OH258021   4.214   1.359   1.754 -0.4229  0.6849 -0.0697
12177TIP3    H158022   4.202   1.395   1.841  1.1254 -1.4398  1.1321
12177TIP3    H258023   4.160   1.280   1.753  0.2633  0.2067 -0.6825
12178TIP3   OH258024   1.879   6.548  15.867 -0.3189  0.0809 -0.2764
12178TIP3    H158025   1.799   6.522  15.820  0.0313 -2.0961  0.2497
12178TIP3    H258026   1.950   6.511  15.816  0.2088 -0.1659  0.6219
12179TIP3   OH258027   4.859   6.609   6.005 -0.7433  0.5797 -0.8364
12179TIP3    H158028   4.766   6.629   6.001 -0.7569  1.1171  1.0980
12179TIP3    H258029   4.866   6.517   5.978 -1.9574  0.2413 -0.0570
12180TIP3   OH258030   0.145   1.115   3.968 -0.4723  0.3233  0.1722
12180TIP3    H158031   0.144   1.041   3.907  0.9806 -0.2381  0.7838
12180TIP3    H258032   0.177   1.078   4.050  1.5907  1.8329  0.1323
12181TIP3   OH258033   6.340   4.254  11.811  0.2697  0.0509  0.2144
12181TIP3    H158034   6.348   4.161  11.788 -0.2252  0.2097 -0.6224
12181TIP3    H258035   6.427   4.279  11.840  0.5688 -0.5057 -0.1879
12182TIP3   OH258036   2.294   2.661  16.334  0.4471  0.1177 -0.2365
12182TIP3    H158037   2.242   2.659  16.254  0.5861  0.4712 -0.3342
12182TIP3    H258038   2.230   2.678  16.404  0.2751 -0.5309 -0.2269
12183TIP3   OH258039   3.021   2.883   1.778  0.2997 -0.4690  0.9066
12183TIP3    H158040   2.992   2.972   1.756  3.8116  0.8291  0.8717
12183TIP3    H258041   2.941   2.838   1.806 -1.6489  2.6319  0.8130
12184TIP3   OH258042   5.255   1.843  15.552  0.0492  0.6462  0.3652
12184TIP3    H158043   5.254   1.752  15.522 -1.9198 -0.1323  2.5016
12184TIP3    H258044   5.332   1.881  15.510  0.4289 -1.7376 -1.3015
12185TIP3   OH258045   0.043   5.234  13.428 -0.3755 -0.3587 -0.0403
12185TIP3    H158046  -0.042   5.200  13.458 -0.9754  1.4856  0.5052
12185TIP3    H258047   0.021   5.285  13.351  0.6074 -1.7284 -1.2756
12186TIP3   OH258048   6.494   0.587   3.694 -0.4731 -0.1321  0.8854
12186TIP3    H158049   6.467   0.645   3.765 -0.2726 -0.0455  0.8914
12186TIP3    H258050   6.544   0.642   3.635 -2.4533  0.3342 -0.4683
12187TIP3   OH258051   3.692   3.501  15.252 -0.0696 -0.1349  0.0298
12187TIP3    H158052   3.738   3.428  15.211  2.2316  1.7227 -0.9510
12187TIP3    H258053   3.761   3.564  15.274 -2.0375  2.5135 -0.7668
12188TIP3   OH258054   6.735   0.153   4.038 -0.2244  0.0044  0.2368
12188TIP3    H158055   6.668   0.155   4.106 -1.0760  0.6895 -0.5913
12188TIP3    H258056   6.688   0.125   3.959  0.5686  0.0399 -0.2572
12189TIP3   OH258057   0.328   1.479  13.990 -0.2810  0.7197 -0.1770
12189TIP3    H158058   0.339   1.502  13.898  0.5533  0.6375 -0.1076
12189TIP3    H258059   0.234   1.487  14.006 -0.9040 -2.0025 -1.7604
12190TIP3   OH258060   3.379   4.691   1.149 -0.1712  0.0074 -0.1934
12190TIP3    H158061   3.326   4.619   1.182  1.6766 -1.1449  0.4150
12190TIP3    H258062   3.403   4.740   1.227  2.4002 -1.4655  0.0477
12191TIP3   OH258063   0.685   3.274   3.135  0.0763  0.3918  0.3711
12191TIP3    H158064   0.615   3.293   3.197 -0.3259  3.2783 -0.8280
12191TIP3    H258065   0.639   3.259   3.052  0.7737 -0.5497  0.1360
12192TIP3   OH258066   5.118   5.615  12.594 -0.2747  0.1991 -0.0771
12192TIP3    H158067   5.202   5.587  12.632  0.9099  2.0692 -1.1770
12192TIP3    H258068   5.061   5.538  12.603  1.6444 -1.2499  0.4025
12193TIP3   OH258069   0.914   2.936   3.494  0.4750 -0.6695  0.1259
12193TIP3    H158070   0.976   2.942   3.567  1.0984 -0.5898 -0.3937
12193TIP3    H258071   0.876   2.849   3.503  0.3224 -0.5439  0.7214
12194TIP3   OH258072   6.181   0.454  13.823 -0.3431 -0.4635  0.2462
12194TIP3    H158073   6.154   0.410  13.904 -0.5165 -1.0567 -0.1299
12194TIP3    H258074   6.276   0.467  13.834 -0.6592  1.2755  1.3960
12195TIP3   OH258075   0.771   5.145   5.928  0.3359 -0.0973 -0.0466
12195TIP3    H158076   0.719   5.065   5.936 -0.4527  0.3634 -0.5186
12195TIP3    H258077   0.781   5.157   5.833  1.8538 -0.5240  0.0275
12196TIP3   OH258078   0.887   5.817  12.903 -0.9496 -0.4549 -0.1637
12196TIP3    H158079   0.801   5.844  12.871  0.1509  2.3188 -1.0541
12196TIP3    H258080   0.895   5.860  12.988  0.1912  0.8291 -0.8712
12197TIP3   OH258081   5.096   0.486  16.570 -0.0307 -0.2167  0.6261
12197TIP3    H158082   5.114   0.406  16.619  0.0248 -0.0183  0.9308
12197TIP3    H258083   5.114   0.557  16.632  1.0515  0.0708  0.0008
12198TIP3   OH258084   0.138   0.595   1.769  0.3333  0.3676 -0.1284
12198TIP3    H158085   0.168   0.505   1.782  0.3555  0.3868 -0.0493
12198TIP3    H258086   0.057   0.585   1.718  1.7083  0.4371 -2.4242
12199TIP3   OH258087   5.806   5.992  17.107 -0.2977  0.2571  0.0807
12199TIP3    H158088   5.802   5.935  17.184 -0.6887 -1.2085 -0.9979
12199TIP3    H258089   5.856   6.068  17.137 -0.4111 -0.2901  1.7694
12200TIP3   OH258090   3.725   4.733   2.480 -0.1716  0.5337 -0.1138
12200TIP3    H158091   3.695   4.642   2.476  1.5253 -0.0917  0.6573
12200TIP3    H258092   3.648   4.784   2.453 -1.0719 -1.1229 -0.8561
12201TIP3   OH258093   6.077   3.322   0.127 -0.2580 -0.2116  0.0133
12201TIP3    H158094   6.115   3.289   0.208 -0.5706 -2.7139 -0.7861
12201TIP3    H258095   6.101   3.415   0.126 -1.0460  0.1815  3.3951
12202TIP3   OH258096   1.466   0.752  12.207  0.1270  0.0369  0.3092
12202TIP3    H158097   1.429   0.791  12.129  0.6173  0.1544  0.1343
12202TIP3    H258098   1.420   0.795  12.280 -0.1801  0.0738  0.0938
12203TIP3   OH258099   1.155   3.475   5.662  0.5284  0.1149  0.2526
12203TIP3    H158100   1.212   3.531   5.714  0.8405 -0.7027  0.8139
12203TIP3    H258101   1.204   3.461   5.581 -0.0697  1.5956 -0.3974
12204TIP3   OH258102   1.262   3.256  15.427 -0.0167  0.3752 -0.1119
12204TIP3    H158103   1.232   3.275  15.516 -0.7843  2.6791 -0.7935
12204TIP3    H258104   1.348   3.214  15.439 -0.2474  0.3503  1.7125
12205TIP3   OH258105   2.471   6.485   2.419 -0.2398 -0.3559  0.3054
12205TIP3    H158106   2.386   6.443   2.402 -0.7753  0.4818  0.8262
12205TIP3    H258107   2.475   6.558   2.357 -0.5407  0.4452  1.1971
12206TIP3   OH258108   1.481   0.853   4.365  0.0332  0.2063  0.2262
12206TIP3    H158109   1.512   0.763   4.372  0.1354  0.2227  0.0054
12206TIP3    H258110   1.445   0.873   4.451  0.2438  0.0413  0.3532
12207TIP3   OH258111   3.208   4.370  12.368 -0.3494  0.0866 -0.7366
12207TIP3    H158112   3.282   4.429  12.381 -0.3459 -0.1812  0.5602
12207TIP3    H258113   3.134   4.415  12.408 -0.8657  0.2489 -1.8255
12208TIP3   OH258114   6.470   4.295  16.096  0.6367  0.9793 -0.9520
12208TIP3    H158115   6.507   4.264  16.179  1.1509  3.3026 -0.2176
12208TIP3    H258116   6.391   4.343  16.122  0.9155  1.9028 -1.7443
12209TIP3   OH258117   2.877   2.636   0.724  0.0400  0.0043  0.2644
12209TIP3    H158118   2.968   2.636   0.752  1.3203 -0.9701 -3.4381
12209TIP3    H258119   2.868   2.716   0.671 -1.3217  0.1319  0.6371
12210TIP3   OH258120   6.551   5.798   1.741 -0.1485  0.5096 -0.2034
12210TIP3    H158121   6.544   5.879   1.690  0.3045  0.3512 -0.5165
12210TIP3    H258122   6.512   5.820   1.825  0.0353  1.0774 -0.2628
12211TIP3   OH258123   4.510   1.898  16.575  0.3668  0.2045 -0.2433
12211TIP3    H158124   4.587   1.952  16.557  0.7658  0.1146  1.1568
12211TIP3    H258125   4.542   1.809  16.579 -0.1476 -0.0696 -1.6100
12212TIP3   OH258126   5.345   1.468  15.284 -0.4707 -0.0254 -0.1965
12212TIP3    H158127   5.364   1.509  15.200 -4.4198  1.6978 -0.4656
12212TIP3    H258128   5.277   1.403  15.264 -1.7497  0.6588  1.6513
12213TIP3   OH258129   6.591   2.502  11.490 -0.4438 -0.6893  0.3890
12213TIP3    H158130   6.515   2.447  11.510 -0.2804 -0.2235  2.5047
12213TIP3    H258131   6.574   2.583  11.537  1.0148 -0.2820  0.2412
12214TIP3   OH258132   3.623   4.754   0.251  0.4857 -0.1358 -0.5253
12214TIP3    H158133   3.596   4.752   0.159 -0.4924 -1.3937 -0.2306
12214TIP3    H258134   3.692   4.688   0.257  0.6610  0.0581 -0.3848
12215TIP3   OH258135   5.557   3.867   1.922 -0.2848 -0.3402  0.4815
12215TIP3    H158136   5.516   3.787   1.955  0.9394 -1.3303 -0.3240
12215TIP3    H258137   5.635   3.837   1.877  0.0929  1.3114 -0.0214
12216TIP3   OH258138   6.768   4.761   0.116 -0.3288  0.2948 -0.0751
12216TIP3    H158139   6.735   4.780   0.028  0.8938  0.2660 -0.5715
12216TIP3    H258140   6.799   4.671   0.110 -2.8194 -0.7379  1.2341
12217TIP3   OH258141   6.195   3.833  12.865 -0.3640  0.9033 -0.3199
12217TIP3    H158142   6.242   3.773  12.807 -0.5808 -0.9761  1.3326
12217TIP3    H258143   6.243   3.916  12.858  1.3668 -0.0936 -0.9523
12218TIP3   OH258144   1.858   6.295  15.649  0.8469 -0.2343 -0.4968
12218TIP3    H158145   1.948   6.270  15.671  1.3895  1.6971 -0.3660
12218TIP3    H258146   1.862   6.319  15.557  0.8710  1.4469 -0.0857
12219TIP3   OH258147   3.151   1.037  13.382  0.7926  0.6411 -0.0878
12219TIP3    H158148   3.155   1.133  13.385 -3.7127  1.1752 -2.0323
12219TIP3    H258149   3.064   1.016  13.419  0.4490 -2.4046 -2.2342
12220TIP3   OH258150   2.023   4.767  11.481  0.9240  0.6564 -0.3474
12220TIP3    H158151   2.101   4.711  11.489  0.3785 -0.0280  0.3580
12220TIP3    H258152   2.026   4.824  11.558 -0.3467 -0.7969  0.8485
12221TIP3   OH258153   2.533   4.515   2.448 -0.5247  0.1473 -0.2345
12221TIP3    H158154   2.466   4.460   2.408  0.2270 -0.7151 -0.3534
12221TIP3    H258155   2.591   4.538   2.376 -1.2007  1.7064 -0.3227
12222TIP3   OH258156   1.031   0.150  12.384 -0.4509 -0.5522  0.1713
12222TIP3    H158157   0.999   0.156  12.474 -0.3875  0.4856  0.1370
12222TIP3    H258158   1.127   0.148  12.394 -0.4587 -2.8059  0.2290
12223TIP3   OH258159   0.854   1.036   4.360 -0.2238 -0.5637 -0.0316
12223TIP3    H158160   0.874   0.945   4.381  1.3424 -0.4065 -0.6708
12223TIP3    H258161   0.808   1.032   4.276  2.5603 -0.6973 -1.7116
12224TIP3   OH258162   6.111   6.384  13.111  0.6023  0.1510 -0.3943
12224TIP3    H158163   6.038   6.323  13.119 -1.3836  2.4529  0.5710
12224TIP3    H258164   6.086   6.440  13.037  0.2850  2.2147  1.1749
12225TIP3   OH258165   5.905   6.036   5.450  0.3248 -0.1749  0.2298
12225TIP3    H158166   5.981   6.085   5.480 -0.6689  2.1153 -0.6450
12225TIP3    H258167   5.870   6.089   5.378 -1.5096 -1.6440 -0.0542
12226TIP3   OH258168   1.573   2.959  15.333 -0.6116 -0.0126 -0.5972
12226TIP3    H158169   1.662   2.984  15.357  0.0371 -1.5932 -1.2424
12226TIP3    H258170   1.568   2.866  15.352 -2.3380  0.1481 -0.0409
12227TIP3   OH258171   2.425   0.548   6.813 -1.1252  0.3550  0.0576
12227TIP3    H158172   2.453   0.636   6.836 -0.4557  0.5037 -1.2102
12227TIP3    H258173   2.431   0.545   6.717  0.2491 -1.5004  0.1317
12228TIP3   OH258174   5.905   0.427   1.089 -0.4807  0.1352  0.1144
12228TIP3    H158175   5.855   0.433   1.007  0.4901  0.9648 -0.4552
12228TIP3    H258176   5.954   0.509   1.092 -0.6033  0.1738  1.6167
12229TIP3   OH258177   5.720   6.068  14.221  0.2985 -0.3438  0.2338
12229TIP3    H158178   5.778   6.103  14.154 -0.3475  0.0674 -0.1149
12229TIP3    H258179   5.747   6.112  14.302  1.9706 -1.8186  0.5444
12230TIP3   OH258180   0.766   0.426  11.709 -0.1944 -0.1083  0.1459
12230TIP3    H158181   0.792   0.353  11.654 -0.3143  1.4515 -2.1220
12230TIP3    H258182   0.848   0.464  11.741 -0.1216 -0.9404  0.9872
12231TIP3   OH258183   6.549   2.255   1.220  0.4682 -0.1646  0.0683
12231TIP3    H158184   6.636   2.283   1.250  0.1438  0.4554  0.4549
12231TIP3    H258185   6.492   2.267   1.296  0.1853 -1.2970  0.0417
12232TIP3   OH258186   5.016   0.019  13.444  0.0188 -0.2634  0.1308
12232TIP3    H158187   5.005  -0.056  13.503  1.6040  1.2561  2.5259
12232TIP3    H258188   5.110   0.028  13.432 -0.1334  1.2574 -0.2169
12233TIP3   OH258189   0.193   0.711   2.604 -0.0053  0.2898  0.2354
12233TIP3    H158190   0.098   0.703   2.609 -0.1592  1.8878  0.4008
12233TIP3    H258191   0.222   0.706   2.695  0.0150  0.3576  0.2326
12234TIP3   OH258192   2.942   0.109   1.477  0.5942  0.0380 -0.0819
12234TIP3    H158193   3.002   0.184   1.474  0.1492  0.5331  1.8828
12234TIP3    H258194   2.877   0.128   1.409 -0.0970  2.0010  1.0614
12235TIP3   OH258195   1.906   2.991   2.669 -0.4116 -0.5480 -0.4367
12235TIP3    H158196   2.001   2.989   2.676 -0.3004  1.7088 -0.4784
12235TIP3    H258197   1.883   3.083   2.681 -2.8712 -1.4040  2.9055
12236TIP3   OH258198   1.289   1.509   1.895 -0.0864  0.1750 -0.0012
12236TIP3    H158199   1.372   1.469   1.868  0.3420  0.7531  0.4434
12236TIP3    H258200   1.223   1.443   1.874  0.4985 -0.3463 -0.2344
12237TIP3   OH258201   1.368   5.263   5.769  0.4940 -0.0340 -0.4516
12237TIP3    H158202   1.316   5.242   5.846 -0.7611  0.3517 -1.1628
12237TIP3    H258203   1.318   5.330   5.723  1.3352 -0.0689 -1.4807
12238TIP3   OH258204   4.152   6.732   2.893 -0.3201 -0.1978  0.7796
12238TIP3    H158205   4.219   6.800   2.893 -0.1176 -0.3769 -0.3161
12238TIP3    H258206   4.173   6.677   2.818 -0.7329 -1.2312  1.3868
12239TIP3   OH258207   3.394   4.562  15.957  0.0843 -0.1746  0.1040
12239TIP3    H158208   3.393   4.475  15.995  1.4006 -0.5980 -0.7716
12239TIP3    H258209   3.320   4.607  15.998  0.8486 -0.8840  2.4197
12240TIP3   OH258210   5.837   4.724  11.820 -0.1419  0.5829 -0.4267
12240TIP3    H158211   5.789   4.719  11.902  0.3183 -1.1213 -0.2379
12240TIP3    H258212   5.830   4.816  11.794 -0.4321  1.1153  1.4237
12241TIP3   OH258213   0.756   2.853   0.866  0.0293  0.0862 -0.4417
12241TIP3    H158214   0.727   2.865   0.776  2.8245  1.0161 -1.3284
12241TIP3    H258215   0.721   2.767   0.891 -1.6329  0.2492 -2.0356
12242TIP3   OH258216   4.512   2.901  16.538  0.3228  0.3746  0.5021
12242TIP3    H158217   4.573   2.914  16.610 -0.7940  1.1649  1.3339
12242TIP3    H258218   4.529   2.973  16.477  0.1731  0.6349  0.7685
12243TIP3   OH258219   3.144   6.152  10.544  1.1050  0.1241 -0.5422
12243TIP3    H158220   3.088   6.163  10.467  1.0955 -0.1791 -0.5782
12243TIP3    H258221   3.174   6.061  10.540  1.8959  0.3864 -0.7214
12244TIP3   OH258222   3.570   4.195  15.491  0.6182  0.2319 -0.0561
12244TIP3    H158223   3.503   4.128  15.502 -0.7160  1.2736 -1.3334
12244TIP3    H258224   3.645   4.164  15.542 -0.5672 -1.3396  0.7979
12245TIP3   OH258225   4.045   4.281  14.860 -0.4697 -0.2318 -0.3138
12245TIP3    H158226   4.076   4.199  14.898 -1.1621 -0.2032  0.3291
12245TIP3    H258227   4.103   4.347  14.897 -0.9366 -0.2432  0.4775
12246TIP3   OH258228   5.192   0.137  15.601  0.3571 -0.8401 -0.2321
12246TIP3    H158229   5.135   0.142  15.524 -1.3905 -1.1277  0.9782
12246TIP3    H258230   5.210   0.228  15.624  0.8498 -0.7520 -0.9325
12247TIP3   OH258231   0.350   5.643  14.184  0.5455 -0.1082  0.2194
12247TIP3    H158232   0.360   5.703  14.257 -0.6877  0.0883  0.2598
12247TIP3    H258233   0.328   5.700  14.109 -0.2431 -0.4511  0.1743
12248TIP3   OH258234   5.794   2.892   4.926 -0.0213 -0.0833 -0.1908
12248TIP3    H158235   5.781   2.958   4.858 -1.1184 -1.0500 -0.9475
12248TIP3    H258236   5.705   2.869   4.954  0.3010 -1.7632 -0.4636
12249TIP3   OH258237   4.443   0.643  15.765 -0.1805  0.1160  0.6546
12249TIP3    H158238   4.403   0.569  15.810 -2.1176  1.1185  0.6639
12249TIP3    H258239   4.428   0.627  15.672 -0.9071  0.6304  0.6720
12250TIP3   OH258240   3.665   3.610  15.712 -0.0216 -0.3114  0.3277
12250TIP3    H158241   3.707   3.663  15.645 -1.0328  0.8649  0.5869
12250TIP3    H258242   3.735   3.555  15.746  1.0514  0.7682 -0.0487
12251TIP3   OH258243   5.911   3.000  14.056  0.3101  0.4875 -0.1976
12251TIP3    H158244   5.911   3.093  14.037 -0.9090  0.2099 -1.8179
12251TIP3    H258245   5.823   2.981  14.089  0.1905 -0.2514 -0.8962
12252TIP3   OH258246   3.248   5.837  13.325  0.0382 -0.2507 -0.1155
12252TIP3    H158247   3.261   5.834  13.230  0.3367  0.5892 -0.1053
12252TIP3    H258248   3.335   5.858  13.360  0.0112 -0.9155  0.3782
12253TIP3   OH258249   6.022   4.111  15.384 -0.1585  0.3100 -0.0687
12253TIP3    H158250   5.977   4.027  15.372  1.5060 -0.7197  0.4423
12253TIP3    H258251   5.961   4.176  15.351 -1.9134 -1.0087  0.4213
12254TIP3   OH258252   0.446   5.002   3.281  0.0735 -0.5549 -0.4394
12254TIP3    H158253   0.540   5.021   3.284 -0.4859  2.8311  3.0323
12254TIP3    H258254   0.409   5.073   3.230 -0.7899 -0.2717  0.5434
12255TIP3   OH258255   4.556   3.998  16.454 -0.6537 -0.3288  0.4898
12255TIP3    H158256   4.467   3.981  16.423 -0.3285 -1.5827  0.1807
12255TIP3    H258257   4.544   4.027  16.545 -1.5233  2.1436 -0.3367
12256TIP3   OH258258   0.588   2.858  11.795  0.1409 -0.2457 -0.0017
12256TIP3    H158259   0.638   2.878  11.874  1.4824  0.0921 -0.9073
12256TIP3    H258260   0.650   2.812  11.739 -0.8978 -0.7858 -0.7291
12257TIP3   OH258261   6.484   0.387   6.095  0.7453 -0.0095  0.1228
12257TIP3    H158262   6.416   0.357   6.156 -0.1397 -0.0581 -0.8582
12257TIP3    H258263   6.523   0.306   6.062 -0.5606 -0.0946 -1.3207
12258TIP3   OH258264   3.942   2.046  13.274  0.3543 -0.2315  0.3141
12258TIP3    H158265   3.966   1.976  13.335  0.3440 -0.1909  0.3643
12258TIP3    H258266   3.882   2.004  13.212 -1.0020  0.1417  1.3355
12259TIP3   OH258267   1.088   4.987   2.551 -0.0717 -0.0551  0.2430
12259TIP3    H158268   1.104   4.925   2.622  0.6621  1.2264  1.2263
12259TIP3    H258269   1.171   4.992   2.503 -0.9026 -1.8859 -1.5840
12260TIP3   OH258270   5.603   3.088  17.107  0.0834  0.4481  0.3696
12260TIP3    H158271   5.613   3.154  17.038 -0.4389 -0.1448 -0.2991
12260TIP3    H258272   5.677   3.029  17.094  0.5958  0.9320  1.0182
12261TIP3   OH258273   2.810   0.927  11.331 -0.6931  0.2242 -0.1492
12261TIP3    H158274   2.787   0.943  11.240 -3.0801  1.7835  0.6327
12261TIP3    H258275   2.878   0.859  11.327 -2.5522 -1.7181 -2.9512
12262TIP3   OH258276   5.084   6.215  12.542 -0.3489 -0.1032  0.4071
12262TIP3    H158277   5.119   6.126  12.540  0.7024  0.2570  1.5730
12262TIP3    H258278   5.138   6.264  12.480 -2.2441 -0.6514 -1.8674
12263TIP3   OH258279   0.700   2.645   2.618 -0.1302  0.3595 -0.4169
12263TIP3    H158280   0.616   2.604   2.641 -0.9592  1.5204 -1.2151
12263TIP3    H258281   0.692   2.663   2.524  1.5883 -0.7544 -0.8235
12264TIP3   OH258282   4.497   5.790   4.098 -0.2581 -0.0692 -0.0725
12264TIP3    H158283   4.485   5.871   4.049 -2.6349 -0.0461  0.4026
12264TIP3    H258284   4.470   5.810   4.187 -2.4901 -1.6802 -0.2824
12265TIP3   OH258285   6.359   6.502  13.399 -0.4605 -0.0249  0.0500
12265TIP3    H158286   6.341   6.412  13.373  0.1466 -0.1341 -0.0202
12265TIP3    H258287   6.386   6.545  13.318 -0.4826  0.1455  0.1329
12266TIP3   OH258288   4.080   0.373   0.645  0.2381  0.3122 -0.2476
12266TIP3    H158289   4.002   0.405   0.599  0.0137 -0.5033 -0.4563
12266TIP3    H258290   4.141   0.351   0.574  0.4076  0.3378 -0.1089
12267TIP3   OH258291   1.330   1.352   0.089  0.8719  0.0666 -0.1086
12267TIP3    H158292   1.359   1.440   0.065  0.7709  0.6395  1.7417
12267TIP3    H258293   1.249   1.365   0.138  0.5045 -1.1257 -0.3556
12268TIP3   OH258294   5.977   5.195   0.991 -0.1814  0.1147  0.5704
12268TIP3    H158295   5.913   5.262   1.015  3.0764  3.8246 -0.1127
12268TIP3    H258296   5.999   5.215   0.900  1.4320 -1.4630  0.5739
12269TIP3   OH258297   0.704   2.413   0.539 -0.0362  0.0351  0.7319
12269TIP3    H158298   0.798   2.398   0.553  0.0357 -0.4492 -0.1453
12269TIP3    H258299   0.690   2.387   0.448 -1.0777 -0.1519  0.9390
12270TIP3   OH258300   5.963   1.017   5.465 -0.1074 -0.1879  0.1833
12270TIP3    H158301   5.884   1.055   5.425  0.7498  0.1954 -1.2023
12270TIP3    H258302   5.983   1.076   5.538 -0.7078  0.0867  0.1378
12271TIP3   OH258303   1.572   3.725   1.299  0.2198 -0.3074  0.6430
12271TIP3    H158304   1.502   3.660   1.290 -0.0439 -0.1265  1.2892
12271TIP3    H258305   1.633   3.685   1.361  0.6063 -0.3880  0.2171
12272TIP3   OH258306   3.452   5.521   6.349  0.3956  0.7446  0.1012
12272TIP3    H158307   3.480   5.604   6.311  1.3002  0.4115  0.0156
12272TIP3    H258308   3.470   5.530   6.443  0.1060  0.7861  0.1570
12273TIP3   OH258309   5.906   6.801  11.773  0.1457  0.0787 -0.0732
12273TIP3    H158310   5.816   6.833  11.766 -0.6873 -1.3731  2.6507
12273TIP3    H258311   5.917   6.743  11.697 -3.1448 -3.7412  1.9700
12274TIP3   OH258312   0.430   1.210  14.066  0.2968  0.0445 -0.0192
12274TIP3    H158313   0.413   1.286  14.010  0.8628  0.6843  0.6547
12274TIP3    H258314   0.430   1.246  14.155 -0.0898 -0.8684  0.3593
12275TIP3   OH258315   2.234   2.689   4.979 -0.1531  0.1437  0.0306
12275TIP3    H158316   2.224   2.665   5.071 -3.1295  0.9665  0.0268
12275TIP3    H258317   2.294   2.764   4.980 -2.5465  2.2023  1.7569
12276TIP3   OH258318   6.263   2.042  16.004 -0.2096  0.3675  0.6179
12276TIP3    H158319   6.347   2.028  16.049 -1.3912 -2.4996  2.1856
12276TIP3    H258320   6.271   1.991  15.923 -0.5452 -0.2183  0.9477
12277TIP3   OH258321   1.252   4.876   4.538  0.0895  0.4545 -0.1336
12277TIP3    H158322   1.200   4.877   4.458 -1.4447 -0.7308  0.7919
12277TIP3    H258323   1.262   4.783   4.559  0.7664  0.7273  0.8524
12278TIP3   OH258324   3.085   3.779  12.465  0.2527  1.0150 -0.2432
12278TIP3    H158325   2.998   3.744  12.486  0.8709 -1.1352 -0.9838
12278TIP3    H258326   3.101   3.846  12.531 -1.6021  0.8438  0.4329
12279TIP3   OH258327   3.020   1.532   6.184  0.2106 -0.3871  0.5152
12279TIP3    H158328   2.991   1.550   6.274  2.6775 -0.5751  1.4399
12279TIP3    H258329   3.086   1.464   6.194  0.5435 -0.4088 -1.4743
12280TIP3   OH258330   5.717   4.715   0.807  0.2393  0.3249 -0.6290
12280TIP3    H158331   5.688   4.796   0.764  1.1547  0.5831 -0.7814
12280TIP3    H258332   5.671   4.716   0.891 -0.0745  0.7966 -0.7965
12281TIP3   OH258333   1.186   0.002  14.898  0.4863 -0.0344  0.0931
12281TIP3    H158334   1.111  -0.053  14.875  1.1958 -0.9415 -0.1330
12281TIP3    H258335   1.155   0.091  14.887 -0.6492 -0.3908  0.2958
12282TIP3   OH258336   6.384   1.965  12.727  0.2186  0.3476  0.0306
12282TIP3    H158337   6.294   1.936  12.711  0.9480 -2.6841  0.7914
12282TIP3    H258338   6.377   2.023  12.803 -1.2288  1.3332 -0.8131
12283TIP3   OH258339   2.572   6.340   3.843  0.3709 -0.1542 -0.4380
12283TIP3    H158340   2.517   6.370   3.915  1.5195 -1.5485  1.0748
12283TIP3    H258341   2.585   6.247   3.859  3.1470  0.1103 -0.7372
12284TIP3   OH258342   4.535   1.022   2.945 -1.0484 -0.1008  0.6012
12284TIP3    H158343   4.459   1.073   2.974 -1.2270 -0.8592  1.5104
12284TIP3    H258344   4.512   0.931   2.963 -0.4389 -0.4594 -0.3351
12285TIP3   OH258345   6.821   6.795   4.310  0.5899 -0.2214  0.5825
12285TIP3    H158346   6.909   6.768   4.335 -0.0573 -2.8388  0.3538
12285TIP3    H258347   6.801   6.743   4.232 -0.2727  2.1520 -0.9030
12286TIP3   OH258348   2.575   1.900  13.449 -0.3687 -0.6206  0.0071
12286TIP3    H158349   2.543   1.907  13.538 -1.4450 -1.8237 -0.2670
12286TIP3    H258350   2.667   1.872  13.459  0.4547  2.0543  0.7625
12287TIP3   OH258351   1.185   4.679  16.214  0.1847  0.5534 -0.0379
12287TIP3    H158352   1.191   4.705  16.306 -0.5000  2.6902 -0.5605
12287TIP3    H258353   1.255   4.727  16.171  0.4002 -0.3199 -0.6843
12288TIP3   OH258354   6.245   0.030  13.389  0.2115 -0.2104  1.0289
12288TIP3    H158355   6.217  -0.001  13.303  1.1101 -2.3154  1.4144
12288TIP3    H258356   6.244   0.125  13.383  0.8126 -0.3063 -1.4903
12289TIP3   OH258357   6.378   0.782  14.676 -1.1972  0.2418  0.0057
12289TIP3    H158358   6.386   0.739  14.761  0.1084  1.4386  0.5241
12289TIP3    H258359   6.459   0.832  14.666 -0.9123 -0.5838 -2.3816
12290TIP3   OH258360   1.787   1.598   1.167 -0.2997 -0.4481 -0.4590
12290TIP3    H158361   1.692   1.587   1.173 -0.3507 -0.5198 -1.2394
12290TIP3    H258362   1.819   1.511   1.140 -0.1573 -0.0758 -1.5249
12291TIP3   OH258363   2.335   1.915   1.036  0.0595  0.2661  0.1811
12291TIP3    H158364   2.291   1.858   1.098 -1.7446  0.2781 -1.0053
12291TIP3    H258365   2.381   1.856   0.977 -0.5929  0.1033 -0.1703
12292TIP3   OH258366   4.324   1.339  12.776 -0.4464 -0.3135  0.6047
12292TIP3    H158367   4.236   1.309  12.798 -0.9095  1.5896  1.5666
12292TIP3    H258368   4.364   1.360  12.860 -0.2801  1.9270  0.0207
12293TIP3   OH258369   6.023   4.518   3.063  0.0801  0.7420  0.3524
12293TIP3    H158370   5.975   4.601   3.063  2.2816  2.1268 -0.1146
12293TIP3    H258371   6.033   4.496   2.971  0.7672  0.7826  0.4091
12294TIP3   OH258372   2.376   4.597   1.535  0.2482  0.2449 -0.0602
12294TIP3    H158373   2.344   4.613   1.624 -0.3935  3.3322 -0.7024
12294TIP3    H258374   2.466   4.629   1.536  0.5615 -0.6235 -0.2931
12295TIP3   OH258375   6.105   2.389  15.178  0.6924  0.6571 -0.4015
12295TIP3    H158376   6.028   2.380  15.233  0.5659 -1.0970 -0.8173
12295TIP3    H258377   6.121   2.484  15.174  0.6254  0.8656  2.4752
12296TIP3   OH258378   4.960   6.555  11.381 -0.2721 -0.4929  0.3638
12296TIP3    H158379   4.899   6.627  11.394  3.6802  3.2785  0.3984
12296TIP3    H258380   4.973   6.550  11.286  0.2713 -0.3634  0.4246
12297TIP3   OH258381   6.457   0.716  13.502  0.0319 -0.0787  0.1154
12297TIP3    H158382   6.398   0.768  13.557 -0.0167  0.5874 -0.5685
12297TIP3    H258383   6.543   0.729  13.541 -0.1638 -0.5212  0.7155
12298TIP3   OH258384   3.971   2.398  15.074 -0.0700 -0.4388 -0.3912
12298TIP3    H158385   3.920   2.471  15.110 -0.1040 -0.3459 -0.6290
12298TIP3    H258386   3.907   2.347  15.025 -0.8632 -2.5501  2.5404
12299TIP3   OH258387   5.323   3.843   3.516  0.0986  0.3189  0.1416
12299TIP3    H158388   5.258   3.846   3.586  0.5679  1.2855  0.5616
12299TIP3    H258389   5.282   3.890   3.443 -1.0734 -2.1312 -0.8882
12300TIP3   OH258390   2.030   0.112  10.699 -0.0564  0.6482 -0.1194
12300TIP3    H158391   2.009   0.045  10.634 -1.5264  2.1939 -1.2992
12300TIP3    H258392   1.981   0.189  10.672  1.5436  2.2261  1.2309
12301TIP3   OH258393   4.782   1.636   3.832 -0.0106 -0.0747 -0.7522
12301TIP3    H158394   4.747   1.622   3.920 -0.5816  1.0172 -0.7999
12301TIP3    H258395   4.708   1.666   3.780  0.9283  2.3160 -0.8496
12302TIP3   OH258396   4.301   0.569  16.217  0.2878 -0.3505 -0.4445
12302TIP3    H158397   4.339   0.601  16.299 -0.3377 -2.9380  0.9662
12302TIP3    H258398   4.214   0.609  16.214  0.3941 -0.0735  0.0483
12303TIP3   OH258399   3.626   4.690   2.035  0.1561  0.1632  0.4621
12303TIP3    H158400   3.701   4.630   2.038  0.0780 -0.0638 -1.1999
12303TIP3    H258401   3.644   4.754   2.103  1.4666 -0.3446  0.6306
12304TIP3   OH258402   1.165   1.151   3.188 -0.0486  0.0902 -0.8269
12304TIP3    H158403   1.125   1.078   3.236  2.6767 -1.7814 -1.1628
12304TIP3    H258404   1.182   1.116   3.101  0.8613  1.3293 -1.1756
12305TIP3   OH258405   1.530   5.756  15.983  0.3293  0.5028 -0.3944
12305TIP3    H158406   1.539   5.674  15.933  0.6771  0.6428 -0.5616
12305TIP3    H258407   1.514   5.727  16.073  0.3818  0.2485 -0.4644
12306TIP3   OH258408   1.171   0.221  14.119  0.2125  0.2153 -0.8349
12306TIP3    H158409   1.169   0.244  14.026 -0.8228  0.5211 -0.7526
12306TIP3    H258410   1.079   0.225  14.146  0.5372  0.4301  0.2765
12307TIP3   OH258411   0.248   2.141   3.464 -0.4122 -0.8156  1.0084
12307TIP3    H158412   0.231   2.154   3.558  0.5558  1.6090  0.9111
12307TIP3    H258413   0.214   2.221   3.423 -1.6940 -2.2516 -0.8751
12308TIP3   OH258414   5.181   5.192  16.345 -0.0339  0.1493 -0.8311
12308TIP3    H158415   5.224   5.150  16.271 -0.6219 -0.6656 -0.7205
12308TIP3    H258416   5.213   5.146  16.422 -0.6957 -0.1168 -0.7093
12309TIP3   OH258417   1.236   3.351   6.165 -0.4771 -0.2434  0.2720
12309TIP3    H158418   1.201   3.301   6.091  0.2478 -0.3948  0.0212
12309TIP3    H258419   1.202   3.305   6.243 -0.0651 -0.9525  0.0426
12310TIP3   OH258420   1.002   6.443   4.296  0.2306 -0.3296 -0.5810
12310TIP3    H158421   1.010   6.512   4.230 -0.7225  0.9364  0.5911
12310TIP3    H258422   0.912   6.449   4.327  0.8123 -0.4796  1.2549
12311TIP3   OH258423   2.377   1.399  11.524  0.0051  0.0593  0.2897
12311TIP3    H158424   2.433   1.360  11.590  0.1474  2.2535  1.5728
12311TIP3    H258425   2.323   1.327  11.492  1.5864 -1.5420  1.0398
12312TIP3   OH258426   0.634   2.788   5.218 -0.4387  0.2657  0.2502
12312TIP3    H158427   0.647   2.839   5.298 -2.1646  0.9599  0.1380
12312TIP3    H258428   0.621   2.698   5.248  0.0117  0.3321  0.6499
12313TIP3   OH258429   1.556   5.394   2.667 -0.1735  0.5022 -0.7516
12313TIP3    H158430   1.511   5.310   2.674 -1.1279  1.1390  1.9449
12313TIP3    H258431   1.487   5.459   2.678  0.2923  1.8106 -4.2566
12314TIP3   OH258432   2.724   6.369  12.009 -0.2286 -0.0760 -0.3640
12314TIP3    H158433   2.705   6.333  11.922 -0.4831  0.4368 -0.5272
12314TIP3    H258434   2.755   6.294  12.060 -0.5491 -0.4799 -0.7532
12315TIP3   OH258435   0.406   2.181   1.641  0.2775  0.0711 -0.2169
12315TIP3    H158436   0.436   2.096   1.610 -1.0317 -1.1573  1.6408
12315TIP3    H258437   0.316   2.166   1.670  0.3074  1.8645  0.9880
12316TIP3   OH258438   2.174   2.869  13.877 -0.4769  0.0373 -0.5964
12316TIP3    H158439   2.222   2.861  13.795  0.3417 -0.0046 -0.1185
12316TIP3    H258440   2.200   2.792  13.928 -0.1445  0.6158  0.1230
12317TIP3   OH258441   6.525   0.049  12.830  0.4217  0.1677  0.0372
12317TIP3    H158442   6.589   0.108  12.791  1.0266  0.3898  1.3093
12317TIP3    H258443   6.577  -0.019  12.871 -0.0324  1.1083  2.3260
12318TIP3   OH258444   4.072   5.599   2.159 -0.3184  0.1268 -0.2665
12318TIP3    H158445   4.162   5.633   2.154 -0.5563  0.8139 -0.0066
12318TIP3    H258446   4.018   5.677   2.171 -0.7956 -0.4128  1.3999
12319TIP3   OH258447   1.025   5.615   2.667  0.0339  0.1693 -0.5480
12319TIP3    H158448   1.044   5.684   2.730 -1.6883  0.0595  0.1718
12319TIP3    H258449   1.092   5.549   2.682 -1.0221 -0.4396  2.1415
12320TIP3   OH258450   2.747   1.127  13.260 -0.0702 -0.0657  0.2568
12320TIP3    H158451   2.796   1.169  13.189 -0.0068  0.2766  0.5039
12320TIP3    H258452   2.669   1.181  13.271 -0.7793 -0.9044 -0.4935
12321TIP3   OH258453   5.483   5.801  14.544  0.3684  0.5787 -0.3011
12321TIP3    H158454   5.534   5.822  14.622 -0.4837  1.7139 -0.0168
12321TIP3    H258455   5.500   5.875  14.485  0.1555  0.2589 -0.7694
12322TIP3   OH258456   2.329   5.073   2.188  0.7064  0.8055  0.2506
12322TIP3    H158457   2.251   5.120   2.217  0.8325  1.1027  0.1230
12322TIP3    H258458   2.391   5.081   2.261  1.5225  2.7258 -0.5713
12323TIP3   OH258459   3.358   1.379   3.794  0.1030  0.2378  0.1739
12323TIP3    H158460   3.443   1.350   3.760  0.3672  2.2389 -0.9966
12323TIP3    H258461   3.304   1.394   3.717 -1.0853 -0.2712  0.8787
12324TIP3   OH258462   4.816   6.355   5.916  0.0394  1.0259 -0.0069
12324TIP3    H158463   4.879   6.336   5.846  0.7652  1.4702  0.5256
12324TIP3    H258464   4.800   6.270   5.957  0.3721  0.9303 -0.0733
12325TIP3   OH258465   4.951   0.813  13.634 -0.0949 -0.0938  0.2342
12325TIP3    H158466   4.902   0.893  13.610 -1.0118 -0.7910 -0.2920
12325TIP3    H258467   4.886   0.744  13.631  0.9116 -1.0400 -0.3462
12326TIP3   OH258468   0.238   0.365  12.688  0.4143  0.0698  0.7304
12326TIP3    H158469   0.178   0.415  12.743 -1.2282  0.4919 -1.3101
12326TIP3    H258470   0.201   0.276  12.687  1.0344 -0.1945  1.1461
12327TIP3   OH258471   0.541   6.352  11.417  0.0717 -0.2678 -0.3950
12327TIP3    H158472   0.527   6.296  11.340  0.1799 -0.7414 -0.0779
12327TIP3    H258473   0.617   6.405  11.395 -0.0883 -0.1815 -0.7400
12328TIP3   OH258474   2.869   5.027   2.268  0.0750 -0.2451 -0.6243
12328TIP3    H158475   2.874   4.956   2.205 -0.4663 -0.1369 -0.7964
12328TIP3    H258476   2.928   5.094   2.233  1.0860 -0.8467 -0.1305
12329TIP3   OH258477   2.405   2.540  16.546 -0.2866 -0.0546 -0.1139
12329TIP3    H158478   2.374   2.588  16.469 -1.3148  0.2297  0.4654
12329TIP3    H258479   2.353   2.459  16.545 -1.2842  0.5483  1.0194
12330TIP3   OH258480   3.123   5.202   4.100 -0.7886 -0.6622  0.9747
12330TIP3    H158481   3.208   5.202   4.055 -0.6196 -0.1562  1.2893
12330TIP3    H258482   3.068   5.259   4.046 -0.2103  1.0216  2.0790
12331TIP3   OH258483   4.289   5.038   1.831  0.1342  0.2927  0.6268
12331TIP3    H158484   4.223   5.019   1.765 -1.1017  1.3291  1.5053
12331TIP3    H258485   4.301   5.133   1.826 -0.6827  0.5378  2.4752
12332TIP3   OH258486   0.953   4.761  15.067 -0.6512 -0.2649  0.5398
12332TIP3    H158487   1.030   4.783  15.119 -1.0467  0.7098  0.7316
12332TIP3    H258488   0.880   4.768  15.129 -0.8479 -1.8413  0.5362
12333TIP3   OH258489   0.586   2.403  12.604 -0.4278  0.1724  0.5971
12333TIP3    H158490   0.597   2.453  12.523 -0.9095  2.1120  1.6892
12333TIP3    H258491   0.670   2.413  12.650 -1.3745  2.2545  2.0060
12334TIP3   OH258492   1.661   5.093   3.007 -0.3517  0.0476 -0.3191
12334TIP3    H158493   1.647   5.150   2.931 -0.2371 -1.6945 -1.7112
12334TIP3    H258494   1.753   5.105   3.029 -1.4622  4.9954  3.4118
12335TIP3   OH258495   4.759   6.091   5.711  0.1058 -0.1506 -0.2989
12335TIP3    H158496   4.774   6.003   5.744  1.6978  1.0121  2.3517
12335TIP3    H258497   4.837   6.141   5.736 -1.1575  2.2573 -0.8207
12336TIP3   OH258498   6.186   4.370   4.244 -0.2903  0.9358 -0.5265
12336TIP3    H158499   6.148   4.289   4.211  1.3763 -0.1794  0.2195
12336TIP3    H258500   6.213   4.350   4.333  1.2578  1.9381 -0.7360
12337TIP3   OH258501   6.426   6.425   3.310 -0.2144 -0.1703 -0.1664
12337TIP3    H158502   6.359   6.397   3.373  0.4165 -2.8544 -0.5485
12337TIP3    H258503   6.455   6.344   3.269  1.5599  1.1845 -1.7587
12338TIP3   OH258504   1.103   4.672   5.063  0.1503  0.3671 -0.7345
12338TIP3    H158505   1.189   4.711   5.047 -0.1487  1.3661  0.0483
12338TIP3    H258506   1.120   4.578   5.066  1.1323  0.5196 -1.0804
12339TIP3   OH258507   3.107   0.380  11.816 -0.3444  0.5738 -0.0763
12339TIP3    H158508   3.200   0.398  11.826  0.1257 -0.8105 -1.4159
12339TIP3    H258509   3.063   0.451  11.862  1.3673  1.1943  0.6818
12340TIP3   OH258510   4.392   0.099   2.429 -0.2224 -1.1082 -0.7023
12340TIP3    H158511   4.417   0.180   2.385 -1.1828 -0.9018 -0.8922
12340TIP3    H258512   4.298   0.090   2.411 -0.3398 -1.7351  0.1652
12341TIP3   OH258513   5.707   3.620   3.764 -0.0922  0.5939  0.6568
12341TIP3    H158514   5.737   3.535   3.796 -3.4532 -0.8678  0.3719
12341TIP3    H258515   5.720   3.680   3.838  0.0942 -0.7511  1.7412
12342TIP3   OH258516   6.476   6.164  11.506  0.4215  0.3277 -0.2277
12342TIP3    H158517   6.433   6.221  11.570  0.6061 -0.2190  0.4033
12342TIP3    H258518   6.454   6.075  11.534  1.5541  0.0437 -0.1595
12343TIP3   OH258519   3.451   2.399   6.742  0.3084  0.1212 -0.3065
12343TIP3    H158520   3.505   2.346   6.801  1.7918 -1.7479 -3.0951
12343TIP3    H258521   3.455   2.352   6.659 -3.3033  1.5145 -1.4407
12344TIP3   OH258522   3.400   3.648  12.016 -0.1778  0.3114  0.0404
12344TIP3    H158523   3.410   3.569  12.068 -0.0240 -1.1662 -2.1149
12344TIP3    H258524   3.319   3.636  11.967  1.6499 -0.3605 -3.1277
12345TIP3   OH258525   2.050   6.228   2.118 -0.3144 -0.2373 -0.4063
12345TIP3    H158526   2.009   6.145   2.091  0.3791 -0.0090 -2.2279
12345TIP3    H258527   2.032   6.233   2.212 -3.3484 -0.7728 -0.8558
12346TIP3   OH258528   4.325   0.011  16.969  0.1515 -0.0066  0.0568
12346TIP3    H158529   4.250  -0.034  17.008  0.3011 -1.1337 -0.8971
12346TIP3    H258530   4.382   0.032  17.043  0.7280 -2.6457  0.4342
12347TIP3   OH258531   3.882   0.694   3.118  0.2995 -0.2677  0.0021
12347TIP3    H158532   3.835   0.720   3.198 -0.2455 -2.1381  0.3417
12347TIP3    H258533   3.898   0.776   3.072  0.5478  0.8728  1.9817
12348TIP3   OH258534   0.861   3.604   1.918  0.0618 -0.7195 -0.2286
12348TIP3    H158535   0.868   3.643   2.005 -0.6801 -1.0244 -0.0276
12348TIP3    H258536   0.952   3.591   1.891  0.3071 -1.3096  0.8154
12349TIP3   OH258537   0.671   0.736  15.844  0.0718  0.0545 -0.2816
12349TIP3    H158538   0.579   0.718  15.823  0.0445 -0.3648  0.1844
12349TIP3    H258539   0.711   0.649  15.851  0.3785  0.2226  0.0620
12350TIP3   OH258540   3.432   5.070   5.392 -0.2263 -0.6150  0.2421
12350TIP3    H158541   3.488   4.993   5.401 -0.2681 -0.7652 -0.6835
12350TIP3    H258542   3.482   5.142   5.431  0.7950 -0.6631 -0.9187
12351TIP3   OH258543   5.935   6.405   0.668 -0.3333 -0.1342 -0.1632
12351TIP3    H158544   5.967   6.374   0.584  0.3500 -0.3873  0.1807
12351TIP3    H258545   5.916   6.325   0.718  0.5452 -0.0060  0.3946
12352TIP3   OH258546   2.307   3.049  15.042 -0.1859  0.5037 -0.8121
12352TIP3    H158547   2.392   3.041  15.000 -0.1497 -0.0817 -0.6335
12352TIP3    H258548   2.289   3.144  15.043  0.6727  0.6737 -0.4277
12353TIP3   OH258549   3.115   1.908   2.368  0.3617 -0.5745 -0.8287
12353TIP3    H158550   3.053   1.836   2.355  0.9824 -1.0085 -1.5453
12353TIP3    H258551   3.193   1.880   2.320  1.0926 -0.0227  0.0086
12354TIP3   OH258552   1.092   2.480   1.758  0.1309 -0.0378 -0.3344
12354TIP3    H158553   1.187   2.480   1.747  0.1918  1.1674 -0.0238
12354TIP3    H258554   1.077   2.435   1.842  0.6334  1.7121  0.7534
12355TIP3   OH258555   5.313   5.721   2.696  0.5008  0.3657  0.4275
12355TIP3    H158556   5.239   5.749   2.750 -0.2544 -0.2028 -0.2975
12355TIP3    H258557   5.318   5.626   2.709  0.7089  0.3112 -0.0187
12356TIP3   OH258558   0.855   3.885   3.466 -0.0719 -0.4104  0.4132
12356TIP3    H158559   0.875   3.802   3.422  1.8110 -1.5679  3.1545
12356TIP3    H258560   0.809   3.859   3.546 -1.0369  1.3775  0.4927
12357TIP3   OH258561   0.929   1.776  15.338  1.1091  0.1042 -0.0830
12357TIP3    H158562   0.958   1.848  15.395 -0.0627 -0.4203  1.2627
12357TIP3    H258563   0.841   1.803  15.310  1.0744 -0.3443 -0.4093
12358TIP3   OH258564   5.020   0.671   3.605 -0.0096  0.2193  0.2371
12358TIP3    H158565   5.038   0.719   3.524 -1.0521 -0.2787 -0.3099
12358TIP3    H258566   5.104   0.668   3.650  1.1756 -1.4453 -1.9057
12359TIP3   OH258567   3.287   6.370   1.010  0.1968 -0.5793 -0.0136
12359TIP3    H158568   3.229   6.432   1.055  0.3038  1.2145 -2.1742
12359TIP3    H258569   3.249   6.358   0.924  2.5750  0.1102 -1.2659
12360TIP3   OH258570   3.906   3.683   0.382  0.4277  0.2533 -0.2482
12360TIP3    H158571   3.821   3.665   0.342 -0.4173 -1.7632  2.1899
12360TIP3    H258572   3.896   3.770   0.422 -0.9553 -0.4865  1.0771
12361TIP3   OH258573   0.829   2.540  10.972 -0.6366 -0.3821 -0.3411
12361TIP3    H158574   0.807   2.623  10.930  1.2620  1.1316  1.4169
12361TIP3    H258575   0.924   2.545  10.986 -0.9395 -1.2806  2.8652
12362TIP3   OH258576   2.560   6.646  12.098  0.1190 -0.8128 -0.3467
12362TIP3    H158577   2.552   6.609  12.186 -0.2025  0.1584  0.0453
12362TIP3    H258578   2.591   6.573  12.045  0.9493 -1.2557  0.6914
12363TIP3   OH258579   2.760   6.792  12.409 -0.6783  0.4515 -0.3361
12363TIP3    H158580   2.743   6.782  12.503  0.5030 -0.9859 -0.2514
12363TIP3    H258581   2.772   6.703  12.377 -1.6938  0.8690 -2.0053
12364TIP3   OH258582   4.731   0.742   6.219  0.2067  0.7094 -0.1689
12364TIP3    H158583   4.822   0.720   6.237  0.6330  2.9787  0.7107
12364TIP3    H258584   4.693   0.763   6.304 -1.1908 -0.2651 -0.5096
12365TIP3   OH258585   3.055   4.610   2.655 -0.1060  0.1387  0.1802
12365TIP3    H158586   3.110   4.641   2.583 -0.2922 -0.0358 -0.0375
12365TIP3    H258587   3.114   4.556   2.708  0.1800  0.7326  0.4784
12366TIP3   OH258588   2.108   5.689   3.662 -0.2466 -0.2746  0.1332
12366TIP3    H158589   2.019   5.675   3.696  0.3978  0.4621  2.2549
12366TIP3    H258590   2.103   5.774   3.619 -0.3914  0.1501  0.9674
12367TIP3   OH258591   5.462   5.012   6.269  0.0258 -0.3538  0.7502
12367TIP3    H158592   5.541   5.044   6.314  0.1358 -0.9837  1.0141
12367TIP3    H258593   5.404   5.088   6.267  1.5256  0.8711 -1.5837
12368TIP3   OH258594   5.689   5.865  15.986 -0.4172 -0.2575 -0.0606
12368TIP3    H158595   5.772   5.904  15.960  1.0050 -3.1309 -0.2248
12368TIP3    H258596   5.676   5.793  15.924 -2.1311 -0.9558  1.0390
12369TIP3   OH258597   3.428   2.431  14.354 -0.0885 -0.1878  0.3481
12369TIP3    H158598   3.426   2.468  14.442  0.1075  0.0134  0.2705
12369TIP3    H258599   3.371   2.488  14.302 -0.4024 -0.4552  0.4005
12370TIP3   OH258600   2.313   2.024   2.181  0.3116 -0.4791 -0.2783
12370TIP3    H158601   2.338   2.094   2.121  0.5749  0.0945  0.4921
12370TIP3    H258602   2.223   2.045   2.207  0.2299 -0.6765 -0.3958
12371TIP3   OH258603   2.091   1.422   3.416 -0.3384 -0.5016 -0.1867
12371TIP3    H158604   2.160   1.487   3.410 -0.2846 -0.6564 -1.5719
12371TIP3    H258605   2.137   1.340   3.437 -0.3703 -0.1857  1.2007
12372TIP3   OH258606   5.889   0.375  14.650 -0.2582 -0.1914 -0.8251
12372TIP3    H158607   5.941   0.445  14.691 -0.8749  0.9847 -1.9746
12372TIP3    H258608   5.854   0.326  14.724 -1.2313  1.7761  0.1181
12373TIP3   OH258609   2.577   5.890   1.091 -0.2231 -0.0736  0.2222
12373TIP3    H158610   2.522   5.814   1.108 -0.3687 -0.1726 -0.6528
12373TIP3    H258611   2.530   5.938   1.022  1.5939 -1.0650 -1.8337
12374TIP3   OH258612   3.610   3.621  12.299 -0.1388  0.3080 -0.0246
12374TIP3    H158613   3.585   3.714  12.299 -1.7435 -0.0992 -0.9987
12374TIP3    H258614   3.706   3.623  12.298 -0.1343  1.9496  0.4283
12375TIP3   OH258615   6.584   2.581   1.669 -0.0913  0.5202 -0.1930
12375TIP3    H158616   6.645   2.620   1.732 -1.2134 -0.6320  1.7320
12375TIP3    H258617   6.609   2.488   1.666 -0.4355  0.4447 -0.9877
12376TIP3   OH258618   0.123   3.845  15.828 -0.1235  0.1177  0.7686
12376TIP3    H158619   0.085   3.788  15.761  0.1998  0.4569  0.2913
12376TIP3    H258620   0.053   3.907  15.850 -0.2184  0.0288  0.7160
12377TIP3   OH258621   1.566   2.807  11.791 -0.1371  0.1656 -0.0906
12377TIP3    H158622   1.494   2.778  11.847 -0.6225  1.6668  0.0900
12377TIP3    H258623   1.636   2.744  11.809 -1.0225 -0.6859  0.5293
12378TIP3   OH258624   1.882   6.015   2.101  0.0383  0.1701 -0.4904
12378TIP3    H158625   1.868   5.923   2.081  0.4267 -0.1521  0.6190
12378TIP3    H258626   1.804   6.042   2.148  0.0565  0.3203 -0.5458
12379TIP3   OH258627   6.046   3.671   2.701  0.2959  0.4904 -0.2468
12379TIP3    H158628   6.044   3.657   2.795  0.6167  1.4864 -0.0796
12379TIP3    H258629   6.111   3.609   2.668 -1.1304 -1.1569 -0.0710
12380TIP3   OH258630   6.255   2.657   6.309  0.0084 -0.1809 -0.4013
12380TIP3    H158631   6.265   2.576   6.259  2.7691 -0.1187 -0.1069
12380TIP3    H258632   6.309   2.644   6.387 -0.6035  1.4297  0.3401
12381TIP3   OH258633   0.499   4.993   5.153  0.1661  0.3784 -0.3514
12381TIP3    H158634   0.457   5.053   5.091  1.3128 -1.4587 -3.0882
12381TIP3    H258635   0.426   4.952   5.200 -0.7473  1.7753 -0.4912
12382TIP3   OH258636   0.418   1.689  12.381  0.7045 -0.3606  0.5161
12382TIP3    H158637   0.351   1.701  12.448  0.3502 -1.3627  0.3459
12382TIP3    H258638   0.435   1.595  12.379  0.2418 -0.4516 -1.2391
12383TIP3   OH258639   4.821   0.571   0.069 -0.4247 -0.1371  0.2827
12383TIP3    H158640   4.873   0.634   0.019  0.7495 -1.5260 -0.3391
12383TIP3    H258641   4.793   0.619   0.147 -0.0483  1.2950 -0.4306
12384TIP3   OH258642   4.361   4.963   0.779  0.3450 -0.1771  0.4352
12384TIP3    H158643   4.366   5.050   0.818  3.2995  0.6946 -1.5410
12384TIP3    H258644   4.414   4.908   0.837 -1.5962 -0.7829  1.7345
12385TIP3   OH258645   5.866   2.138   3.043 -0.3056  0.2399 -0.2371
12385TIP3    H158646   5.822   2.062   3.080  1.8714 -0.8947  0.2284
12385TIP3    H258647   5.905   2.105   2.961  0.1643  1.0135 -0.3388
12386TIP3   OH258648   0.539   4.384  14.246  0.8989 -0.5172  0.3887
12386TIP3    H158649   0.623   4.406  14.287  0.7720  1.0496 -0.1342
12386TIP3    H258650   0.491   4.336  14.313  1.4160  0.3855  1.4301
12387TIP3   OH258651   1.242   0.835  16.747  0.6812  0.3360 -0.4403
12387TIP3    H158652   1.221   0.864  16.658  1.8870  0.7077 -0.6146
12387TIP3    H258653   1.326   0.876  16.767 -0.3623  1.6686  1.5392
12388TIP3   OH258654   0.352   3.553  11.790 -0.0279 -0.1462  0.5960
12388TIP3    H158655   0.395   3.611  11.727 -1.7549  1.3080  0.6724
12388TIP3    H258656   0.268   3.596  11.808 -1.4127 -2.6978  0.6462
12389TIP3   OH258657   5.859   5.560   5.782 -0.4939  0.0711  0.1423
12389TIP3    H158658   5.848   5.597   5.870 -1.0942  2.2072 -0.7729
12389TIP3    H258659   5.885   5.635   5.728  0.0007 -1.2286 -1.4894
12390TIP3   OH258660   2.773   2.743  13.290 -0.1551 -0.3700 -0.2197
12390TIP3    H158661   2.729   2.801  13.351  0.2899  0.8036 -0.9689
12390TIP3    H258662   2.710   2.674  13.271 -0.9849  0.2925  0.1036
12391TIP3   OH258663   2.304   5.372   2.579 -0.3338 -0.0503  0.6827
12391TIP3    H158664   2.247   5.409   2.647 -0.3562  2.0843 -0.4188
12391TIP3    H258665   2.306   5.438   2.511  1.3921 -1.2244 -0.4835
12392TIP3   OH258666   6.285   2.558   1.310  0.2102  0.3483 -0.0888
12392TIP3    H158667   6.349   2.625   1.331 -0.4653  2.0739 -3.0127
12392TIP3    H258668   6.274   2.563   1.215 -2.4194 -1.5851 -0.0204
12393TIP3   OH258669   1.817   1.012   0.668  0.8061 -0.0854 -0.5262
12393TIP3    H158670   1.906   1.022   0.634  0.9670 -3.3193 -1.3806
12393TIP3    H258671   1.762   1.007   0.590  0.6203 -3.2798 -0.3102
12394TIP3   OH258672   5.933   1.853  12.088  0.0730  0.1761  0.3578
12394TIP3    H158673   6.001   1.907  12.127 -0.7527  0.7749  1.0015
12394TIP3    H258674   5.885   1.912  12.030 -0.8592  0.1593  1.0951
12395TIP3   OH258675   1.362   0.669  17.058 -0.2878  0.1090 -0.2481
12395TIP3    H158676   1.374   0.763  17.043 -1.2343  0.3871  0.6593
12395TIP3    H258677   1.269   0.659  17.076 -0.4014 -1.1726 -1.4109
12396TIP3   OH258678   1.960   6.311   4.453  0.1134  0.1273  0.5330
12396TIP3    H158679   1.936   6.221   4.430  1.1128 -0.5175  1.8330
12396TIP3    H258680   2.055   6.308   4.465  0.0340  1.0952  1.6307
12397TIP3   OH258681   6.230   4.806   1.776 -0.1678  0.0756 -0.1703
12397TIP3    H158682   6.184   4.740   1.723 -2.2851  0.2786  1.3411
12397TIP3    H258683   6.317   4.768   1.789  0.2304 -0.2918 -3.1634
12398TIP3   OH258684   2.701   0.692  12.170 -0.1275 -0.1183 -0.6258
12398TIP3    H158685   2.666   0.710  12.083 -0.1050  0.2214 -0.5667
12398TIP3    H258686   2.657   0.611  12.197 -0.1407 -0.2215 -0.9456
12399TIP3   OH258687   3.225   4.057   5.602  0.0495 -0.0687  0.2883
12399TIP3    H158688   3.170   4.116   5.551  0.6016  1.0718  0.9890
12399TIP3    H258689   3.163   4.000   5.648 -0.4730 -0.2952 -0.6637
12400TIP3   OH258690   3.541   3.284  13.452  0.3958 -0.1102 -0.1380
12400TIP3    H158691   3.472   3.294  13.386  0.0489 -0.6186  0.1422
12400TIP3    H258692   3.609   3.345  13.424 -0.3705  0.7703 -0.1455
12401TIP3   OH258693   5.185   5.946   3.830  0.2092 -0.4224 -0.6224
12401TIP3    H158694   5.163   5.864   3.874  2.3937 -0.8385 -0.1891
12401TIP3    H258695   5.169   6.014   3.896  0.2587 -0.7117 -0.3109
12402TIP3   OH258696   5.494   2.723  16.506 -0.2095  0.6725 -0.4979
12402TIP3    H158697   5.438   2.680  16.570 -0.2028 -0.4861 -1.2514
12402TIP3    H258698   5.520   2.654  16.445  1.8798  1.2099 -0.2927
12403TIP3   OH258699   3.169   5.965  12.359 -0.4860  0.1896  0.2340
12403TIP3    H158700   3.205   5.955  12.447 -1.6996  1.1394  0.8803
12403TIP3    H258701   3.108   5.892  12.350  0.2817 -0.4040 -0.1631
12404TIP3   OH258702   4.149   2.672   0.252  0.0880 -0.3068  0.1043
12404TIP3    H158703   4.150   2.596   0.309  1.1767  0.0353  0.5627
12404TIP3    H258704   4.057   2.699   0.250 -0.4338 -1.9877 -0.5904
12405TIP3   OH258705   4.347   5.001  16.357  0.7015 -0.6877 -0.2559
12405TIP3    H158706   4.426   5.023  16.308  0.5965  1.5661  0.4788
12405TIP3    H258707   4.378   4.984  16.446  0.4849 -0.8786 -0.2164
12406TIP3   OH258708   5.929   1.139   5.905 -0.1696 -0.1725 -0.0916
12406TIP3    H158709   5.913   1.193   5.982  1.6624  2.6756 -1.5095
12406TIP3    H258710   5.922   1.200   5.831  3.1010 -1.5262 -1.7454
12407TIP3   OH258711   0.016   4.265   2.977  0.2756 -0.1400 -0.1186
12407TIP3    H158712   0.014   4.177   2.939  0.8079 -0.1121 -0.2127
12407TIP3    H258713  -0.062   4.308   2.941  1.1812  0.1438 -1.8269
12408TIP3   OH258714   0.480   1.469   6.224  0.1969  0.0029  0.2130
12408TIP3    H158715   0.568   1.506   6.236  0.7212 -0.2149 -2.4091
12408TIP3    H258716   0.429   1.505   6.297  2.1511  1.0840  1.1288
12409TIP3   OH258717   4.515   2.108   2.810 -0.0548  0.4520 -0.3355
12409TIP3    H158718   4.427   2.094   2.845 -0.8491 -0.1268 -2.4383
12409TIP3    H258719   4.555   2.021   2.811  0.3170  0.6239  0.1261
12410TIP3   OH258720   5.059   4.589  11.392  0.3314 -0.2021 -0.5404
12410TIP3    H158721   4.996   4.532  11.346  1.3703  0.1204 -2.4535
12410TIP3    H258722   5.144   4.552  11.371  0.8514 -0.3208  1.6028
12411TIP3   OH258723   0.657   5.963  16.102 -0.8079 -0.7078  0.4731
12411TIP3    H158724   0.726   6.003  16.049 -0.1528 -1.7352  0.5297
12411TIP3    H258725   0.584   5.951  16.041 -0.9916  0.4631  0.4344
12412TIP3   OH258726   5.834   5.587   4.376 -0.3456  0.0674  0.0727
12412TIP3    H158727   5.749   5.544   4.369 -0.0369 -0.4418 -0.6998
12412TIP3    H258728   5.839   5.645   4.300 -0.4441  0.9329  0.7013
12413TIP3   OH258729   3.633   0.784   3.944 -0.2969 -0.1401 -0.3921
12413TIP3    H158730   3.592   0.819   4.023 -1.8513 -0.5619 -0.9713
12413TIP3    H258731   3.560   0.770   3.883  0.8408  0.0054 -1.8416
12414TIP3   OH258732   2.420   3.648   2.003  0.6389  0.0038  0.4248
12414TIP3    H158733   2.350   3.649   1.937 -0.2580 -0.0838  1.3562
12414TIP3    H258734   2.454   3.738   2.003  0.6504  0.0051 -0.1486
12415TIP3   OH258735   3.353   4.060  13.707 -0.4498 -0.2792  0.1560
12415TIP3    H158736   3.302   4.133  13.743  0.0284 -0.6624  1.6722
12415TIP3    H258737   3.338   4.066  13.612 -2.5208  0.1956  0.4522
12416TIP3   OH258738   1.817   5.079   0.360 -0.2898  0.3766  0.0903
12416TIP3    H158739   1.839   5.106   0.449 -1.6358  1.1716  0.2031
12416TIP3    H258740   1.897   5.094   0.310  0.1776  0.8653  0.9578
12417TIP3   OH258741   1.503   0.159   2.673  0.6397  0.7164  0.7722
12417TIP3    H158742   1.459   0.076   2.691  1.1787  0.5377  1.2796
12417TIP3    H258743   1.583   0.134   2.627  0.2114  1.0408 -0.1795
12418TIP3   OH258744   4.245   0.243   3.912 -0.3000 -0.6002  0.8693
12418TIP3    H158745   4.305   0.285   3.973 -0.2624  0.4691  0.1150
12418TIP3    H258746   4.174   0.210   3.967  0.2587 -0.6166  1.6046
12419TIP3   OH258747   6.717   4.775  16.987  0.0894 -0.0924 -0.0273
12419TIP3    H158748   6.660   4.820  17.049  1.1244 -0.0201  0.8922
12419TIP3    H258749   6.663   4.705  16.952 -1.0108  0.8302 -0.2379
12420TIP3   OH258750   0.995   1.344  16.237 -0.3070 -0.0921 -0.3635
12420TIP3    H158751   0.945   1.371  16.314  1.0569  2.4762 -0.2796
12420TIP3    H258752   1.017   1.426  16.193  0.9600 -1.3554 -2.2090
12421TIP3   OH258753   1.391   2.038  16.756  0.8364 -0.7570 -0.1425
12421TIP3    H158754   1.366   2.106  16.819  2.8888 -0.6502  0.6399
12421TIP3    H258755   1.333   2.051  16.682 -1.4054 -0.6201  1.5449
12422TIP3   OH258756   0.425   0.069  17.068  0.4644 -0.0388 -0.1582
12422TIP3    H158757   0.518   0.078  17.047  0.5990 -0.3980  0.2565
12422TIP3    H258758   0.423   0.050  17.162  0.1121 -1.9081 -0.4903
12423TIP3   OH258759   4.494   5.163   1.653  0.2968 -0.0842  0.2953
12423TIP3    H158760   4.537   5.146   1.737  1.0339 -0.0571 -0.0673
12423TIP3    H258761   4.562   5.202   1.598 -0.7401  2.0496  0.3872
12424TIP3   OH258762   4.474   1.512  12.201 -0.1630 -0.1496 -0.1533
12424TIP3    H158763   4.423   1.519  12.120 -0.3018  0.5487 -0.0129
12424TIP3    H258764   4.553   1.466  12.175  0.8484  2.0146 -1.2110
12425TIP3   OH258765   1.256   1.885   3.415  0.3007 -0.0339 -0.1313
12425TIP3    H158766   1.230   1.913   3.327 -0.6767 -1.2502 -0.2484
12425TIP3    H258767   1.260   1.967   3.465 -0.7463  0.5104 -0.8985
12426TIP3   OH258768   1.181   2.542   4.919  0.5439 -0.0459  0.1634
12426TIP3    H158769   1.110   2.509   4.974  1.3213  0.3572  1.4596
12426TIP3    H258770   1.155   2.519   4.830 -0.2102 -1.7609  0.7785
12427TIP3   OH258771   4.015   3.989   6.205  0.3524  0.2590 -0.1229
12427TIP3    H158772   4.080   3.950   6.264  0.2966 -1.0688 -0.9193
12427TIP3    H258773   3.946   3.923   6.197 -0.8863  1.4311  0.2924
12428TIP3   OH258774   4.302   2.840   5.693 -0.0444 -0.4501 -0.3890
12428TIP3    H158775   4.231   2.797   5.742  0.0502  1.0449  1.1443
12428TIP3    H258776   4.259   2.883   5.620 -0.4765 -0.9900 -0.4561
12429TIP3   OH258777   6.468   5.449   6.562  0.2080  0.1765 -0.5743
12429TIP3    H158778   6.474   5.372   6.504  0.6312 -0.7965  0.7280
12429TIP3    H258779   6.477   5.413   6.650 -0.6552  1.6109  0.1262
12430TIP3   OH258780   6.790   3.561  16.170  0.5262  0.3311 -0.1449
12430TIP3    H158781   6.875   3.605  16.163  0.4519  0.3615 -1.0232
12430TIP3    H258782   6.727   3.625  16.135  0.3480 -0.2585 -0.9263
12431TIP3   OH258783   2.889   5.395   3.275 -0.9417  0.6045 -0.1385
12431TIP3    H158784   2.836   5.391   3.195  2.0399 -0.2107 -2.2497
12431TIP3    H258785   2.949   5.467   3.260  1.7719 -1.5116 -0.1655
12432TIP3   OH258786   5.744   5.299  11.790 -0.5907 -0.0719 -0.1616
12432TIP3    H158787   5.835   5.320  11.808 -0.8452  0.5355  0.5003
12432TIP3    H258788   5.725   5.224  11.846  0.0024 -1.3984 -1.6788
12433TIP3   OH258789   0.776   2.896   5.482  0.7470  0.2786 -0.3677
12433TIP3    H158790   0.823   2.940   5.553  0.3600  0.1336 -0.0166
12433TIP3    H258791   0.695   2.945   5.473  0.1077 -0.6152  0.3304
12434TIP3   OH258792   0.914   0.030  10.921 -0.0956 -0.0434  0.0418
12434TIP3    H158793   0.938  -0.055  10.885  0.7210  0.4591 -0.6509
12434TIP3    H258794   0.818   0.030  10.922 -0.1047 -0.9198 -0.0560
12435TIP3   OH258795   0.892   6.358  14.134  0.1381 -0.1136  0.3029
12435TIP3    H158796   0.960   6.330  14.195  0.5971  2.7958  1.3010
12435TIP3    H258797   0.810   6.328  14.172  0.6645 -1.3799  0.4669
12436TIP3   OH258798   5.665   0.860   2.875 -0.3484 -0.3025 -0.1316
12436TIP3    H158799   5.597   0.881   2.939 -0.8350 -1.5320 -0.2121
12436TIP3    H258800   5.630   0.785   2.827 -0.0322  0.6578 -1.9264
12437TIP3   OH258801   0.446   4.371   1.789 -0.1554  0.4299 -0.2606
12437TIP3    H158802   0.536   4.390   1.763  0.7245 -2.3125  0.4143
12437TIP3    H258803   0.433   4.280   1.764 -1.9942  0.1061  1.6352
12438TIP3   OH258804   5.317   3.220  14.467  0.0502 -0.4387  0.3092
12438TIP3    H158805   5.280   3.171  14.394 -0.8917  0.3395  0.2410
12438TIP3    H258806   5.298   3.312  14.446  2.4570  0.0747  0.0244
12439TIP3   OH258807   6.016   0.287   4.317 -0.0766 -0.3416 -0.8247
12439TIP3    H158808   6.047   0.294   4.408 -1.8851 -0.7553 -0.1275
12439TIP3    H258809   6.024   0.376   4.283  1.7067 -0.3960 -0.6775
12440TIP3   OH258810   1.276   3.545   5.110 -0.0754  0.5530  0.4497
12440TIP3    H158811   1.264   3.477   5.043 -1.3129  1.5478 -0.3834
12440TIP3    H258812   1.338   3.606   5.071 -0.0957  0.6627  0.5909
12441TIP3   OH258813   1.457   0.658  14.425  0.0036  0.1924 -0.7059
12441TIP3    H158814   1.377   0.712  14.418 -0.0440  0.1908 -0.1740
12441TIP3    H258815   1.525   0.721  14.450 -0.0936 -0.0223  0.1273
12442TIP3   OH258816   3.225   3.792   4.290  0.3657  0.5273 -0.0756
12442TIP3    H158817   3.183   3.707   4.280  0.5407  0.5845 -1.3967
12442TIP3    H258818   3.165   3.841   4.346 -0.0695 -0.2270  0.1386
12443TIP3   OH258819   1.676   1.501   2.254 -0.5244  0.5133  0.4268
12443TIP3    H158820   1.664   1.428   2.315 -0.4259  1.6696  1.8861
12443TIP3    H258821   1.677   1.460   2.167 -2.3752 -1.0057  1.0577
12444TIP3   OH258822   5.874   3.501   2.021 -0.5584 -0.3715 -0.3146
12444TIP3    H158823   5.937   3.534   2.085 -2.4179  0.2704  1.3186
12444TIP3    H258824   5.849   3.578   1.970 -1.1768 -0.2607  0.1352
12445TIP3   OH258825   4.783   4.163   4.685 -0.2794 -0.2011  0.2211
12445TIP3    H158826   4.709   4.132   4.632 -0.7270  0.5865  0.3696
12445TIP3    H258827   4.845   4.197   4.621  0.3100 -1.5447  0.0393
12446TIP3   OH258828   3.296   4.811  15.560  0.2354 -0.0002  0.7108
12446TIP3    H158829   3.306   4.719  15.584  0.2807  0.1617  1.3233
12446TIP3    H258830   3.328   4.860  15.636  0.0539  0.5224  0.4596
12447TIP3   OH258831   4.421   4.389  11.612  0.4924  0.6105 -0.8195
12447TIP3    H158832   4.361   4.334  11.562 -0.0218  1.3438 -1.0259
12447TIP3    H258833   4.508   4.363  11.583  0.2766 -0.3403 -0.6456
12448TIP3   OH258834   3.607   6.682   5.484 -0.2043 -0.0514 -0.2749
12448TIP3    H158835   3.587   6.633   5.564  0.4024 -0.5431 -0.4180
12448TIP3    H258836   3.660   6.622   5.432  2.2072  1.3800  0.3568
12449TIP3   OH258837   4.557   5.696   0.444 -0.3976  0.1291 -0.9605
12449TIP3    H158838   4.531   5.786   0.466  0.0260  0.2773 -1.0393
12449TIP3    H258839   4.588   5.702   0.353 -0.4496 -0.1152 -0.9943
12450TIP3   OH258840   1.455   5.909   1.593  0.4659  0.3907 -0.1014
12450TIP3    H158841   1.376   5.961   1.604 -0.7661 -1.1761 -1.1403
12450TIP3    H258842   1.491   5.937   1.509 -0.0696 -0.2372 -0.5496
12451TIP3   OH258843   3.572   1.056   4.954  0.0701 -0.2949  0.5816
12451TIP3    H158844   3.554   1.041   4.862  0.9984  0.5310  0.2404
12451TIP3    H258845   3.615   0.976   4.984  1.4887  0.1350 -0.2102
12452TIP3   OH258846   2.597   6.120   1.237  0.1558 -0.6037 -0.1313
12452TIP3    H158847   2.597   6.038   1.188  0.6271 -0.5905 -0.1509
12452TIP3    H258848   2.548   6.181   1.181 -2.3214 -1.4780  0.9311
12453TIP3   OH258849   0.129   3.330   0.617 -0.5354 -0.0651 -0.3477
12453TIP3    H158850   0.047   3.327   0.666  0.1447  0.5403  0.8950
12453TIP3    H258851   0.194   3.295   0.678  0.0085 -1.3702 -1.6193
12454TIP3   OH258852   4.540   0.948  12.912 -0.7478  0.2565  0.0274
12454TIP3    H158853   4.543   1.042  12.929  0.5863  0.2422 -0.0337
12454TIP3    H258854   4.632   0.920  12.913 -1.0858 -0.9451 -0.5199
12455TIP3   OH258855   0.049   6.143   2.837  0.4189 -0.4752 -0.2174
12455TIP3    H158856   0.053   6.239   2.845  1.4845 -0.3447 -1.8408
12455TIP3    H258857   0.028   6.113   2.925  0.2375  1.2440  0.3723
12456TIP3   OH258858   0.677   4.055   3.345 -0.2102 -0.2994 -0.3462
12456TIP3    H158859   0.591   4.015   3.355 -0.4628  0.7256  2.2796
12456TIP3    H258860   0.737   3.997   3.391  0.5081 -0.8349 -1.8764
12457TIP3   OH258861   5.027   1.649  17.194 -0.8726  0.5998 -0.5771
12457TIP3    H158862   5.051   1.740  17.180 -1.1128  0.7949  0.2083
12457TIP3    H258863   4.939   1.641  17.156 -1.6339  1.1917  0.9683
12458TIP3   OH258864   2.247   6.183   4.460 -0.4490 -0.5185  0.4212
12458TIP3    H158865   2.309   6.224   4.401 -1.3933  0.9909  0.4297
12458TIP3    H258866   2.202   6.118   4.405 -1.0125  0.5558 -0.4282
12459TIP3   OH258867   6.008   1.465   4.671 -0.3871 -0.6853  0.5553
12459TIP3    H158868   5.962   1.427   4.597 -0.7786  0.8394 -0.0202
12459TIP3    H258869   6.050   1.543   4.636 -0.0420 -0.2844  1.7995
12460TIP3   OH258870   4.752   2.034   5.754  0.0049  0.8986 -0.1621
12460TIP3    H158871   4.691   1.964   5.780  0.6950  0.0202 -0.8633
12460TIP3    H258872   4.793   2.062   5.836  0.4261 -0.1924  0.0069
12461TIP3   OH258873   1.621   2.227  12.390  0.1100  0.0106 -0.0726
12461TIP3    H158874   1.527   2.231  12.408 -0.0426  0.3653 -0.9000
12461TIP3    H258875   1.636   2.300  12.329  1.2412  1.1224  1.4520
12462TIP3   OH258876   5.219   3.527   1.009  0.2007 -0.2182 -0.4464
12462TIP3    H158877   5.186   3.607   0.966 -1.3656  1.4658  3.3545
12462TIP3    H258878   5.216   3.460   0.941 -3.9419  1.6587 -2.4891
12463TIP3   OH258879   2.456   4.178   3.530  0.3075 -0.0037  0.1996
12463TIP3    H158880   2.409   4.135   3.459  2.2177 -1.4240 -0.2686
12463TIP3    H258881   2.468   4.110   3.596 -1.6819  1.3592  2.0936
12464TIP3   OH258882   2.576   5.124  12.300 -0.2125  0.1247 -0.3422
12464TIP3    H158883   2.629   5.133  12.221  1.2523  0.5425  0.6577
12464TIP3    H258884   2.495   5.081  12.269  0.6465 -0.4563 -1.9165
12465TIP3   OH258885   2.072   2.422  11.565 -0.1374  0.0652  0.3846
12465TIP3    H158886   2.031   2.353  11.616  1.1691 -0.0129  1.3834
12465TIP3    H258887   2.039   2.409  11.476  0.6704 -2.3651  0.3690
12466TIP3   OH258888   0.815   5.457  12.176  0.1504  0.6550 -0.5912
12466TIP3    H158889   0.862   5.418  12.103  1.1037  0.2656  0.2062
12466TIP3    H258890   0.761   5.385  12.211 -1.1994  1.1432 -1.6053
12467TIP3   OH258891   6.339   0.988   1.206  0.3480  0.2332  0.1318
12467TIP3    H158892   6.288   0.957   1.281  1.6242  0.9039  1.3407
12467TIP3    H258893   6.351   0.911   1.152  0.5179 -0.5920  1.3024
12468TIP3   OH258894   5.847   4.131  12.798  0.3742 -0.3995 -0.2327
12468TIP3    H158895   5.922   4.149  12.741  0.1782 -2.6209 -1.2974
12468TIP3    H258896   5.876   4.057  12.852 -0.6556 -0.5739  0.1025
12469TIP3   OH258897   6.334   1.215  14.680 -0.0365  0.2787  0.0463
12469TIP3    H158898   6.344   1.245  14.770  0.7621  0.7928 -0.1952
12469TIP3    H258899   6.411   1.160  14.664  0.5596  1.3087 -0.7399
12470TIP3   OH258900   1.310   0.920  12.376 -0.1462 -0.5281  0.1193
12470TIP3    H158901   1.384   0.913  12.438 -0.5685  0.5838  0.7785
12470TIP3    H258902   1.287   1.013  12.377 -0.1969 -0.4844 -1.7025
12471TIP3   OH258903   1.643   0.157  16.901  0.1068  0.3570  0.3437
12471TIP3    H158904   1.632   0.132  16.993 -0.4370 -1.5744 -0.2049
12471TIP3    H258905   1.640   0.075  16.853 -0.3263  1.3878 -1.4898
12472TIP3   OH258906   3.890   4.544   2.037 -0.2123  0.8723 -0.1673
12472TIP3    H158907   3.939   4.466   2.061 -0.9914 -0.0929 -1.6061
12472TIP3    H258908   3.957   4.607   2.009  0.2708 -0.2901 -1.7394
12473TIP3   OH258909   3.349   1.259  16.979 -0.1631  0.4745  0.3890
12473TIP3    H158910   3.364   1.166  16.961 -0.7075  0.7201 -1.6850
12473TIP3    H258911   3.300   1.261  17.061  0.8385 -0.9819  1.0666
12474TIP3   OH258912   3.438   3.839   3.691 -0.0487 -0.2582  0.4031
12474TIP3    H158913   3.467   3.887   3.769 -0.1144 -0.4485  0.5444
12474TIP3    H258914   3.359   3.793   3.720 -0.7435  0.5807 -0.0829
12475TIP3   OH258915   3.708   1.415   0.242 -0.4036 -0.3848  0.3409
12475TIP3    H158916   3.614   1.407   0.259 -0.6124  2.4094  0.9720
12475TIP3    H258917   3.719   1.381   0.153 -2.0911 -0.4517  0.1243
12476TIP3   OH258918   3.980   6.195   3.320  0.5499 -0.1835 -0.3645
12476TIP3    H158919   3.894   6.234   3.337  0.7747  0.4067 -0.5495
12476TIP3    H258920   3.963   6.101   3.313  0.0870 -0.2013  0.7133
12477TIP3   OH258921   0.695   2.701   2.339 -0.1939 -0.2430  0.0760
12477TIP3    H158922   0.729   2.752   2.266  2.0531 -0.5288  0.8280
12477TIP3    H258923   0.643   2.632   2.298  0.2641  0.1296 -1.1845
12478TIP3   OH258924   2.527   6.743   3.009 -0.8363  0.4273 -0.2617
12478TIP3    H158925   2.509   6.790   2.927  0.5711 -1.0596 -1.5023
12478TIP3    H258926   2.459   6.677   3.015 -0.3847 -0.1036 -0.7940
12479TIP3   OH258927   6.394   2.508   4.473  0.1939  0.2666 -0.2924
12479TIP3    H158928   6.396   2.604   4.467 -0.0750  0.1915 -1.7459
12479TIP3    H258929   6.392   2.478   4.383  0.1764 -1.1226  0.1528
12480TIP3   OH258930   3.256   1.186   1.647  0.5256 -0.1378 -0.4663
12480TIP3    H158931   3.170   1.145   1.653  0.0063  0.8657 -0.6827
12480TIP3    H258932   3.318   1.113   1.642 -0.4298 -0.8986 -1.8876
12481TIP3   OH258933   2.567   1.476  17.189 -0.0971 -0.6329  0.5484
12481TIP3    H158934   2.635   1.514  17.245  1.1395  1.0435 -1.9136
12481TIP3    H258935   2.583   1.514  17.102 -3.5075 -1.0630 -0.4225
12482TIP3   OH258936   5.186   0.887   4.287  0.1282 -0.1368 -0.4780
12482TIP3    H158937   5.229   0.971   4.271  0.9409 -0.6909 -1.2942
12482TIP3    H258938   5.107   0.910   4.337 -0.7068  1.3644 -2.3129
12483TIP3   OH258939   3.131   4.786   3.675 -0.2376  0.7048  0.0290
12483TIP3    H158940   3.112   4.702   3.716  0.3242 -0.4893 -2.0346
12483TIP3    H258941   3.074   4.848   3.720  0.2647 -0.5045  2.4875
12484TIP3   OH258942   0.846   2.188  11.953 -0.0812 -0.3207  0.0263
12484TIP3    H158943   0.924   2.161  11.905 -0.4037 -1.5867  0.1666
12484TIP3    H258944   0.878   2.248  12.021  0.4607  0.9876 -1.3262
12485TIP3   OH258945   3.799   4.032   4.579 -0.3157  0.1397  0.2462
12485TIP3    H158946   3.784   4.019   4.673  0.7679  0.1840  0.4387
12485TIP3    H258947   3.758   4.116   4.560  1.6111  1.3850  1.2534
12486TIP3   OH258948   0.301   2.204   1.133 -0.2816  0.4231 -0.1405
12486TIP3    H158949   0.237   2.251   1.079 -1.5286  0.6060  1.4093
12486TIP3    H258950   0.367   2.270   1.154 -0.2777  0.5951 -0.6854
12487TIP3   OH258951   5.486   1.765   0.040  0.1546 -0.4113  0.8184
12487TIP3    H158952   5.577   1.787   0.057  0.0788  1.8434 -1.0956
12487TIP3    H258953   5.435   1.831   0.088 -0.2216  1.3604 -1.7643
12488TIP3   OH258954   3.105   5.788  16.378 -0.1850  0.0238  0.5371
12488TIP3    H158955   3.165   5.719  16.406  1.6728 -0.0400 -3.0776
12488TIP3    H258956   3.048   5.746  16.314 -1.1577  1.1229  0.6496
12489TIP3   OH258957   0.328   3.268  15.345  0.0927  0.5107 -0.0484
12489TIP3    H158958   0.413   3.297  15.379 -0.7543  1.3644  1.4620
12489TIP3    H258959   0.296   3.342  15.293  0.0031  0.4387 -0.0952
12490TIP3   OH258960   4.396   1.976   1.816  0.6353  0.3052 -0.2533
12490TIP3    H158961   4.411   1.985   1.910 -0.8912 -0.1881  0.0587
12490TIP3    H258962   4.309   1.938   1.809 -0.1396  2.2133 -1.9201
12491TIP3   OH258963   5.501   1.563   2.657  0.3728 -0.2798 -0.2035
12491TIP3    H158964   5.487   1.524   2.571  0.8994 -1.6125  0.2770
12491TIP3    H258965   5.462   1.500   2.718 -0.6567  0.9998  0.5117
12492TIP3   OH258966   1.242   2.648   2.449 -0.7022 -0.2351  0.0476
12492TIP3    H158967   1.163   2.631   2.397 -0.5216 -2.5581  0.4242
12492TIP3    H258968   1.260   2.565   2.493  2.2142  0.0840 -0.3609
12493TIP3   OH258969   3.418   3.076   3.773 -0.3484  0.9763  0.0642
12493TIP3    H158970   3.379   3.101   3.689 -1.0212  1.9026  0.6324
12493TIP3    H258971   3.442   3.160   3.814  0.7937  0.4956  0.4157
12494TIP3   OH258972   5.792   5.314  16.290 -0.4035 -0.0098 -0.0762
12494TIP3    H158973   5.832   5.354  16.367  3.3226 -1.2174 -1.1397
12494TIP3    H258974   5.716   5.266  16.324 -0.2225  1.3129  2.4165
12495TIP3   OH258975   0.971   3.258   3.195  0.0637 -0.4436 -0.5014
12495TIP3    H158976   0.987   3.173   3.156 -0.9748  0.2302 -2.5520
12495TIP3    H258977   0.885   3.284   3.162 -0.1162  0.9358  0.9320
12496TIP3   OH258978   6.452   5.317   2.422 -0.0304  0.4084  0.1900
12496TIP3    H158979   6.477   5.384   2.359 -0.0039 -0.4249 -0.7179
12496TIP3    H258980   6.424   5.365   2.500  0.2351  1.4509 -0.3511
12497TIP3   OH258981   0.702   5.909  15.146  0.2297 -0.6465  0.0214
12497TIP3    H158982   0.678   5.893  15.055 -0.2810 -2.6098  0.4503
12497TIP3    H258983   0.673   5.831  15.192 -0.8355  0.8843  2.1368
12498TIP3   OH258984   6.206   1.990   3.186 -0.0041  0.0346 -0.3425
12498TIP3    H158985   6.272   1.944   3.238  0.7448  1.1495 -0.2695
12498TIP3    H258986   6.246   2.075   3.167 -2.0345  1.3780  1.0242
12499TIP3   OH258987   6.297   4.836   0.679 -0.5034 -0.0404  0.4030
12499TIP3    H158988   6.387   4.818   0.708 -0.0554  2.7756  1.0671
12499TIP3    H258989   6.242   4.802   0.749  0.1181 -0.4559  0.7034
12500TIP3   OH258990   6.248   5.387  16.466 -0.4172 -0.2002  0.6666
12500TIP3    H158991   6.198   5.467  16.482 -2.5359 -1.3275  0.0482
12500TIP3    H258992   6.307   5.409  16.394 -1.8281  0.4841 -0.3158
12501TIP3   OH258993   6.359   2.799  11.598 -0.0956 -0.2609 -0.4004
12501TIP3    H158994   6.317   2.848  11.668  0.1569  0.0808 -0.4818
12501TIP3    H258995   6.447   2.781  11.630  1.1340  2.5740 -1.7595
12502TIP3   OH258996   1.612   1.128  16.618 -0.1295  0.3408  0.5709
12502TIP3    H158997   1.662   1.168  16.548  0.8412 -0.6406  0.6900
12502TIP3    H258998   1.557   1.200  16.652  1.5641  1.5960  0.7978
12503TIP3   OH258999   2.121   5.194  13.527  0.4918  0.1962 -0.2709
12503TIP3    H159000   2.075   5.253  13.587 -0.2686 -0.7253  0.0758
12503TIP3    H259001   2.213   5.208  13.546  0.2900  0.6574  0.4082
12504TIP3   OH259002   2.115   0.206  16.003 -0.0840  0.0742 -0.1177
12504TIP3    H159003   2.174   0.268  16.047 -1.8123  0.9265  1.1227
12504TIP3    H259004   2.064   0.260  15.944 -1.0720 -0.2718  0.3974
12505TIP3   OH259005   5.449   4.506  11.603  0.3592 -0.0103  0.3468
12505TIP3    H159006   5.378   4.554  11.560 -2.1793 -3.9719 -0.3983
12505TIP3    H259007   5.486   4.450  11.534  1.3391 -1.0632  1.6647
12506TIP3   OH259008   4.807   1.542   5.471  0.0573 -0.1296 -0.1348
12506TIP3    H159009   4.832   1.514   5.559  0.8344  1.7904  0.2857
12506TIP3    H259010   4.861   1.619   5.454 -1.2228  0.4669 -1.6780
12507TIP3   OH259011   1.853   5.502   4.205 -0.0581  0.7357  0.4044
12507TIP3    H159012   1.849   5.407   4.217 -2.5228  0.8522  0.9485
12507TIP3    H259013   1.894   5.514   4.120 -0.2229 -0.8405  0.0866
12508TIP3   OH259014   6.654   3.852  13.383 -0.1760  0.2590  0.0069
12508TIP3    H159015   6.618   3.815  13.463 -1.2668  1.0757 -0.0939
12508TIP3    H259016   6.649   3.780  13.319 -0.4219 -0.0228  0.3424
12509TIP3   OH259017   3.535   4.426  16.166 -0.2502 -0.0473  0.2827
12509TIP3    H159018   3.598   4.462  16.104 -1.0020 -0.1855 -0.5807
12509TIP3    H259019   3.516   4.498  16.226 -3.1258  1.7885 -2.4718
12510TIP3   OH259020   5.166   0.336   0.242  1.1087 -0.0130  0.0542
12510TIP3    H159021   5.238   0.378   0.195  1.5543  0.6947  1.3012
12510TIP3    H259022   5.114   0.408   0.277  0.1989 -0.5171 -0.2185
12511TIP3   OH259023   4.949   0.443  13.617 -0.1014  0.3368 -0.0165
12511TIP3    H159024   4.918   0.503  13.685 -2.3009  2.1354 -2.3986
12511TIP3    H259025   4.873   0.390  13.595  0.2258  0.5437 -1.7945
12512TIP3   OH259026   3.450   5.862   6.747  0.0386 -0.8909 -0.1815
12512TIP3    H159027   3.363   5.826   6.765 -0.6211 -0.9294 -3.0601
12512TIP3    H259028   3.499   5.789   6.710  1.1266 -0.6705  0.7473
12513TIP3   OH259029   5.520   5.215  15.354  0.6557  0.1908 -0.1810
12513TIP3    H159030   5.567   5.180  15.430 -1.2311 -0.7310  0.6128
12513TIP3    H259031   5.500   5.305  15.379  1.3813  0.3821 -0.2525
12514TIP3   OH259032   1.768   1.607  15.294  0.2880 -0.0459 -0.2764
12514TIP3    H159033   1.808   1.660  15.225  0.5014 -0.7395 -0.6936
12514TIP3    H259034   1.783   1.517  15.267  1.9195 -0.3792  1.5433
12515TIP3   OH259035   6.221   3.127  15.324  0.2059 -0.6476  0.4588
12515TIP3    H159036   6.195   3.043  15.287  0.0035 -0.8820  1.1096
12515TIP3    H259037   6.317   3.127  15.321  0.2101 -0.9714  0.5962
12516TIP3   OH259038   6.272   1.771  14.329  0.6884  0.7376 -0.4072
12516TIP3    H159039   6.337   1.737  14.267  1.6899  1.5406  0.1677
12516TIP3    H259040   6.210   1.819  14.274  1.1382  0.7999 -0.8726
12517TIP3   OH259041   5.815   3.267   0.043  0.3321  0.2264 -0.1703
12517TIP3    H159042   5.808   3.344  -0.013 -1.4535  1.3197  1.4208
12517TIP3    H259043   5.908   3.263   0.066  1.1883 -0.4606 -3.3480
12518TIP3   OH259044   1.075   1.586  16.384 -0.1903 -0.0128 -0.0894
12518TIP3    H159045   1.011   1.560  16.450  0.2210 -2.5740 -0.5561
12518TIP3    H259046   1.160   1.580  16.429  0.4226 -4.6897 -1.3096
12519TIP3   OH259047   3.832   0.942   2.395  0.2964  0.3700 -0.0482
12519TIP3    H159048   3.862   1.010   2.456  0.1974 -1.1014  1.7041
12519TIP3    H259049   3.737   0.955   2.391  0.2415  0.1751  0.5043
12520TIP3   OH259050   4.326   1.760   5.515 -0.2727 -0.5445 -0.1579
12520TIP3    H159051   4.248   1.717   5.549 -0.9945  0.6777 -0.1901
12520TIP3    H259052   4.292   1.826   5.455  0.5826  1.6339  1.6092
12521TIP3   OH259053   4.853   6.467   2.854  0.2227  0.0569  0.2977
12521TIP3    H159054   4.916   6.531   2.820  0.7269 -0.7421 -0.3190
12521TIP3    H259055   4.854   6.481   2.949  1.9931 -0.5026  0.3928
12522TIP3   OH259056   2.730   3.072   2.041 -0.4857  0.2981  0.0805
12522TIP3    H159057   2.691   3.108   2.121 -1.5523  1.6356 -0.9789
12522TIP3    H259058   2.799   3.133   2.018 -0.6294  0.3003 -0.3663
12523TIP3   OH259059   3.095   1.831   1.285 -0.0079 -0.1921  0.2808
12523TIP3    H159060   3.112   1.922   1.310 -0.9363 -0.0752  0.5375
12523TIP3    H259061   3.036   1.838   1.209 -1.1419 -0.5637  1.0956
12524TIP3   OH259062   5.598   2.332   4.614  0.7327  0.1719 -0.2390
12524TIP3    H159063   5.635   2.264   4.670 -1.4322  0.7574  2.0928
12524TIP3    H259064   5.661   2.404   4.617  1.3851 -0.4049  0.1303
12525TIP3   OH259065   5.549   0.629  11.705  0.0104  0.4818 -0.1948
12525TIP3    H159066   5.562   0.543  11.665  1.4047  0.8669 -0.6507
12525TIP3    H259067   5.525   0.610  11.795 -0.6164 -0.3900 -0.5352
12526TIP3   OH259068   2.028   0.998  13.979 -0.0256  0.1058  0.0034
12526TIP3    H159069   2.091   1.069  13.995 -0.9775  0.8051  0.7971
12526TIP3    H259070   1.959   1.012  14.044 -0.7087 -1.0044 -0.4453
12527TIP3   OH259071   0.955   6.687  14.829 -0.0829  0.3570  0.1198
12527TIP3    H159072   0.910   6.772  14.836 -0.3123  0.3956 -1.4432
12527TIP3    H259073   0.900   6.635  14.771  1.6747  0.2974 -1.6131
12528TIP3   OH259074   5.350   2.412   4.088  0.1130 -0.1021  0.4318
12528TIP3    H159075   5.299   2.388   4.011 -1.4080 -0.3744  1.4585
12528TIP3    H259076   5.323   2.502   4.108 -0.6994 -0.5500  1.4978
12529TIP3   OH259077   5.422   5.004  15.208  0.5679 -0.4452 -0.6063
12529TIP3    H159078   5.341   4.961  15.237 -0.0941 -0.0546 -1.7985
12529TIP3    H259079   5.437   5.072  15.273 -0.4174 -0.1303 -0.6886
12530TIP3   OH259080   5.726   4.138  11.633 -0.4188 -0.3813 -0.1506
12530TIP3    H159081   5.652   4.078  11.643 -1.3587 -0.0944 -4.0066
12530TIP3    H259082   5.762   4.118  11.547  1.8688  1.8152  0.1805
12531TIP3   OH259083   2.946   1.337   5.959  0.1023  0.0942  0.0266
12531TIP3    H159084   2.997   1.380   6.027  0.8221 -4.0433  2.4119
12531TIP3    H259085   2.858   1.330   5.995  0.3447 -1.5949  0.3815
12532TIP3   OH259086   3.131   4.828   3.395 -0.0958  0.7159 -0.0293
12532TIP3    H159087   3.151   4.754   3.338  2.4039  1.7631 -0.6876
12532TIP3    H259088   3.129   4.791   3.483 -0.5883 -0.3804 -0.4804
12533TIP3   OH259089   1.442   3.215  17.179 -0.1746 -0.6305  0.0280
12533TIP3    H159090   1.400   3.298  17.155  0.3320 -0.5853 -0.7520
12533TIP3    H259091   1.490   3.189  17.100 -0.6848 -1.8996  0.1185
12534TIP3   OH259092   4.468   1.515   2.905  0.2420 -0.3792 -0.5818
12534TIP3    H159093   4.505   1.430   2.930 -1.7409 -0.8599  0.9349
12534TIP3    H259094   4.426   1.499   2.821  0.2498 -0.7887 -0.5111
12535TIP3   OH259095   2.989   0.456   3.344 -0.2935 -0.1846  0.2906
12535TIP3    H159096   2.977   0.363   3.360 -1.1106 -0.2833 -0.7968
12535TIP3    H259097   2.912   0.482   3.294  1.0892  0.5255 -1.5878
12536TIP3   OH259098   4.044   4.748   4.308  0.2670  0.0578  0.1402
12536TIP3    H159099   4.075   4.690   4.378  0.0692 -1.0540 -0.6711
12536TIP3    H259100   4.117   4.809   4.295  0.7557 -0.4142  0.5689
12537TIP3   OH259101   1.380   3.593   1.538 -0.3706  0.0839  0.1962
12537TIP3    H159102   1.460   3.541   1.544 -0.7784 -0.4950  0.7505
12537TIP3    H259103   1.312   3.531   1.514 -0.5078  0.7345 -1.1832
12538TIP3   OH259104   6.601   4.536  13.819  0.0148  0.3927  0.0296
12538TIP3    H159105   6.617   4.567  13.730  0.4463 -0.4614 -0.2022
12538TIP3    H259106   6.672   4.474  13.836 -0.7132 -0.3197  0.5444
12539TIP3   OH259107   1.762   2.474   4.349 -0.5171 -0.8753  0.0251
12539TIP3    H159108   1.691   2.416   4.375 -1.6287  0.4767  0.1441
12539TIP3    H259109   1.718   2.550   4.310  0.8218  0.2886  0.6631
12540TIP3   OH259110   6.658   6.646  11.242  0.0035  0.5981 -0.1533
12540TIP3    H159111   6.651   6.564  11.291 -2.6607  0.5211 -0.5107
12540TIP3    H259112   6.688   6.710  11.307  0.0753 -0.2388  0.6586
12541TIP3   OH259113   2.204   4.287   1.098  0.5275  0.1412  0.1506
12541TIP3    H159114   2.165   4.230   1.165  0.3922  1.4820  1.2670
12541TIP3    H259115   2.226   4.367   1.146 -1.3798  1.9439 -1.7630
12542TIP3   OH259116   5.645   3.617  13.486  0.1484 -0.3013  0.3397
12542TIP3    H159117   5.562   3.664  13.479 -1.0191 -2.2347  0.5166
12542TIP3    H259118   5.665   3.591  13.396 -0.2819 -1.1592  0.4760
12543TIP3   OH259119   5.110   1.705   0.229  0.5978  0.1215 -0.5514
12543TIP3    H159120   5.108   1.665   0.142  0.5238 -0.6822 -0.1886
12543TIP3    H259121   5.149   1.791   0.215 -0.1694  0.3283 -1.5100
12544TIP3   OH259122   1.157   2.248   5.946  0.2479  0.8374 -0.3049
12544TIP3    H159123   1.205   2.166   5.937 -0.7593  0.2845 -0.8436
12544TIP3    H259124   1.172   2.293   5.863  0.3984  0.9777 -0.2019
12545TIP3   OH259125   0.526   4.905   0.919  0.2672  0.5702 -0.2795
12545TIP3    H159126   0.432   4.898   0.902  0.1215 -1.1993  0.9159
12545TIP3    H259127   0.531   4.931   1.011  0.9802  1.5143 -0.5650
12546TIP3   OH259128   4.616   6.236   2.670  0.2708 -0.4839 -0.4406
12546TIP3    H159129   4.686   6.261   2.610  1.0478  1.9024  1.3108
12546TIP3    H259130   4.661   6.185   2.738  0.0655 -0.1968 -0.0843
12547TIP3   OH259131   1.849   4.363   6.638 -0.3217  0.5470  0.0443
12547TIP3    H159132   1.788   4.301   6.599  0.4542 -0.8072  0.9334
12547TIP3    H259133   1.800   4.446   6.641 -2.1849 -0.5287  0.8827
12548TIP3   OH259134   6.082   4.461  15.912 -0.1837 -0.4297  0.3346
12548TIP3    H159135   6.097   4.407  15.835  0.4359  0.9086 -0.5152
12548TIP3    H259136   6.013   4.415  15.960 -0.2203 -1.5579 -0.7409
12549TIP3   OH259137   0.336   6.663  14.261 -0.3003 -0.2230 -0.2506
12549TIP3    H159138   0.282   6.739  14.240 -0.6497 -0.3076  0.3195
12549TIP3    H259139   0.356   6.623  14.176 -2.0547 -0.8182 -0.4299
12550TIP3   OH259140   2.495   5.260   3.467  0.2367  0.3412 -0.3001
12550TIP3    H159141   2.472   5.168   3.482 -1.1355  0.3551 -1.9877
12550TIP3    H259142   2.587   5.258   3.443  0.2399 -0.5764 -0.2504
12551TIP3   OH259143   3.234   0.568  11.537 -0.0508  0.7371 -0.2646
12551TIP3    H159144   3.306   0.561  11.600 -0.8703  1.2146  0.7732
12551TIP3    H259145   3.158   0.593  11.591 -0.7282  1.3973 -1.4808
12552TIP3   OH259146   6.712   5.545   3.791 -0.0974 -0.0233  0.2480
12552TIP3    H159147   6.661   5.577   3.716 -1.2379  2.9117  2.0957
12552TIP3    H259148   6.682   5.455   3.804 -0.1263 -0.4908 -2.5275
12553TIP3   OH259149   1.630   0.730  17.169  0.0311 -0.0005  0.1902
12553TIP3    H159150   1.604   0.638  17.159 -2.6491  0.5726  1.1105
12553TIP3    H259151   1.559   0.780  17.129  0.3450  1.7108  1.6122
12554TIP3   OH259152   4.109   6.222   3.079 -0.0213 -0.6730 -0.0964
12554TIP3    H159153   4.174   6.283   3.114 -1.4755  1.2980 -0.6202
12554TIP3    H259154   4.038   6.224   3.143 -1.4684  0.7525 -1.6346
12555TIP3   OH259155   4.528   3.513  13.024  0.0770  0.1244  0.6973
12555TIP3    H159156   4.444   3.484  12.987  0.6530 -0.2205 -0.4015
12555TIP3    H259157   4.510   3.600  13.059 -0.7055  0.1222  0.3376
12556TIP3   OH259158   1.393   3.089  16.181 -0.6001 -0.6013 -0.4542
12556TIP3    H159159   1.466   3.027  16.175  0.4615  0.5574  0.1157
12556TIP3    H259160   1.374   3.092  16.275  0.5349  1.2081 -0.2295
12557TIP3   OH259161   5.800   4.697   1.794 -0.4497  0.4227 -0.1634
12557TIP3    H159162   5.819   4.628   1.732 -0.0865  0.3561  0.0212
12557TIP3    H259163   5.704   4.696   1.803 -0.3555 -1.3830  1.3316
12558TIP3   OH259164   1.382   6.327  16.011 -0.5050 -0.2993 -0.1340
12558TIP3    H159165   1.445   6.258  15.991  0.7105  0.5394  0.6619
12558TIP3    H259166   1.379   6.381  15.932  0.8072  0.3936  0.2494
12559TIP3   OH259167   1.508   5.719   1.925  0.0631  0.5042 -0.1376
12559TIP3    H159168   1.552   5.657   1.983  2.1603  1.8521 -0.1813
12559TIP3    H259169   1.475   5.666   1.853  0.8701 -0.6961  0.3395
12560TIP3   OH259170   1.376   0.845   0.068 -0.0052  0.1493 -0.3981
12560TIP3    H159171   1.397   0.936   0.089  0.6941  0.1057 -0.8434
12560TIP3    H259172   1.435   0.823  -0.005  1.0212 -1.1545  0.7421
12561TIP3   OH259173   1.559   0.132   5.114  0.1667 -0.4957 -0.0732
12561TIP3    H159174   1.469   0.135   5.148  0.3632  2.3704  0.3930
12561TIP3    H259175   1.550   0.159   5.023  0.6684  1.3665  0.3916
12562TIP3   OH259176   4.249   1.239   5.188  0.1484  0.5230  0.1637
12562TIP3    H159177   4.160   1.209   5.167 -0.1577  0.8912  0.8917
12562TIP3    H259178   4.246   1.258   5.282  1.2699 -0.3932  0.4110
12563TIP3   OH259179   6.471   1.860   0.125  0.0093 -0.1910  0.2639
12563TIP3    H159180   6.395   1.836   0.178 -0.3955  1.5512  0.5401
12563TIP3    H259181   6.544   1.859   0.186  0.0816 -1.1014  0.1729
12564TIP3   OH259182   0.331   1.098   0.676  0.0432 -0.2044 -0.0563
12564TIP3    H159183   0.390   1.149   0.621  0.9793 -1.0799  0.0983
12564TIP3    H259184   0.303   1.026   0.620 -0.4802 -0.0702  0.0322
12565TIP3   OH259185   1.197   0.192  13.563  0.4796 -0.4832 -0.1474
12565TIP3    H159186   1.142   0.260  13.523  0.9917  0.1948  0.2719
12565TIP3    H259187   1.136   0.121  13.585  0.3106 -1.3493 -3.0205
12566TIP3   OH259188   2.680   3.224  12.218  0.4370 -0.1853 -0.2116
12566TIP3    H159189   2.743   3.294  12.233  1.1658 -0.8036 -0.3469
12566TIP3    H259190   2.702   3.190  12.131  0.2282 -0.7185 -0.0612
12567TIP3   OH259191   2.444   5.135   2.434  0.6734  0.4743 -0.2353
12567TIP3    H159192   2.534   5.119   2.463  0.6495 -0.1973 -0.5253
12567TIP3    H259193   2.413   5.205   2.491  1.3547  0.6616 -0.0827
12568TIP3   OH259194   4.640   1.652  14.982  0.3478 -0.1996 -0.2724
12568TIP3    H159195   4.599   1.632  15.067 -1.8120  0.3014 -1.1231
12568TIP3    H259196   4.681   1.738  14.996 -0.9273  0.3902 -0.0049
12569TIP3   OH259197   1.019   6.341   3.638 -0.1148 -0.4980  0.0258
12569TIP3    H159198   1.080   6.310   3.704 -0.2733 -3.5721 -1.1164
12569TIP3    H259199   0.933   6.327   3.676 -0.1775 -0.6100 -0.1573
12570TIP3   OH259200   1.458   5.887   4.530 -0.1805 -0.4273  0.2938
12570TIP3    H159201   1.379   5.844   4.563 -0.5473  0.8789  1.1791
12570TIP3    H259202   1.428   5.973   4.500  0.8094 -0.1466  0.0647
12571TIP3   OH259203   6.765   5.621   0.569  0.0522 -0.2119  0.0061
12571TIP3    H159204   6.728   5.611   0.657 -0.2117  0.3176 -0.0375
12571TIP3    H259205   6.738   5.709   0.542  0.7339 -0.0992 -0.3218
12572TIP3   OH259206   5.557   6.397  13.582 -0.2094  0.1837 -0.2030
12572TIP3    H159207   5.626   6.404  13.647 -1.0633  0.9087  0.6485
12572TIP3    H259208   5.553   6.304  13.562 -0.6311 -0.2101  1.5626
12573TIP3   OH259209   5.333   3.212   2.603 -0.7962 -0.0783 -0.0895
12573TIP3    H159210   5.402   3.259   2.649 -3.1435  0.3950  3.2783
12573TIP3    H259211   5.348   3.120   2.625  1.0462 -0.5642 -2.8397
12574TIP3   OH259212   2.111   5.007   4.641 -0.8483 -0.5922  0.8512
12574TIP3    H159213   2.070   4.923   4.624 -0.7466 -0.4556 -0.1527
12574TIP3    H259214   2.190   4.986   4.691 -0.9734 -1.0648  0.8521
12575TIP3   OH259215   1.076   4.373   1.467  0.1643  0.0245  0.7331
12575TIP3    H159216   1.112   4.322   1.394  0.3287  0.6450  0.3698
12575TIP3    H259217   1.128   4.346   1.543 -1.6236 -2.4980  1.1971
12576TIP3   OH259218   3.622   2.210  17.217 -0.5559 -0.0511  0.3532
12576TIP3    H159219   3.526   2.206  17.213 -0.5122 -0.2890 -1.4334
12576TIP3    H259220   3.650   2.198  17.126  1.2190 -1.2353  1.0013
12577TIP3   OH259221   2.180   2.499  14.310 -0.3301  0.1447 -0.1963
12577TIP3    H159222   2.125   2.435  14.265 -0.2004  0.8362 -1.4071
12577TIP3    H259223   2.127   2.529  14.384 -1.6031  0.7681 -1.3143
12578TIP3   OH259224   0.686   5.263  11.866  0.6895  0.0993 -0.4225
12578TIP3    H159225   0.671   5.168  11.871 -0.1787  0.2504  0.1376
12578TIP3    H259226   0.641   5.290  11.786 -0.2684  0.2274  0.1358
12579TIP3   OH259227   0.991   0.376   4.908 -0.5851 -0.0179  0.0120
12579TIP3    H159228   1.071   0.359   4.957 -0.3474 -2.2055 -0.9928
12579TIP3    H259229   0.922   0.333   4.959 -0.2551 -2.8060 -1.6756
12580TIP3   OH259230   1.437   5.183  12.800 -0.9142 -0.5679  0.1761
12580TIP3    H159231   1.464   5.258  12.853 -0.2752  0.3015 -1.3193
12580TIP3    H259232   1.366   5.217  12.745  0.7584 -0.4199 -1.9942
12581TIP3   OH259233   6.756   3.242   1.364  0.0478  0.2369 -0.3729
12581TIP3    H159234   6.714   3.309   1.310 -1.7668  0.3973  1.1831
12581TIP3    H259235   6.808   3.191   1.301 -0.2119  1.7783 -1.9130
12582TIP3   OH259236   0.589   2.576  12.891 -0.3390 -0.7463  0.4494
12582TIP3    H159237   0.578   2.560  12.985 -0.5917  0.7843  0.7133
12582TIP3    H259238   0.674   2.537  12.870 -0.0085 -0.6079  1.4504
12583TIP3   OH259239   5.684   5.196   2.837  0.1535 -0.7466 -0.5287
12583TIP3    H159240   5.768   5.232   2.809  0.2343  1.8201  2.4346
12583TIP3    H259241   5.638   5.176   2.756  1.8039  2.3012 -2.4072
12584TIP3   OH259242   5.275   2.642  13.137  0.1118 -0.3937 -0.4128
12584TIP3    H159243   5.265   2.648  13.042  0.5945 -1.2628 -0.5283
12584TIP3    H259244   5.350   2.697  13.156 -0.9821  1.1175 -0.3146
12585TIP3   OH259245   4.165   2.484  14.327 -0.0150 -0.4586  0.7422
12585TIP3    H159246   4.125   2.449  14.247 -1.4014 -0.3790  1.3634
12585TIP3    H259247   4.091   2.500  14.385  0.8898  0.3869  1.6955
12586TIP3   OH259248   1.829   5.994   4.108 -0.3981  0.1765 -0.3949
12586TIP3    H159249   1.781   5.919   4.073 -1.1975 -0.3057  1.6378
12586TIP3    H259250   1.763   6.062   4.119 -0.3273  0.0534  0.8829
12587TIP3   OH259251   5.325   0.702  13.891 -0.2052 -0.8326 -0.2781
12587TIP3    H159252   5.319   0.606  13.889 -3.2429 -0.7713 -2.5486
12587TIP3    H259253   5.237   0.731  13.917  0.3807  1.3356 -0.4807
12588TIP3   OH259254   3.762   4.533  12.982  0.0239 -0.3225  0.1310
12588TIP3    H159255   3.777   4.442  12.958  0.4543 -0.5127  1.0630
12588TIP3    H259256   3.671   4.536  13.013 -0.3139 -0.2143 -0.8415
12589TIP3   OH259257   6.550   0.359   4.460 -0.5786 -0.3645 -0.9068
12589TIP3    H159258   6.512   0.317   4.382 -1.7000  0.1318 -0.6561
12589TIP3    H259259   6.590   0.439   4.426  1.1623 -1.3596 -1.3185
12590TIP3   OH259260   2.491   4.196   3.966 -0.1263 -0.1643  0.6042
12590TIP3    H159261   2.539   4.185   4.048 -1.0347 -2.1063  0.9252
12590TIP3    H259262   2.427   4.125   3.966  0.3161 -0.6483 -2.1221
12591TIP3   OH259263   0.695   2.847   5.845 -0.9154  0.1872 -0.3450
12591TIP3    H159264   0.778   2.852   5.796 -1.8206  0.4013 -1.9415
12591TIP3    H259265   0.643   2.920   5.810 -0.3230  2.7774  3.5934
12592TIP3   OH259266   0.099   0.985  14.723  0.5766  0.0546  0.2297
12592TIP3    H159267   0.154   1.044  14.774  0.0504  1.8350 -1.1372
12592TIP3    H259268   0.146   0.902  14.723  1.4710  0.5173  2.0361
12593TIP3   OH259269   3.163   5.940   0.358  0.2716 -0.0012  0.3109
12593TIP3    H159270   3.167   5.852   0.393  2.1933 -0.2085 -0.3550
12593TIP3    H259271   3.181   5.930   0.265  0.4937  1.1009  0.2243
12594TIP3   OH259272   2.752   6.747   0.239 -0.0635 -0.2339  0.7272
12594TIP3    H159273   2.831   6.796   0.214 -0.5154  0.5283  0.7731
12594TIP3    H259274   2.725   6.786   0.322 -0.9016  0.0025  0.3556
12595TIP3   OH259275   6.601   5.544   0.166 -0.0225  0.0770 -0.7369
12595TIP3    H159276   6.677   5.596   0.139  0.4488 -0.7851 -1.0934
12595TIP3    H259277   6.636   5.480   0.228 -0.2484 -1.0074 -1.6937
12596TIP3   OH259278   4.120   6.704  12.678  0.7197 -0.3464  0.4593
12596TIP3    H159279   4.123   6.658  12.594  1.0192  0.3018  0.1132
12596TIP3    H259280   4.202   6.679  12.721  0.4119 -0.9472  0.7089
12597TIP3   OH259281   0.506   2.968   5.421 -0.4028 -0.1255  0.4191
12597TIP3    H159282   0.489   3.044   5.366 -1.1099 -0.6582 -0.1224
12597TIP3    H259283   0.446   2.978   5.495 -3.1513 -1.9106 -1.4018
12598TIP3   OH259284   0.764   0.807  14.036 -0.3424  0.3083 -0.0374
12598TIP3    H159285   0.780   0.874  13.969 -1.3469  1.3823  0.7606
12598TIP3    H259286   0.752   0.856  14.117 -0.4397 -0.8903  0.7008
12599TIP3   OH259287   2.119   1.692  15.910  0.4497  0.1023  0.6582
12599TIP3    H159288   2.058   1.679  15.837 -0.1096  1.3234  0.8695
12599TIP3    H259289   2.080   1.644  15.983  0.7999 -0.7868  0.2702
12600TIP3   OH259290   1.014   6.661  10.432 -0.5750  0.4497 -0.2954
12600TIP3    H159291   1.065   6.720  10.377  1.1078  0.2360  0.9544
12600TIP3    H259292   1.064   6.654  10.513 -2.6616  0.2943  1.0582
12601TIP3   OH259293   3.808   6.617   3.207 -0.6159  0.3052  0.0743
12601TIP3    H159294   3.722   6.626   3.165  0.0629  2.5393 -1.0351
12601TIP3    H259295   3.790   6.576   3.291 -3.0483  2.3227  0.6611
12602TIP3   OH259296   2.164   4.337  11.731  0.1602 -0.4246  0.0942
12602TIP3    H159297   2.229   4.336  11.802 -0.9524 -0.8340  1.1285
12602TIP3    H259298   2.130   4.248  11.728  0.1121 -0.3837 -0.8942
12603TIP3   OH259299   5.847   4.185  15.817 -0.9880  0.1602  0.3218
12603TIP3    H159300   5.938   4.162  15.801 -0.6893  1.2878  0.3283
12603TIP3    H259301   5.809   4.108  15.860  0.2105  0.0545  1.2227
12604TIP3   OH259302   1.046   5.250  14.800  0.4170  0.0491  0.6236
12604TIP3    H159303   1.084   5.273  14.885  1.0815 -0.7813  0.5627
12604TIP3    H259304   1.108   5.188  14.762 -1.7762 -2.7532  1.2611
12605TIP3   OH259305   1.909   5.625  12.644 -0.1522 -0.2415 -0.0823
12605TIP3    H159306   1.932   5.712  12.613 -0.1780 -0.1712  0.0920
12605TIP3    H259307   1.909   5.570  12.566 -0.6077  0.0158 -0.2707
12606TIP3   OH259308   2.270   3.632   5.507 -0.7677  0.2840  0.4816
12606TIP3    H159309   2.335   3.567   5.535 -1.2337  0.2676  1.5938
12606TIP3    H259310   2.264   3.693   5.581 -0.6960  1.3273 -0.3507
12607TIP3   OH259311   4.967   1.718  14.526  0.1427 -0.3237  0.2734
12607TIP3    H159312   5.006   1.671  14.600 -1.4154 -0.0207  1.3405
12607TIP3    H259313   5.016   1.688  14.450  1.1553 -1.3941  1.3049
12608TIP3   OH259314   6.279   2.990   2.190 -0.2787 -0.2348  0.2313
12608TIP3    H159315   6.202   3.009   2.243 -0.4892 -0.1203 -0.1083
12608TIP3    H259316   6.351   2.982   2.252 -0.3964  0.5613  0.4723
12609TIP3   OH259317   1.176   0.075  17.144 -0.1496 -0.6287 -0.2595
12609TIP3    H159318   1.107   0.141  17.140 -1.0159 -1.5581 -0.9027
12609TIP3    H259319   1.158   0.017  17.070  1.2721 -0.9441 -0.3927
12610TIP3   OH259320   4.092   6.167   1.820  0.3770 -0.3817  0.9213
12610TIP3    H159321   4.066   6.254   1.851  1.1481 -1.2195  4.2257
12610TIP3    H259322   4.009   6.118   1.814  0.0039  0.3383 -0.4454
12611TIP3   OH259323   3.172   6.692   6.186 -0.1717 -0.0652 -0.1989
12611TIP3    H159324   3.267   6.682   6.186  0.2073  2.0865 -3.0175
12611TIP3    H259325   3.155   6.769   6.241 -0.3584 -0.6467  0.5775
12612TIP3   OH259326   1.237   3.688   1.981 -0.6123  1.2334  1.1092
12612TIP3    H159327   1.184   3.614   1.952 -0.3158  1.8960 -1.3209
12612TIP3    H259328   1.220   3.695   2.075 -0.1191 -2.3179  1.5834
12613TIP3   OH259329   6.800   5.189  14.587  0.1022  0.3298 -1.0861
12613TIP3    H159330   6.864   5.181  14.657 -1.3310 -1.9437  0.1294
12613TIP3    H259331   6.852   5.190  14.507  1.7135 -0.6972 -0.1291
12614TIP3   OH259332   3.908   6.557  10.790 -0.3385  0.0818  0.1668
12614TIP3    H159333   3.857   6.596  10.719 -0.8915 -2.2871 -0.8265
12614TIP3    H259334   3.955   6.631  10.829 -2.6250  1.9674 -0.4434
12615TIP3   OH259335   4.518   4.409   5.988 -0.4970  0.1219 -0.0005
12615TIP3    H159336   4.469   4.436   6.065 -0.9409 -0.5532 -0.0378
12615TIP3    H259337   4.496   4.317   5.977 -1.1968  0.4550 -1.5151
12616TIP3   OH259338   5.205   2.830   1.239 -0.0451  0.1268 -0.8051
12616TIP3    H159339   5.196   2.787   1.155  0.8999  0.5235 -1.1289
12616TIP3    H259340   5.164   2.771   1.302 -0.2654 -0.4274 -1.4683
12617TIP3   OH259341   1.525   0.715  16.131 -0.0457 -0.2966 -0.2436
12617TIP3    H159342   1.590   0.769  16.087  0.3210 -0.2988  0.2957
12617TIP3    H259343   1.445   0.767  16.128 -0.2219 -0.6132 -1.5864
12618TIP3   OH259344   3.973   4.601  12.428  0.0030  0.0871  0.0579
12618TIP3    H159345   3.932   4.651  12.499 -0.5089 -0.2148 -0.0171
12618TIP3    H259346   4.002   4.667  12.365  2.5328  0.5473  1.5791
12619TIP3   OH259347   3.323   2.097   3.633  0.1730 -0.1638 -0.2486
12619TIP3    H159348   3.323   2.038   3.709 -0.2401 -0.2309 -0.2973
12619TIP3    H259349   3.320   2.184   3.671  2.2611 -0.0849 -0.1311
12620TIP3   OH259350   5.157   4.507   1.490  0.2945  0.3256 -0.3105
12620TIP3    H159351   5.140   4.583   1.545 -0.8307  0.3443 -0.6507
12620TIP3    H259352   5.190   4.440   1.550  2.1460  1.3307 -0.1408
12621TIP3   OH259353   3.240   5.466   0.103  0.3276  0.3139 -0.0644
12621TIP3    H159354   3.248   5.474   0.198  1.8877  1.1223 -0.2284
12621TIP3    H259355   3.256   5.554   0.070 -1.5931  0.3513 -1.0474
12622TIP3   OH259356   1.799   4.036   2.955  0.2911 -0.4090  0.6494
12622TIP3    H159357   1.706   4.053   2.938  0.7115  1.9717  0.3794
12622TIP3    H259358   1.813   4.064   3.046  0.7443 -0.8094  0.7093
12623TIP3   OH259359   3.877   0.764   1.375 -0.2002  0.8606 -0.2918
12623TIP3    H159360   3.852   0.830   1.440  0.8651  1.7708 -0.7752
12623TIP3    H259361   3.972   0.763   1.377 -0.1838 -1.9423  0.9137
12624TIP3   OH259362   5.496   0.806   4.674  0.6462 -0.1824 -0.1509
12624TIP3    H159363   5.492   0.775   4.584  0.3248 -2.6739  0.6615
12624TIP3    H259364   5.415   0.855   4.687 -0.1263 -1.2939 -0.7172
12625TIP3   OH259365   2.015   0.393  16.827  0.0198 -0.2247  0.4723
12625TIP3    H159366   1.958   0.324  16.794 -1.8778  0.9083  1.2501
12625TIP3    H259367   2.009   0.463  16.763  0.9084 -0.2458  0.3453
12626TIP3   OH259368   6.382   0.787   3.471  0.7529  0.2523  0.0624
12626TIP3    H159369   6.475   0.769   3.484  0.9025  0.4292 -0.7640
12626TIP3    H259370   6.377   0.879   3.449  0.4481  0.0864 -0.5830
12627TIP3   OH259371   4.563   6.792  14.706  0.8144  0.0105 -0.3250
12627TIP3    H159372   4.602   6.705  14.710 -0.1224 -0.4047  0.2658
12627TIP3    H259373   4.538   6.803  14.615  1.5158 -0.0729 -0.5311
12628TIP3   OH259374   2.559   4.815  13.786 -0.1516 -0.2429 -0.3466
12628TIP3    H159375   2.572   4.808  13.692  0.4957  0.0436 -0.2848
12628TIP3    H259376   2.648   4.823  13.822 -0.4401  0.5828  0.2036
12629TIP3   OH259377   3.905   1.047  16.790 -0.5262  0.0623  0.5462
12629TIP3    H159378   3.956   1.091  16.858 -0.1650 -0.0379  0.3407
12629TIP3    H259379   3.815   1.047  16.824 -0.2500 -0.5602  1.3218
12630TIP3   OH259380   3.701   2.084  12.410 -0.0354 -0.4358 -0.6137
12630TIP3    H159381   3.610   2.109  12.424  0.2174  0.6225 -0.7813
12630TIP3    H259382   3.750   2.130  12.478  0.4147 -0.7804 -0.6937
12631TIP3   OH259383   6.486   0.279  14.846 -0.5470  0.0764  0.5359
12631TIP3    H159384   6.421   0.317  14.788 -0.4464 -0.4541  0.0702
12631TIP3    H259385   6.513   0.198  14.803  0.2848  0.1962  0.8112
12632TIP3   OH259386   4.991   3.395   1.077  0.0783 -0.0821 -0.4023
12632TIP3    H159387   5.054   3.466   1.089  1.6075 -1.4381  0.1088
12632TIP3    H259388   5.014   3.331   1.145 -0.7928 -1.3611 -1.2551
12633TIP3   OH259389   3.528   5.232  12.435  0.3139  0.0325  0.5162
12633TIP3    H159390   3.563   5.228  12.346  0.1712  1.8858  0.3369
12633TIP3    H259391   3.544   5.145  12.471 -1.5282 -1.5082 -2.0037
12634TIP3   OH259392   5.235   5.019   2.193  0.0097 -0.0366 -0.1443
12634TIP3    H159393   5.170   5.036   2.261  0.9016 -0.5599  0.8557
12634TIP3    H259394   5.221   5.090   2.130 -0.8765  0.4259  0.5412
12635TIP3   OH259395   3.042   1.752  11.581  0.1556  0.1937  0.2400
12635TIP3    H159396   2.971   1.732  11.520 -0.9305  1.3372  1.0716
12635TIP3    H259397   2.997   1.783  11.660  1.5972  0.9286  0.7972
12636TIP3   OH259398   3.844   2.788  16.643 -0.0937 -0.1282 -0.2644
12636TIP3    H159399   3.912   2.729  16.677  1.5896  1.8019 -0.0855
12636TIP3    H259400   3.859   2.790  16.549 -1.6445 -1.7117 -0.5896
12637TIP3   OH259401   3.458   4.384   0.525  0.5247  0.5405  0.6243
12637TIP3    H159402   3.551   4.401   0.510  0.4382  1.3574  0.9935
12637TIP3    H259403   3.415   4.418   0.446  0.4030  1.5839  1.1262
12638TIP3   OH259404   0.627   5.742   3.956  0.5164  0.0819 -0.3175
12638TIP3    H159405   0.639   5.791   3.875  1.2466  0.2242 -0.1233
12638TIP3    H259406   0.533   5.748   3.973  0.0965 -1.1708 -1.9244
12639TIP3   OH259407   6.759   5.300   5.760 -0.2353  0.2714  0.3606
12639TIP3    H159408   6.762   5.395   5.768 -0.3497  0.3766 -0.6910
12639TIP3    H259409   6.670   5.277   5.788 -0.7739  0.6589 -0.9444
12640TIP3   OH259410   0.897   4.444   5.767 -0.1013  0.4416  0.5506
12640TIP3    H159411   0.926   4.371   5.822  0.1576  0.8201  0.9245
12640TIP3    H259412   0.842   4.496   5.825 -1.1037  0.0226  0.0021
12641TIP3   OH259413   4.754   5.877   2.555  0.0307  0.2320 -1.1439
12641TIP3    H159414   4.836   5.831   2.540  0.1502  0.2943 -0.7088
12641TIP3    H259415   4.724   5.844   2.640  0.3337  1.2658 -0.6181
12642TIP3   OH259416   3.878   4.559  13.589 -0.1017  0.2452 -0.0899
12642TIP3    H159417   3.866   4.497  13.660 -1.6213 -0.9824 -1.3457
12642TIP3    H259418   3.933   4.628  13.626 -1.6277  0.1654  2.5477
12643TIP3   OH259419   1.631   6.486  11.375  0.0924  0.2579 -0.3558
12643TIP3    H159420   1.702   6.550  11.367 -0.1401  0.8534  1.8858
12643TIP3    H259421   1.573   6.521  11.441 -0.7691 -1.6387 -0.0256
12644TIP3   OH259422   0.395   4.245   4.463  0.1620 -0.6636  0.1995
12644TIP3    H159423   0.456   4.302   4.417 -1.3377  0.2250 -0.7553
12644TIP3    H259424   0.418   4.254   4.555  2.2226 -1.2867 -0.2080
12645TIP3   OH259425   2.426   0.898  15.570 -0.3493 -0.6445 -0.1006
12645TIP3    H159426   2.431   0.808  15.601  0.4057 -0.9512 -1.0768
12645TIP3    H259427   2.336   0.908  15.539  0.2008 -1.8829 -2.3048
12646TIP3   OH259428   6.400   3.299   2.902  0.6593 -0.1154  0.4631
12646TIP3    H159429   6.331   3.309   2.836  1.1833 -0.9881 -0.2319
12646TIP3    H259430   6.442   3.216   2.880  1.8902  0.3747  0.9283
12647TIP3   OH259431   1.259   1.013   3.879  0.2503 -0.1591  0.2927
12647TIP3    H159432   1.278   1.003   3.972 -0.6080  1.4675  0.6733
12647TIP3    H259433   1.335   1.059   3.844 -0.0238  0.4416  0.4757
12648TIP3   OH259434   0.388   5.320   1.256  0.2314 -0.3857  0.7878
12648TIP3    H159435   0.458   5.273   1.209  0.6990  0.8749  0.1786
12648TIP3    H259436   0.307   5.291   1.214  0.5948  0.1780 -0.3187
12649TIP3   OH259437   0.942   6.539  11.711  0.4584 -0.1852 -0.0625
12649TIP3    H159438   1.009   6.577  11.654  0.9424  1.3273  1.4260
12649TIP3    H259439   0.875   6.607  11.717 -0.4052 -1.0085 -0.1767
12650TIP3   OH259440   2.804   5.288  16.967 -0.1718 -0.1050 -0.3024
12650TIP3    H159441   2.792   5.275  17.061 -3.4638  2.5111 -0.1996
12650TIP3    H259442   2.894   5.320  16.959  0.7613 -1.9936  1.6813
12651TIP3   OH259443   1.840   0.501  10.420  0.1683  0.3326 -0.3208
12651TIP3    H159444   1.808   0.580  10.463  1.9028  0.6699  0.4013
12651TIP3    H259445   1.850   0.437  10.490 -1.0286 -0.4994 -0.8693
12652TIP3   OH259446   2.850   0.935  14.768  0.6702 -0.0986 -0.6604
12652TIP3    H159447   2.894   0.857  14.804  0.3333 -0.9528 -2.0328
12652TIP3    H259448   2.913   1.006  14.783  2.4833 -1.2317 -2.2989
12653TIP3   OH259449   4.039   3.441   0.357 -0.1155  0.3215  0.1563
12653TIP3    H159450   4.012   3.533   0.346  0.3023  0.7628  2.3043
12653TIP3    H259451   3.958   3.391   0.348 -0.8083  1.1624  1.4185
12654TIP3   OH259452   2.523   5.414  13.573 -0.4197  0.0021 -0.1409
12654TIP3    H159453   2.479   5.442  13.493 -0.2879  1.1754  0.1864
12654TIP3    H259454   2.527   5.492  13.627 -1.4982 -0.9988  1.4889
12655TIP3   OH259455   2.063   5.744   0.376  0.2118 -0.2993 -0.7563
12655TIP3    H159456   1.989   5.777   0.326  0.0103 -0.8658 -0.8317
12655TIP3    H259457   2.096   5.670   0.325 -0.8835 -1.8029  0.6327
12656TIP3   OH259458   5.965   0.979  16.325 -0.4817 -0.0819  0.7343
12656TIP3    H159459   6.002   0.979  16.413  0.1980  0.6177  0.4671
12656TIP3    H259460   5.960   0.887  16.300  1.1715 -0.2156  0.7673
12657TIP3   OH259461   6.264   0.033  16.795 -0.3881  0.0048 -0.3322
12657TIP3    H159462   6.201   0.102  16.816 -1.9282 -1.6523  0.7151
12657TIP3    H259463   6.280  -0.011  16.878  1.9399  0.1310 -0.6374
12658TIP3   OH259464   6.216   0.401   0.931  0.3859  0.0559 -0.2703
12658TIP3    H159465   6.292   0.428   0.983  0.6273  0.6217 -0.9111
12658TIP3    H259466   6.155   0.475   0.937  1.0164  0.7667 -1.9600
12659TIP3   OH259467   4.871   6.805  17.097  0.0640 -0.1416  0.1030
12659TIP3    H159468   4.851   6.810  17.191 -0.4903 -1.1582  0.0569
12659TIP3    H259469   4.835   6.721  17.070 -0.9520  0.6995 -1.2997
12660TIP3   OH259470   1.866   5.512   5.631 -0.2845  0.1024  0.1652
12660TIP3    H159471   1.790   5.539   5.683 -1.4076  0.5654 -1.6179
12660TIP3    H259472   1.900   5.593   5.593 -1.8986 -0.4798 -2.8786
12661TIP3   OH259473   4.208   4.894  12.458  0.0361  0.2700  0.5289
12661TIP3    H159474   4.140   4.930  12.516 -3.1777 -1.3166 -1.9014
12661TIP3    H259475   4.227   4.965  12.397 -2.7294 -0.4082 -1.3212
12662TIP3   OH259476   6.163   6.775   0.741  0.2172 -0.1552 -0.0909
12662TIP3    H159477   6.240   6.719   0.752 -0.3715 -0.9796 -0.0530
12662TIP3    H259478   6.088   6.715   0.750 -0.4082  0.1674 -2.3844
12663TIP3   OH259479   5.369   3.263  12.643 -0.6520 -0.5025 -0.4607
12663TIP3    H159480   5.336   3.180  12.607 -1.9166 -0.6493  0.9523
12663TIP3    H259481   5.461   3.246  12.663 -0.3063 -0.8727 -2.1575
12664TIP3   OH259482   4.406   1.774  12.263  0.0073  0.6148  0.4946
12664TIP3    H159483   4.426   1.692  12.219 -1.3385  1.1506 -1.2206
12664TIP3    H259484   4.311   1.779  12.263 -0.1531  0.3994  4.0823
12665TIP3   OH259485   0.167   1.335   2.079 -0.3050  0.4431 -0.6944
12665TIP3    H159486   0.229   1.326   2.151 -1.6182 -0.4376  0.3624
12665TIP3    H259487   0.191   1.418   2.037  0.8075  0.7077  0.4146
12666TIP3   OH259488   4.633   5.573  14.281 -0.2337  0.0879 -0.2826
12666TIP3    H159489   4.659   5.521  14.205  0.3014  1.0969 -0.8242
12666TIP3    H259490   4.697   5.552  14.348 -1.0373 -1.2327  0.0954
12667TIP3   OH259491   2.220   4.774   4.958 -0.1755 -0.1693 -0.5329
12667TIP3    H159492   2.270   4.698   4.987 -1.8063 -1.2852 -0.5553
12667TIP3    H259493   2.275   4.814   4.890  0.1424 -2.0833 -1.4597
12668TIP3   OH259494   5.188   5.284  13.618 -0.2988 -0.0569  0.3002
12668TIP3    H159495   5.269   5.313  13.660 -0.0008 -0.7606  0.2349
12668TIP3    H259496   5.119   5.339  13.656  0.0078 -0.4531  1.4588
12669TIP3   OH259497   3.455   6.541  15.409 -0.0685  0.4406 -0.7468
12669TIP3    H159498   3.473   6.491  15.329  0.2980  2.0649 -1.7314
12669TIP3    H259499   3.540   6.574  15.437  0.1080 -1.5610  1.4082
12670TIP3   OH259500   5.445   5.945  11.239 -0.4139 -0.1708 -0.1489
12670TIP3    H159501   5.430   5.991  11.156  1.0264  1.0986  0.2369
12670TIP3    H259502   5.527   5.898  11.225 -0.2087 -0.0187  0.5209
12671TIP3   OH259503   5.510   6.228   0.117 -0.3274  0.4353  0.1213
12671TIP3    H159504   5.591   6.269   0.148 -0.0719  0.1328 -0.1363
12671TIP3    H259505   5.474   6.292   0.055 -0.0283  0.3654 -0.1329
12672TIP3   OH259506   5.110   2.100  16.832  0.1493 -0.6859  0.3911
12672TIP3    H159507   5.106   2.127  16.741  1.1568 -2.0511 -0.1026
12672TIP3    H259508   5.021   2.073  16.853 -0.5479  1.4830  0.4659
12673TIP3   OH259509   1.102   0.272  13.847  0.4754 -0.1095  0.3285
12673TIP3    H159510   1.122   0.182  13.873 -0.5769 -0.0335  1.5105
12673TIP3    H259511   1.030   0.263  13.784  1.5013 -0.1627 -0.8771
12674TIP3   OH259512   6.780   3.846  13.659 -0.0110 -0.0350  0.0283
12674TIP3    H159513   6.866   3.808  13.673 -0.7796 -1.6135  0.7487
12674TIP3    H259514   6.783   3.931  13.702  0.7140 -0.7213  1.3765
12675TIP3   OH259515   6.676   5.938  10.771 -0.0386  0.2507 -0.1550
12675TIP3    H159516   6.587   5.927  10.739  0.1179 -1.6184 -0.0429
12675TIP3    H259517   6.692   5.860  10.824  0.2388  2.4189  3.2768
12676TIP3   OH259518   0.480   0.602  12.741  0.3295 -0.0653  0.4296
12676TIP3    H159519   0.437   0.565  12.818 -1.3252  1.5661  0.3396
12676TIP3    H259520   0.428   0.572  12.667  0.3350  0.5569  0.1693
12677TIP3   OH259521   3.502   6.123   2.654  0.1777 -0.2528  0.2708
12677TIP3    H159522   3.521   6.216   2.644  1.3020 -0.3014  1.6441
12677TIP3    H259523   3.468   6.096   2.569  0.6528  1.2159 -0.4170
12678TIP3   OH259524   3.246   4.400   4.774 -0.2410  0.4665  0.1621
12678TIP3    H159525   3.342   4.407   4.766  0.1134 -2.1151  0.9596
12678TIP3    H259526   3.216   4.389   4.683  0.6229 -1.6965  0.0733
12679TIP3   OH259527   5.420   2.515  12.145  0.2509  0.5807  0.1446
12679TIP3    H159528   5.487   2.449  12.159 -1.4995 -0.9154  2.2312
12679TIP3    H259529   5.469   2.597  12.137  2.3695 -0.6098  0.1305
12680TIP3   OH259530   3.107   1.895  13.916  0.0485  0.6581 -0.1530
12680TIP3    H159531   3.057   1.882  13.997 -0.3492 -1.3076 -0.6607
12680TIP3    H259532   3.047   1.945  13.860 -1.8906 -2.4600 -1.0992
12681TIP3   OH259533   5.912   5.294   2.707 -0.4212  0.2515 -0.9303
12681TIP3    H159534   5.857   5.340   2.643 -1.0179  0.6555 -0.1409
12681TIP3    H259535   5.989   5.351   2.718 -1.5033  1.5158  0.6139
12682TIP3   OH259536   1.855   4.530   2.199  0.4284  0.0062 -0.0004
12682TIP3    H159537   1.950   4.527   2.184  0.5131 -0.4233  0.5782
12682TIP3    H259538   1.833   4.623   2.196  0.5776  0.0317 -1.8127
12683TIP3   OH259539   5.180   1.008  13.045 -0.1417  0.1259  0.5576
12683TIP3    H159540   5.098   1.027  13.089 -0.2440  0.0106  0.4148
12683TIP3    H259541   5.159   1.011  12.952 -0.1603 -0.7010  0.5274
12684TIP3   OH259542   1.737   0.992  11.559 -0.2345 -0.7062 -0.3720
12684TIP3    H159543   1.725   0.919  11.620 -0.5842 -0.0006  0.4350
12684TIP3    H259544   1.826   1.023  11.577  0.1773 -1.3676 -1.2153
12685TIP3   OH259545   0.027   1.644  13.798 -0.1058  0.3262 -0.0305
12685TIP3    H159546   0.014   1.608  13.886  2.0518 -0.8935 -0.1255
12685TIP3    H259547  -0.023   1.725  13.797 -2.1755 -0.8356  1.4738
12686TIP3   OH259548   0.469   1.956   2.151 -0.0516 -0.0539 -0.3949
12686TIP3    H159549   0.418   1.895   2.097 -0.9162  0.8210 -0.5882
12686TIP3    H259550   0.556   1.917   2.154 -0.2536 -0.6568 -1.5784
12687TIP3   OH259551   1.547   2.224   3.803  0.0448 -0.2157 -0.7156
12687TIP3    H159552   1.461   2.262   3.820  0.3938  0.8909 -1.3128
12687TIP3    H259553   1.547   2.142   3.852 -0.9643  0.2685  0.1419
12688TIP3   OH259554   4.124   3.421  12.237 -0.7502 -0.5749 -0.3204
12688TIP3    H159555   4.201   3.456  12.194 -1.3447 -0.0292 -0.9730
12688TIP3    H259556   4.153   3.397  12.325  0.7187 -2.5599 -1.2823
12689TIP3   OH259557   5.462   5.867   3.942  0.6504  0.0612 -0.0499
12689TIP3    H159558   5.384   5.922   3.951  0.3453 -0.2029 -1.0099
12689TIP3    H259559   5.524   5.921   3.894  1.1829  0.3763  0.9595
12690TIP3   OH259560   2.898   5.477  12.974  0.0586  0.6586  0.3446
12690TIP3    H159561   2.861   5.457  12.888 -2.6999 -1.0824  1.7924
12690TIP3    H259562   2.825   5.510  13.025  1.2346  0.1442  2.4766
12691TIP3   OH259563   1.609   0.007  12.702 -0.7714  0.0413 -0.1108
12691TIP3    H159564   1.525   0.051  12.695 -0.4063  0.5543 -1.7989
12691TIP3    H259565   1.612  -0.050  12.625  0.6175  0.3784 -0.3222
12692TIP3   OH259566   5.821   0.882  12.648  0.2176  0.2856  0.0885
12692TIP3    H159567   5.799   0.822  12.719  3.4994 -1.5994 -0.2807
12692TIP3    H259568   5.808   0.830  12.568  2.2748  0.2632 -0.2945
12693TIP3   OH259569   4.418   2.423  13.452 -0.1898  0.1764 -0.0914
12693TIP3    H159570   4.471   2.345  13.469  0.0417  0.6162  1.3106
12693TIP3    H259571   4.416   2.430  13.357  0.2718 -1.2060 -0.2234
12694TIP3   OH259572   5.075   3.871  15.795 -0.0954  0.8971 -0.4041
12694TIP3    H159573   5.094   3.868  15.701  0.5010  1.8580 -0.3235
12694TIP3    H259574   5.160   3.884  15.836 -0.5447  2.1596  0.1635
12695TIP3   OH259575   1.127   1.379  13.496 -0.8148 -0.2807  0.2731
12695TIP3    H159576   1.209   1.421  13.469 -0.1560 -1.3684  0.5334
12695TIP3    H259577   1.115   1.307  13.434 -1.4022 -0.3454  0.4499
12696TIP3   OH259578   0.394   1.060  12.118  0.7195 -0.2509 -0.6716
12696TIP3    H159579   0.448   1.133  12.146 -0.3634  0.2806  0.0923
12696TIP3    H259580   0.339   1.096  12.048 -0.7787  0.0880  0.6230
12697TIP3   OH259581   0.433   4.527  17.116  0.0903 -0.3489  0.3550
12697TIP3    H159582   0.468   4.604  17.071 -0.3644  0.1475  0.8395
12697TIP3    H259583   0.440   4.456  17.051 -0.0489  0.2330 -0.3044
12698TIP3   OH259584   3.824   4.237   5.452  0.5092  0.0936 -0.0000
12698TIP3    H159585   3.862   4.151   5.472  2.0193  0.8942  0.7718
12698TIP3    H259586   3.787   4.267   5.535 -0.5274 -0.0307 -0.3993
12699TIP3   OH259587   3.020   6.531   5.546  0.4106  0.1180 -0.7637
12699TIP3    H159588   3.016   6.437   5.564  0.1239  0.2299 -0.2132
12699TIP3    H259589   3.111   6.556   5.564  0.0151  0.3293  1.1480
12700TIP3   OH259590   6.668   0.826   2.903 -0.3040  0.2308 -0.1072
12700TIP3    H159591   6.679   0.842   2.997  0.8755  2.6032 -0.5901
12700TIP3    H259592   6.711   0.900   2.860 -4.9545  1.8939 -2.5312
12701TIP3   OH259593   0.669   3.329   1.228 -0.3516  0.3449 -0.1148
12701TIP3    H159594   0.652   3.321   1.135 -2.2110  1.7312  0.0413
12701TIP3    H259595   0.584   3.349   1.267  0.4715  0.4027  1.8046
12702TIP3   OH259596   1.571   4.912   2.212  0.0973 -0.0310  0.1318
12702TIP3    H159597   1.582   4.858   2.134  1.3996  0.2453  0.1098
12702TIP3    H259598   1.583   5.002   2.182  1.3719  0.0326  0.7619
12703TIP3   OH259599   3.646   0.595  15.688  0.2506 -0.4420 -0.3190
12703TIP3    H159600   3.686   0.564  15.769  1.5351 -0.5463 -0.9670
12703TIP3    H259601   3.697   0.553  15.618  1.1908  2.0378 -1.2134
12704TIP3   OH259602   3.115   4.368   4.544  0.6101 -0.2210  0.1526
12704TIP3    H159603   3.136   4.281   4.511 -4.0137 -1.4188 -0.1905
12704TIP3    H259604   3.100   4.421   4.466  1.3869  0.3880  0.3931
12705TIP3   OH259605   3.756   5.915  14.080  0.3075  0.7586 -0.0170
12705TIP3    H159606   3.846   5.886  14.064 -0.2111  0.0310 -1.9126
12705TIP3    H259607   3.710   5.837  14.111 -0.2685  0.3584 -1.7371
12706TIP3   OH259608   6.389   1.275  16.879  0.0697 -0.1651 -0.0150
12706TIP3    H159609   6.392   1.327  16.799 -0.5129  0.2216  0.2051
12706TIP3    H259610   6.296   1.271  16.901  0.1873 -0.6066  0.4241
12707TIP3   OH259611   0.251   4.560  13.196 -0.0959 -0.1836  0.4693
12707TIP3    H159612   0.299   4.520  13.269  0.7054 -0.0606  0.0199
12707TIP3    H259613   0.260   4.498  13.124  0.7308  0.5350 -0.0832
12708TIP3   OH259614   3.930   6.592  13.276 -0.4134  0.3561 -0.1778
12708TIP3    H159615   3.981   6.650  13.220  1.2533 -0.5798  0.2992
12708TIP3    H259616   3.915   6.514  13.222 -0.3998  0.1939  0.0503
12709TIP3   OH259617   6.075   3.793  16.853 -0.5287  0.5741  0.6043
12709TIP3    H159618   6.125   3.782  16.934 -0.9223  3.2356  1.3090
12709TIP3    H259619   6.122   3.741  16.788  0.8309 -0.1667  2.1137
12710TIP3   OH259620   4.234   6.287  15.492  0.0247  0.1756 -0.1707
12710TIP3    H159621   4.269   6.258  15.408 -0.6151 -1.3321  0.0584
12710TIP3    H259622   4.139   6.285  15.481 -0.0657  1.4066  0.1460
12711TIP3   OH259623   2.711   4.426  16.939 -0.2930  0.1808  0.0353
12711TIP3    H159624   2.719   4.500  17.000 -2.4913  0.3629  0.2028
12711TIP3    H259625   2.683   4.467  16.857  0.6390 -0.2771 -0.5255
12712TIP3   OH259626   3.988   4.228  11.247  0.2636  0.6930  0.1670
12712TIP3    H159627   3.895   4.214  11.266  0.2264  0.9892  0.2163
12712TIP3    H259628   4.031   4.147  11.273 -0.3400 -0.5652 -2.4792
12713TIP3   OH259629   6.794   6.044  12.376  0.3817 -0.3741 -0.3932
12713TIP3    H159630   6.783   5.983  12.303  0.2349 -0.6458 -0.1484
12713TIP3    H259631   6.782   5.990  12.454 -0.6215  0.1265 -0.1803
12714TIP3   OH259632   5.007   4.037   2.185 -0.5346 -0.0061 -0.3099
12714TIP3    H159633   5.039   4.086   2.109 -2.8497  0.4640 -1.0701
12714TIP3    H259634   4.964   4.103   2.239 -1.4860 -0.7919 -0.0802
12715TIP3   OH259635   0.677   6.254  16.640  0.6606 -0.0186 -0.2001
12715TIP3    H159636   0.705   6.163  16.652 -1.0064 -0.2385  3.5717
12715TIP3    H259637   0.740   6.305  16.693  0.6833  0.8620 -1.0470
12716TIP3   OH259638   3.149   4.925   1.531  0.3859  0.1744 -0.3991
12716TIP3    H159639   3.185   4.836   1.529 -0.0548 -0.0118 -0.1516
12716TIP3    H259640   3.120   4.941   1.441  0.1726 -0.0556 -0.3721
12717TIP3   OH259641   1.392   4.841  16.888  0.4807 -0.3469 -0.3347
12717TIP3    H159642   1.412   4.748  16.901  1.3656 -0.1937 -0.5104
12717TIP3    H259643   1.476   4.885  16.901 -0.1951  0.5806  1.1928
12718TIP3   OH259644   5.861   4.708   6.375 -0.3465 -0.0353  0.1372
12718TIP3    H159645   5.830   4.716   6.285  1.3411 -0.2105 -0.5126
12718TIP3    H259646   5.907   4.623   6.376  1.3837  0.8695  0.5616
12719TIP3   OH259647   1.864   6.272  15.335  0.4093  0.6495 -0.2263
12719TIP3    H159648   1.905   6.187  15.318 -0.6999  0.1426 -0.4765
12719TIP3    H259649   1.926   6.336  15.299  0.0601 -0.1925 -2.4903
12720TIP3   OH259650   2.580   4.963  13.070  0.1479 -0.2109 -0.7275
12720TIP3    H159651   2.585   5.040  13.013 -1.8158 -0.4142 -1.2578
12720TIP3    H259652   2.514   4.986  13.135  3.0199  0.3804  2.1907
12721TIP3   OH259653   0.058   4.302   5.342 -0.2875 -0.0610  0.2944
12721TIP3    H159654   0.016   4.231   5.293  1.3570 -1.4436  0.8100
12721TIP3    H259655  -0.006   4.326   5.409 -0.7748 -1.2291  0.2668
12722TIP3   OH259656   2.868   1.623  11.042 -0.0994 -0.4326  0.5804
12722TIP3    H159657   2.828   1.667  11.116 -0.5077  1.7153 -0.8304
12722TIP3    H259658   2.798   1.568  11.006 -0.6031  0.2856  0.4484
12723TIP3   OH259659   2.435   3.860  11.845 -0.5720 -0.2560 -0.4085
12723TIP3    H159660   2.526   3.841  11.821  0.1916  1.8127  0.6116
12723TIP3    H259661   2.398   3.901  11.767  0.4803  2.0794  0.2098
12724TIP3   OH259662   3.317   3.951  11.924 -0.9384 -0.7509 -0.0135
12724TIP3    H159663   3.401   3.991  11.947  0.0489 -1.0537 -2.7175
12724TIP3    H259664   3.280   3.923  12.007 -0.0654  2.5886  1.6710
12725TIP3   OH259665   2.113   3.477  15.110 -0.1863 -0.0849 -0.0466
12725TIP3    H159666   2.050   3.447  15.175 -0.1324 -2.1808 -0.8844
12725TIP3    H259667   2.197   3.474  15.156 -0.3242 -0.2135  0.2028
12726TIP3   OH259668   6.788   6.764   0.057  0.2614  0.1198 -0.2950
12726TIP3    H159669   6.787   6.726   0.145  1.5266 -0.4520 -0.4982
12726TIP3    H259670   6.876   6.745   0.024  0.4340  1.9160 -0.9895
12727TIP3   OH259671   6.170   5.703   1.154 -0.4996  0.3082  0.2912
12727TIP3    H159672   6.081   5.725   1.181 -1.0315  0.3843 -1.4236
12727TIP3    H259673   6.196   5.774   1.096  0.5736  0.1268  0.5277
12728TIP3   OH259674   3.424   3.859   4.848  0.1746 -0.5699 -0.1175
12728TIP3    H159675   3.516   3.884   4.860  0.4736 -1.3011 -0.7829
12728TIP3    H259676   3.428   3.782   4.790 -0.9089  0.2008 -1.2699
12729TIP3   OH259677   2.282   0.750  15.863 -0.2889  0.2339  0.5099
12729TIP3    H159678   2.348   0.729  15.796 -0.4917 -0.8106  0.6178
12729TIP3    H259679   2.315   0.710  15.943 -0.9167 -0.0668  0.6260
12730TIP3   OH259680   6.217   5.357  13.583 -0.1111  0.1119 -0.4506
12730TIP3    H159681   6.188   5.331  13.670  1.5659  0.6373  0.3193
12730TIP3    H259682   6.147   5.412  13.549 -0.5500  0.3593  0.8062
12731TIP3   OH259683   0.466   4.991  13.536 -0.1274 -0.5489  0.0883
12731TIP3    H159684   0.376   4.964  13.522  0.1560 -2.9125  2.0945
12731TIP3    H259685   0.514   4.909  13.550  2.1227  0.7031  0.2609
12732TIP3   OH259686   6.621   5.339   5.148  0.5588 -0.4429 -0.7714
12732TIP3    H159687   6.617   5.434   5.159 -0.0143 -0.5508 -0.0118
12732TIP3    H259688   6.570   5.323   5.069 -0.0773 -0.1901 -0.4266
12733TIP3   OH259689   3.158   1.801   4.094 -0.1396 -0.1613  0.6445
12733TIP3    H159690   3.115   1.720   4.066 -2.3039  1.2517 -0.4190
12733TIP3    H259691   3.238   1.772   4.138 -0.7615 -2.8446  0.1832
12734TIP3   OH259692   4.940   4.603  13.746 -0.0252 -0.3418  1.3074
12734TIP3    H159693   4.966   4.581  13.835  2.2017 -2.2677  0.3196
12734TIP3    H259694   5.020   4.591  13.694 -1.7020 -1.3882 -1.2531
12735TIP3   OH259695   5.282   1.668   0.618 -0.0721 -0.0034  0.1268
12735TIP3    H159696   5.296   1.610   0.544 -1.7234  1.1640 -1.1668
12735TIP3    H259697   5.273   1.755   0.579 -0.0126  0.7959  1.7958
12736TIP3   OH259698   0.003   4.473  11.050 -0.0982 -0.3233 -0.3697
12736TIP3    H159699   0.027   4.393  11.004 -0.2808 -1.0599  0.7792
12736TIP3    H259700   0.024   4.544  10.988  1.5163 -1.1523 -0.8057
12737TIP3   OH259701   4.026   2.816   1.355 -0.3347 -0.1214  0.0019
12737TIP3    H159702   3.961   2.758   1.317 -1.2603  0.8135  0.1214
12737TIP3    H259703   4.068   2.764   1.424 -0.1971 -1.0740 -0.7887
12738TIP3   OH259704   1.030   0.643   6.043  0.0854 -0.4283  0.0223
12738TIP3    H159705   1.006   0.555   6.072  0.4404 -0.5277  0.0186
12738TIP3    H259706   1.110   0.664   6.091 -0.6365  0.3733  0.9215
12739TIP3   OH259707   1.480   5.926   0.712 -0.0444  0.3412  0.4355
12739TIP3    H159708   1.429   5.942   0.633  0.8659  0.6245 -0.1016
12739TIP3    H259709   1.414   5.912   0.780 -0.9241 -2.6988 -0.8668
12740TIP3   OH259710   2.804   2.631  13.793 -0.2655 -0.5393  0.0011
12740TIP3    H159711   2.851   2.596  13.868  0.5550 -0.0737 -0.2840
12740TIP3    H259712   2.863   2.618  13.719 -0.2081  0.7999 -0.2214
12741TIP3   OH259713   4.522   6.203   5.798  0.5450 -0.4185 -0.2755
12741TIP3    H159714   4.596   6.160   5.754  0.5510 -0.8664  0.1596
12741TIP3    H259715   4.534   6.183   5.891  0.5666  0.5697 -0.0533
12742TIP3   OH259716   3.981   6.414  15.392  0.1495 -0.5418  0.1224
12742TIP3    H159717   3.908   6.473  15.373  0.3653 -0.7089 -1.3046
12742TIP3    H259718   4.021   6.396  15.307  0.3091 -2.4718  0.5568
12743TIP3   OH259719   4.014   3.119  12.273  0.0228  0.5199 -0.2394
12743TIP3    H159720   3.951   3.146  12.207  1.6314 -1.0228 -2.5587
12743TIP3    H259721   4.061   3.199  12.295 -0.9366  1.1725 -0.4974
12744TIP3   OH259722   3.717   2.333  15.928 -0.4401  0.0925  0.2437
12744TIP3    H159723   3.759   2.253  15.896  1.7066  0.8388  1.0050
12744TIP3    H259724   3.628   2.307  15.948  0.4737 -2.4205  1.4529
12745TIP3   OH259725   0.593   3.723   6.496  0.1742  0.0825  0.1943
12745TIP3    H159726   0.502   3.743   6.475  0.1129  0.1051  0.4731
12745TIP3    H259727   0.617   3.787   6.562 -0.4317 -1.5198  2.0767
12746TIP3   OH259728   0.606   1.275  10.577  0.4371 -0.0115  0.5461
12746TIP3    H159729   0.521   1.232  10.565  0.8596 -0.5294 -0.8715
12746TIP3    H259730   0.596   1.329  10.655 -0.8962 -0.7950  0.9366
12747TIP3   OH259731   5.673   4.547   4.330 -0.3002 -0.4190  0.2453
12747TIP3    H159732   5.768   4.557   4.329 -0.3529  0.1973  0.7095
12747TIP3    H259733   5.641   4.610   4.266 -0.3213 -1.7114 -1.0572
12748TIP3   OH259734   4.117   4.744   0.063 -0.4175 -0.0221  0.0421
12748TIP3    H159735   4.036   4.777   0.025 -0.2015  0.6374  0.1372
12748TIP3    H259736   4.165   4.707  -0.011 -0.9272 -0.6857  0.0331
12749TIP3   OH259737   4.995   2.377  11.536  0.0615 -0.5796 -0.8134
12749TIP3    H159738   4.971   2.320  11.463  1.3739 -0.0940 -1.6648
12749TIP3    H259739   5.003   2.318  11.611 -1.3895 -1.0737 -1.0042
12750TIP3   OH259740   1.076   0.856   4.172  0.5572  0.0172  0.1097
12750TIP3    H159741   1.164   0.895   4.168  0.5489  0.0813  0.4898
12750TIP3    H259742   1.018   0.927   4.144  0.5742  0.1743  0.4607
12751TIP3   OH259743   2.236   5.343   3.927  0.2856  0.5590  0.3296
12751TIP3    H159744   2.245   5.356   4.021  0.1490  0.3690  0.3693
12751TIP3    H259745   2.220   5.431   3.892  1.5985  0.8197  0.3292
12752TIP3   OH259746   0.306   6.169   5.454  0.1309 -0.3778 -0.0394
12752TIP3    H159747   0.257   6.140   5.531 -0.2790 -0.3603 -0.2901
12752TIP3    H259748   0.307   6.093   5.396 -0.5387 -0.0585 -0.4949
12753TIP3   OH259749   2.958   5.348   0.942 -0.2438  0.3267 -0.3252
12753TIP3    H159750   2.877   5.357   0.992  0.7348  0.4021  1.3531
12753TIP3    H259751   2.977   5.437   0.912 -1.8162 -0.0216 -2.5409
12754TIP3   OH259752   6.778   2.380  13.035  0.2422 -0.0345  0.0794
12754TIP3    H159753   6.817   2.433  13.105 -0.1877 -0.3614  0.5703
12754TIP3    H259754   6.834   2.396  12.959  0.4583  0.6697  0.3784
12755TIP3   OH259755   1.439   1.332   5.758  0.0820  0.4007  0.5443
12755TIP3    H159756   1.350   1.360   5.736  0.3868  1.2540  0.3596
12755TIP3    H259757   1.479   1.312   5.674 -0.2859 -1.1377  0.7017
12756TIP3   OH259758   4.074   2.991  15.004 -0.6235  0.1105 -0.2835
12756TIP3    H159759   4.131   2.915  14.992  1.1070  1.1604  0.7598
12756TIP3    H259760   4.003   2.960  15.060  2.5480  0.1785  4.3423
12757TIP3   OH259761   2.473   0.384  11.777 -0.1895  0.1094 -0.0680
12757TIP3    H159762   2.534   0.452  11.748  0.5395 -0.9291 -1.0621
12757TIP3    H259763   2.463   0.400  11.871  1.1751  0.6526  0.0138
12758TIP3   OH259764   1.407   0.185   1.637 -0.6662 -0.4563 -0.4021
12758TIP3    H159765   1.434   0.262   1.588 -1.0564 -0.4569 -0.6194
12758TIP3    H259766   1.459   0.114   1.600  2.0357  0.1590  1.8615
12759TIP3   OH259767   0.817   0.910  15.695  0.4947 -0.0642 -0.1205
12759TIP3    H159768   0.768   0.841  15.740 -2.4549  2.0111  0.1467
12759TIP3    H259769   0.813   0.985  15.753  3.0786  0.6113 -0.6761
12760TIP3   OH259770   0.834   6.351   5.686 -0.0045  0.4728 -0.2879
12760TIP3    H159771   0.896   6.368   5.757 -0.9755 -0.5116  0.8314
12760TIP3    H259772   0.798   6.437   5.664  0.6117  0.8371  0.1094
12761TIP3   OH259773   3.111   1.154  10.620  0.3924  0.2818  0.6924
12761TIP3    H159774   3.116   1.059  10.611 -0.4606  0.2675  0.1632
12761TIP3    H259775   3.162   1.174  10.698 -0.3176 -0.7314  1.4406
12762TIP3   OH259776   3.629   0.331  14.795  0.2106  0.6185 -0.1383
12762TIP3    H159777   3.620   0.315  14.701  1.3979  0.1185 -0.1783
12762TIP3    H259778   3.610   0.424  14.805  1.5042  1.0179 -1.0979
12763TIP3   OH259779   3.433   1.108   5.675  0.1669 -0.5095  0.7576
12763TIP3    H159780   3.421   1.013   5.668 -2.0265 -0.4015  2.1552
12763TIP3    H259781   3.353   1.145   5.637  0.5077  0.7362  1.2205
12764TIP3   OH259782   6.694   6.759   5.739 -0.0682 -0.4643  0.6092
12764TIP3    H159783   6.746   6.837   5.759 -0.8802 -0.1798  1.7435
12764TIP3    H259784   6.720   6.695   5.805 -1.4582 -0.1542  1.5013
12765TIP3   OH259785   2.409   4.428   0.765 -0.0231  0.0748  0.5518
12765TIP3    H159786   2.383   4.465   0.850 -2.4097  1.0709 -0.5225
12765TIP3    H259787   2.350   4.353   0.754  0.1276  0.0828 -0.3063
12766TIP3   OH259788   5.351   3.775   5.991 -0.5685  0.0776  0.1046
12766TIP3    H159789   5.374   3.705   6.052  2.1282 -0.8345 -1.8058
12766TIP3    H259790   5.266   3.749   5.956  0.3930 -2.3676 -0.6181
12767TIP3   OH259791   4.045   3.261   4.538  0.3436 -0.1426  1.0142
12767TIP3    H159792   4.072   3.348   4.510 -0.4920 -0.4299 -0.8084
12767TIP3    H259793   4.106   3.202   4.495 -1.0500 -0.6044 -0.4050
12768TIP3   OH259794   3.099   5.876   6.817  0.5197 -0.2243  0.4493
12768TIP3    H159795   3.052   5.927   6.751  1.2598 -1.0241 -0.7378
12768TIP3    H259796   3.030   5.828   6.863  0.0821 -0.7270 -0.6886
12769TIP3   OH259797   6.793   2.221  14.273  0.1515  0.1420 -0.2641
12769TIP3    H159798   6.886   2.216  14.255  0.3377 -0.2202  0.7613
12769TIP3    H259799   6.752   2.214  14.187  1.0921  1.9465 -0.9267
12770TIP3   OH259800   3.813   2.431   2.097  0.2218  0.5534  0.3397
12770TIP3    H159801   3.812   2.526   2.110  0.1366  0.6039 -0.0203
12770TIP3    H259802   3.824   2.395   2.184  0.3284  0.8987  0.4700
12771TIP3   OH259803   2.714   4.919  11.691  0.2769 -0.2894  0.3395
12771TIP3    H159804   2.809   4.917  11.682  0.4913  1.7272  1.5101
12771TIP3    H259805   2.696   4.865  11.768  0.7680  1.3017  1.6212
12772TIP3   OH259806   3.516   2.016  12.887 -0.1498  0.2526  0.1754
12772TIP3    H159807   3.433   2.021  12.933 -0.7660  0.3056 -0.8997
12772TIP3    H259808   3.501   1.954  12.816  0.1496  1.6244 -1.1494
12773TIP3   OH259809   0.411   1.032  15.831  0.0807  0.4265 -1.0780
12773TIP3    H159810   0.466   0.988  15.766  3.7045  0.8687  1.3370
12773TIP3    H259811   0.450   1.119  15.839  0.6588  0.0175  2.3618
12774TIP3   OH259812   6.295   4.101  10.976  0.4552 -0.2339  0.8103
12774TIP3    H159813   6.274   4.194  10.979  1.1709 -0.0015 -0.6649
12774TIP3    H259814   6.223   4.059  11.024 -0.8402  0.9288 -0.0388
12775TIP3   OH259815   3.015   0.608   3.924  0.3276  0.0000 -0.0264
12775TIP3    H159816   3.079   0.599   3.994 -0.4672 -0.2077  0.6828
12775TIP3    H259817   3.062   0.578   3.845  1.1914  0.1371  0.4231
12776TIP3   OH259818   2.393   1.236  15.226 -0.6692  0.3160  0.5225
12776TIP3    H159819   2.457   1.307  15.236 -1.1563  0.8528 -0.1102
12776TIP3    H259820   2.316   1.279  15.189 -1.8932 -0.0443  2.4864
12777TIP3   OH259821   3.600   5.386  16.757 -0.8965  0.8132 -0.6190
12777TIP3    H159822   3.656   5.375  16.680  0.1928 -0.7992  0.3596
12777TIP3    H259823   3.625   5.472  16.793  0.6212  0.3464 -0.4924
12778TIP3   OH259824   6.258   5.057  13.719  0.2163 -0.0663  0.0090
12778TIP3    H159825   6.296   5.124  13.777  0.0622  0.7404 -0.7988
12778TIP3    H259826   6.317   5.054  13.644  0.1180 -0.7179 -0.0497
12779TIP3   OH259827   0.492   6.645  13.535 -0.2861 -0.7355  0.5718
12779TIP3    H159828   0.476   6.625  13.443 -0.1197  1.2440  0.0789
12779TIP3    H259829   0.587   6.654  13.541 -0.3607 -0.0167  0.7361
12780TIP3   OH259830   0.489   1.703   3.985  0.1527 -0.2341 -0.2847
12780TIP3    H159831   0.583   1.693   3.996  0.6175  2.2663 -1.4431
12780TIP3    H259832   0.474   1.797   3.984 -2.1581 -0.5240 -1.6958
12781TIP3   OH259833   2.309   3.903   0.147 -0.3880 -0.7265  0.1243
12781TIP3    H159834   2.215   3.886   0.151 -0.2204 -1.7566  0.2189
12781TIP3    H259835   2.340   3.884   0.235  0.0764 -1.6450 -0.2136
12782TIP3   OH259836   6.025   2.783  12.882 -0.1981  0.3699  0.1571
12782TIP3    H159837   6.067   2.805  12.966  1.3980  0.5923 -0.6717
12782TIP3    H259838   5.980   2.864  12.856  0.3562  0.6994  0.2001
12783TIP3   OH259839   1.845   0.072   6.074 -0.3733  0.2758  0.2563
12783TIP3    H159840   1.821   0.091   6.165 -0.4219 -1.9885  0.7771
12783TIP3    H259841   1.926   0.021   6.081  0.2479  1.0369 -1.0498
12784TIP3   OH259842   3.334   0.323  12.162  0.4626  0.1662 -0.2756
12784TIP3    H159843   3.334   0.417  12.143 -1.5683 -0.0987 -1.9520
12784TIP3    H259844   3.256   0.310  12.218  0.5012 -0.5700 -0.3815
12785TIP3   OH259845   5.582   5.494  11.433  0.6972 -0.2313  0.0329
12785TIP3    H159846   5.611   5.469  11.345  0.2162 -0.3186 -0.1066
12785TIP3    H259847   5.550   5.584  11.423  0.2455 -0.3894  0.0208
12786TIP3   OH259848   5.982   1.479  11.483 -0.0534  0.2436  0.0237
12786TIP3    H159849   5.958   1.570  11.465 -0.2936  0.0271 -0.7672
12786TIP3    H259850   6.077   1.483  11.500  0.5839  0.2517 -3.0504
12787TIP3   OH259851   5.052   1.424   2.885 -0.5557 -0.6653 -0.5101
12787TIP3    H159852   5.026   1.345   2.837 -3.6394 -0.7750  1.0710
12787TIP3    H259853   5.070   1.393   2.974  0.1690  0.1756 -0.3483
12788TIP3   OH259854   4.390   4.689   6.407 -0.0478 -0.8465  0.1874
12788TIP3    H159855   4.328   4.732   6.347 -1.2991 -2.6501  0.1181
12788TIP3    H259856   4.351   4.699   6.493  1.4746  1.2431  0.7192
12789TIP3   OH259857   5.327   4.455   0.792 -0.2223 -0.4926 -0.1084
12789TIP3    H159858   5.422   4.452   0.804 -0.0345  0.3391 -1.1905
12789TIP3    H259859   5.293   4.481   0.878  0.4276 -1.8255  0.5767
12790TIP3   OH259860   6.044   1.635  12.493 -0.4262  0.3356  0.0829
12790TIP3    H159861   6.137   1.655  12.500 -0.2803 -0.6379  1.5385
12790TIP3    H259862   6.003   1.717  12.467  0.7182  1.0752  0.5652
12791TIP3   OH259863   4.588   1.288   2.305  0.4603 -0.2612 -0.5178
12791TIP3    H159864   4.502   1.322   2.279  0.1035  0.3034  1.2737
12791TIP3    H259865   4.630   1.264   2.222 -1.4606 -0.6772 -1.4331
12792TIP3   OH259866   1.895   1.179   1.401  0.1494 -0.1429  0.2958
12792TIP3    H159867   1.989   1.164   1.411  0.1696 -0.3047 -0.1384
12792TIP3    H259868   1.860   1.094   1.373  0.2073  0.4774 -1.8092
12793TIP3   OH259869   0.682   1.006  14.218 -0.3159  0.3039 -0.0888
12793TIP3    H159870   0.627   1.076  14.182 -0.3172  0.0888 -0.5077
12793TIP3    H259871   0.665   1.009  14.312 -0.4284  0.7721 -0.1206
12794TIP3   OH259872   3.329   4.648   5.280  0.5408 -0.1336 -0.8524
12794TIP3    H159873   3.365   4.581   5.339 -1.8667 -0.7310  0.0493
12794TIP3    H259874   3.319   4.726   5.335  2.1581  0.6435 -1.5890
12795TIP3   OH259875   5.565   5.456   0.824 -0.0039 -0.6881 -0.0810
12795TIP3    H159876   5.583   5.512   0.748 -0.9905 -1.6348 -1.0533
12795TIP3    H259877   5.478   5.484   0.854  0.4033 -0.2901  0.7314
12796TIP3   OH259878   2.013   6.657  13.917 -0.6411  0.0594 -0.0282
12796TIP3    H159879   2.087   6.703  13.957  0.8476 -1.4888 -0.8341
12796TIP3    H259880   1.970   6.723  13.863 -1.3354  1.6074  2.2761
12797TIP3   OH259881   5.048   1.625   5.294  0.0425  0.0470 -0.0030
12797TIP3    H159882   5.083   1.546   5.335  0.8910  0.9807  1.1418
12797TIP3    H259883   5.106   1.640   5.219 -0.2980 -0.5633 -0.3978
12798TIP3   OH259884   0.651   0.928   1.855  0.2594  0.1689  0.3523
12798TIP3    H159885   0.613   0.848   1.819  0.4311  0.2148  0.0639
12798TIP3    H259886   0.577   0.973   1.897  0.1466 -0.1004  0.4436
12799TIP3   OH259887   2.161   1.404  10.780 -0.0489  0.4983  0.0087
12799TIP3    H159888   2.072   1.426  10.751  0.0465  2.9860  1.3270
12799TIP3    H259889   2.176   1.316  10.745 -3.3134 -0.3761  0.3958
12800TIP3   OH259890   2.661   3.548  15.587 -0.0284  0.0538 -0.0223
12800TIP3    H159891   2.566   3.560  15.599  0.0989 -0.9515  2.7471
12800TIP3    H259892   2.668   3.495  15.507 -2.0422 -2.0687  1.0716
12801TIP3   OH259893   1.372   6.699   2.646  0.5755 -0.0096 -0.5704
12801TIP3    H159894   1.458   6.698   2.687  1.5145  0.2248 -2.4544
12801TIP3    H259895   1.380   6.641   2.571 -0.2438  1.6464 -2.0033
12802TIP3   OH259896   4.270   3.848  16.011 -0.6498  0.4055  0.4224
12802TIP3    H159897   4.264   3.943  16.016  0.5834  0.5604 -0.6432
12802TIP3    H259898   4.327   3.824  16.084 -1.7747  0.3634  1.3143
12803TIP3   OH259899   0.863   6.037  11.537  0.0064  0.1401 -0.2657
12803TIP3    H159900   0.770   6.020  11.520  0.0689  0.6881 -1.2465
12803TIP3    H259901   0.864   6.123  11.580 -0.1404 -1.1821  2.5674
12804TIP3   OH259902   3.204   1.115  15.112 -0.3795 -0.1369  0.4953
12804TIP3    H159903   3.262   1.050  15.072  2.5449  1.0638  2.4076
12804TIP3    H259904   3.243   1.132  15.198 -3.4431  1.0887  1.7990
12805TIP3   OH259905   5.262   4.716   0.420 -0.0217 -0.0201 -0.3239
12805TIP3    H159906   5.346   4.761   0.411 -0.7936  1.6852  0.5868
12805TIP3    H259907   5.235   4.697   0.329 -0.5837  3.2234 -0.9655
12806TIP3   OH259908   4.581   0.960  12.526 -0.4391 -0.2903 -0.2422
12806TIP3    H159909   4.540   0.882  12.563 -0.2121  0.2905  1.3323
12806TIP3    H259910   4.510   1.022  12.515 -0.4858 -0.4187 -0.6940
12807TIP3   OH259911   6.443   3.953   1.591  0.4179 -0.3177  0.5927
12807TIP3    H159912   6.396   3.898   1.528  0.5876 -0.5010  0.6250
12807TIP3    H259913   6.501   4.007   1.538  0.8741 -0.7765  0.6205
12808TIP3   OH259914   1.907   2.148   2.798 -0.4184 -0.0580 -0.1562
12808TIP3    H159915   1.976   2.147   2.732 -0.4592 -1.5068 -0.2060
12808TIP3    H259916   1.830   2.181   2.751 -0.1323  0.1439 -0.4921
12809TIP3   OH259917   0.184   0.546  15.154  0.4985  0.2437  0.2954
12809TIP3    H159918   0.247   0.604  15.195  0.0721  1.2074 -0.3624
12809TIP3    H259919   0.151   0.596  15.079  1.0060 -1.3052 -1.0221
12810TIP3   OH259920   2.802   5.730   5.603 -0.2584 -0.0871 -0.0137
12810TIP3    H159921   2.787   5.680   5.523  3.5575 -0.7339 -0.4895
12810TIP3    H259922   2.803   5.821   5.575  0.0432 -0.2484 -0.5312
12811TIP3   OH259923   6.160   1.304   2.949 -0.3227 -0.0893 -0.1472
12811TIP3    H159924   6.132   1.379   2.897  1.7229  0.4400 -0.5506
12811TIP3    H259925   6.086   1.243   2.944 -1.3323  1.1608 -1.2372
12812TIP3   OH259926   4.019   0.123  14.160  0.4224 -0.5878  0.1263
12812TIP3    H159927   4.082   0.061  14.123 -0.7051 -0.7009 -1.6855
12812TIP3    H259928   3.986   0.172  14.085  0.1252  1.1590  1.3355
12813TIP3   OH259929   4.646   4.458   4.002 -0.9556  0.3622  0.1357
12813TIP3    H159930   4.703   4.532   3.980 -1.0969  0.4515  0.0615
12813TIP3    H259931   4.679   4.385   3.950  1.9206 -0.8693  3.3303
12814TIP3   OH259932   1.431   0.756   2.509  0.4778 -0.1084  0.3946
12814TIP3    H159933   1.443   0.725   2.419 -0.6971  1.6515 -0.4399
12814TIP3    H259934   1.358   0.704   2.543 -0.4147  0.5833 -0.4103
12815TIP3   OH259935   2.900   4.187   4.999 -0.3391  0.6563  0.0158
12815TIP3    H159936   2.966   4.256   4.992  0.2729  0.1121  0.3896
12815TIP3    H259937   2.930   4.132   5.071 -1.1632  0.3568  0.1416
12816TIP3   OH259938   1.565   3.773   4.637 -0.3042  0.2286  0.2421
12816TIP3    H159939   1.534   3.854   4.596 -2.0095  0.9363  2.6905
12816TIP3    H259940   1.598   3.801   4.723  0.8516 -1.4660  0.3932
12817TIP3   OH259941   5.843   4.602   4.841 -0.7214 -0.0404  0.1697
12817TIP3    H159942   5.789   4.670   4.883 -2.7709 -1.5654  0.1840
12817TIP3    H259943   5.816   4.604   4.749  1.1860  0.9005 -0.4310
12818TIP3   OH259944   5.168   2.725   4.679  0.1276  0.3006  0.4820
12818TIP3    H159945   5.175   2.818   4.659  0.3124  0.4778  1.3517
12818TIP3    H259946   5.157   2.721   4.774 -2.3248 -0.4408  0.2513
12819TIP3   OH259947   3.637   4.140   0.711 -0.5933  0.2907  0.0205
12819TIP3    H159948   3.608   4.079   0.643 -0.7276 -0.5852  0.8466
12819TIP3    H259949   3.657   4.085   0.787  1.1403  1.0722  0.1961
12820TIP3   OH259950   5.497   0.838   0.205  0.0819 -0.5269  0.1441
12820TIP3    H159951   5.433   0.850   0.275 -0.1873 -0.2975 -0.1347
12820TIP3    H259952   5.581   0.825   0.250  0.1292  0.8589  0.5088
12821TIP3   OH259953   5.275   0.940  13.613 -0.2131 -0.4972 -0.1552
12821TIP3    H159954   5.326   1.017  13.586  0.7263 -0.9036  0.3914
12821TIP3    H259955   5.342   0.876  13.641 -1.0574 -0.6039  1.7596
12822TIP3   OH259956   5.526   2.090   2.909 -0.4487 -0.4220  0.3226
12822TIP3    H159957   5.475   2.012   2.889 -0.7746 -0.5559  1.5898
12822TIP3    H259958   5.556   2.077   2.999  0.1381  0.5628  0.2853
12823TIP3   OH259959   1.799   3.020  12.903  0.4441  0.0074  0.3999
12823TIP3    H159960   1.745   2.978  12.836 -0.0231  0.5973  0.3966
12823TIP3    H259961   1.873   3.057  12.855  0.4050 -0.0653  0.2834
12824TIP3   OH259962   4.399   3.615   2.585 -0.0510  0.2496 -0.6989
12824TIP3    H159963   4.394   3.521   2.570  1.2307 -0.0319  0.3875
12824TIP3    H259964   4.350   3.654   2.513  0.1279 -1.2115 -1.6579
12825TIP3   OH259965   6.449   1.743   3.629 -0.4878 -0.1796 -0.2335
12825TIP3    H159966   6.520   1.710   3.574 -0.7187 -1.9461  0.4613
12825TIP3    H259967   6.479   1.727   3.719 -1.2752  0.1158  0.0925
12826TIP3   OH259968   6.592   2.368  11.877  0.4022  0.0876 -1.0272
12826TIP3    H159969   6.637   2.407  11.802  2.9058 -0.2308  0.1957
12826TIP3    H259970   6.617   2.276  11.875  2.2084  0.4119  1.1864
12827TIP3   OH259971   5.692   5.958   5.173  0.1243 -0.4689  0.1822
12827TIP3    H159972   5.710   6.046   5.207 -1.4274  0.0298 -0.1942
12827TIP3    H259973   5.686   5.970   5.078  1.9862 -1.3935 -0.0823
12828TIP3   OH259974   4.887   0.481  12.438 -0.1448 -0.6629  0.2862
12828TIP3    H159975   4.821   0.520  12.495  0.6430 -0.2212  0.9215
12828TIP3    H259976   4.909   0.550  12.375  0.8489 -0.2291  1.0695
12829TIP3   OH259977   6.541   0.592   0.330  0.9579 -0.5776  0.4296
12829TIP3    H159978   6.505   0.661   0.387  0.3942 -0.5589  0.0580
12829TIP3    H259979   6.519   0.511   0.375  1.8889 -0.5169  1.0226
12830TIP3   OH259980   6.277   3.092  14.725  0.3816 -0.4330 -0.0821
12830TIP3    H159981   6.357   3.043  14.743  0.0274 -0.5280  1.3334
12830TIP3    H259982   6.268   3.088  14.630  2.9584  1.0047 -0.4952
12831TIP3   OH259983   2.200   4.976  12.093  0.2086  0.3197 -0.3345
12831TIP3    H159984   2.209   4.902  12.154 -1.3193 -0.2251 -0.7025
12831TIP3    H259985   2.287   4.988  12.056  0.6865 -0.7200  0.3974
12832TIP3   OH259986   0.490   2.994   1.045 -0.2088 -0.1293  0.3021
12832TIP3    H159987   0.512   2.989   1.138  1.0816  0.5410  0.0556
12832TIP3    H259988   0.530   3.076   1.015  0.7520 -1.0939 -1.1798
12833TIP3   OH259989   2.740   0.292   5.423  0.0424  0.0390 -0.7503
12833TIP3    H159990   2.726   0.347   5.346  0.8140 -1.9044 -2.3593
12833TIP3    H259991   2.834   0.279   5.427 -0.1403 -1.4094 -0.6258
12834TIP3   OH259992   0.616   3.190   0.635 -0.2088  0.1676  0.2912
12834TIP3    H159993   0.524   3.190   0.662 -0.2124 -0.5229  0.2936
12834TIP3    H259994   0.642   3.098   0.635 -0.2149  0.0903 -2.0631
12835TIP3   OH259995   6.759   3.661  14.802 -0.3860 -0.3604  0.1787
12835TIP3    H159996   6.692   3.609  14.757  0.3142  0.3206 -1.7363
12835TIP3    H259997   6.801   3.711  14.733  3.6688 -2.3745  0.9191
12836TIP3   OH259998   3.224   2.079   5.337  0.2207 -0.3851  0.4959
12836TIP3    H159999   3.150   2.023   5.363 -0.2524 -0.2879 -0.5985
12836TIP3    H260000   3.207   2.163   5.380  0.2573 -0.6787  1.0998
12837TIP3   OH260001   5.660   4.900  13.081  0.3038  0.4616  0.6610
12837TIP3    H160002   5.621   4.924  12.997  1.0367  1.9724  0.7329
12837TIP3    H260003   5.640   4.973  13.139 -1.9586 -1.3860  2.4667
12838TIP3   OH260004   0.623   1.153   0.488 -0.2197 -0.0418  0.1103
12838TIP3    H160005   0.531   1.172   0.472 -0.1097  0.7591  0.3967
12838TIP3    H260006   0.642   1.193   0.573  0.0531 -1.3534  0.6956
12839TIP3   OH260007   2.460   2.049   6.635  0.4490 -0.1111 -0.5374
12839TIP3    H160008   2.381   2.015   6.593  1.2624 -0.5570 -1.7489
12839TIP3    H260009   2.443   2.040   6.729 -0.8074 -0.4829 -0.7868
12840TIP3   OH260010   4.444   3.059   1.930  0.3295  0.4934 -0.1777
12840TIP3    H160011   4.453   3.013   1.847  1.2141  0.5286 -0.1134
12840TIP3    H260012   4.393   3.000   1.985  2.0338 -0.7544  0.1374
12841TIP3   OH260013   6.275   2.733  14.909 -0.0352 -0.2982  0.1273
12841TIP3    H160014   6.325   2.804  14.950  1.3046  0.5534 -2.7027
12841TIP3    H260015   6.286   2.748  14.815 -0.6538 -3.6546 -0.5839
12842TIP3   OH260016   5.669   2.815  14.597  0.2300 -0.2292  0.2834
12842TIP3    H160017   5.721   2.845  14.522  0.3800 -1.1824 -0.0065
12842TIP3    H260018   5.579   2.842  14.576  0.2279 -0.7104 -0.3700
12843TIP3   OH260019   2.979   0.691  15.357 -0.2901 -0.0052  0.3686
12843TIP3    H160020   2.985   0.611  15.409 -1.6538  0.6564  1.6399
12843TIP3    H260021   2.888   0.719  15.367 -0.1897  0.9825 -1.1707
12844TIP3   OH260022   0.964   6.095   4.172 -0.1898  0.0294 -0.6994
12844TIP3    H160023   1.017   6.097   4.252 -0.4622 -0.3258 -0.5113
12844TIP3    H260024   0.884   6.142   4.195 -1.3943 -2.2248  0.0476
12845TIP3   OH260025   1.922   3.411   4.066  0.0921  0.3654 -0.5748
12845TIP3    H160026   2.014   3.438   4.060  0.4373 -0.8981 -1.2020
12845TIP3    H260027   1.889   3.459   4.142  1.5568  0.0721  0.3023
12846TIP3   OH260028   3.433   2.530   5.454  0.1343 -0.4674 -0.0815
12846TIP3    H160029   3.434   2.597   5.386  1.3638 -1.7308 -1.3903
12846TIP3    H260030   3.522   2.494   5.453 -0.5660 -2.3367  0.3051
12847TIP3   OH260031   4.668   1.245   2.050  0.1009  0.1145  0.3334
12847TIP3    H160032   4.600   1.284   1.995 -0.1589  0.3877  0.8498
12847TIP3    H260033   4.703   1.173   1.997 -0.8257 -0.2511  0.2045
12848TIP3   OH260034   4.482   1.639  15.198 -0.1952  0.9037  0.5903
12848TIP3    H160035   4.390   1.624  15.219 -0.4812 -2.3565 -2.0914
12848TIP3    H260036   4.528   1.620  15.279 -1.7386 -0.6988  1.1709
12849TIP3   OH260037   5.647   6.757  12.740  0.3799  0.6319 -0.0271
12849TIP3    H160038   5.639   6.766  12.835 -1.1934 -0.1363 -0.0545
12849TIP3    H260039   5.659   6.663  12.727 -3.4533  0.0991 -0.7503
12850TIP3   OH260040   1.383   1.702   3.622 -0.3505  0.4796 -0.3806
12850TIP3    H160041   1.422   1.614   3.614  0.7570  0.9043  0.1200
12850TIP3    H260042   1.306   1.699   3.565  0.1867 -0.5271 -1.0949
12851TIP3   OH260043   4.585   1.833   3.721  0.3899  0.9320 -0.4674
12851TIP3    H160044   4.524   1.862   3.789  0.1794  2.4172 -1.2592
12851TIP3    H260045   4.529   1.795   3.654  0.6238 -0.8983  0.2938
12852TIP3   OH260046   5.803   3.943  16.316  0.5055  0.1878 -0.2449
12852TIP3    H160047   5.874   3.994  16.277  0.1859 -0.1272 -1.2890
12852TIP3    H260048   5.755   3.908  16.241  1.3911 -2.6244  0.3472
12853TIP3   OH260049   1.914   6.534   1.710  0.1768  0.3315 -0.6462
12853TIP3    H160050   1.882   6.596   1.775  2.9095 -0.5488  1.7372
12853TIP3    H260051   2.005   6.558   1.697  0.2784 -0.8878 -2.5739
12854TIP3   OH260052   4.765   1.831   3.030 -0.9990 -0.1936 -0.0287
12854TIP3    H160053   4.771   1.778   2.950  1.7539 -1.0861  0.6354
12854TIP3    H260054   4.813   1.912   3.009 -0.0553 -0.5307  0.7315
12855TIP3   OH260055   5.867   3.244   4.442 -0.2080 -0.2907  0.3126
12855TIP3    H160056   5.862   3.159   4.398  2.1569 -0.9751  1.2498
12855TIP3    H260057   5.920   3.298   4.383 -0.7269  0.1943  0.2789
12856TIP3   OH260058   2.644   5.555  11.736  0.3398  0.4833 -0.0967
12856TIP3    H160059   2.698   5.633  11.749  0.6035  0.5697 -1.5581
12856TIP3    H260060   2.622   5.556  11.643 -2.1415  0.4082  0.4167
12857TIP3   OH260061   2.344   3.495  13.784  0.6410 -0.1182  0.6694
12857TIP3    H160062   2.350   3.400  13.788 -0.8269 -0.3781 -1.5225
12857TIP3    H260063   2.420   3.522  13.732  0.6668 -0.1459  0.6926
12858TIP3   OH260064   2.794   4.378  16.610  0.3353 -0.1479 -0.0815
12858TIP3    H160065   2.806   4.383  16.516  0.1618 -2.2607 -0.2576
12858TIP3    H260066   2.818   4.465  16.642 -0.8461  1.0473 -2.1811
12859TIP3   OH260067   3.748   3.197   1.511  0.5331 -0.2038  0.0238
12859TIP3    H160068   3.754   3.102   1.496 -1.4982 -0.5150  0.8016
12859TIP3    H260069   3.799   3.212   1.590  0.3918 -0.7732  0.2350
12860TIP3   OH260070   2.474   6.130  15.451 -0.2444 -0.1155  0.2312
12860TIP3    H160071   2.501   6.194  15.385  4.5217 -3.4516 -1.6219
12860TIP3    H260072   2.490   6.174  15.535  0.6363  1.8209 -0.8793
12861TIP3   OH260073   2.344   1.753   1.633 -0.3554  0.0678 -0.1904
12861TIP3    H160074   2.413   1.740   1.568 -0.6729  0.0864 -0.5303
12861TIP3    H260075   2.263   1.760   1.582 -0.4558  1.3593  0.1094
12862TIP3   OH260076   0.779   5.372  12.601 -0.5134 -0.1962 -0.3938
12862TIP3    H160077   0.830   5.318  12.541  0.6497  0.4987 -0.0476
12862TIP3    H260078   0.706   5.315  12.628  0.9089 -1.7609  0.3181
12863TIP3   OH260079   1.615   2.842   5.204 -0.3401  0.2957  0.2815
12863TIP3    H160080   1.558   2.784   5.154 -0.8663 -1.1582  2.4578
12863TIP3    H260081   1.704   2.815   5.180 -0.4248  2.0914 -2.5703
12864TIP3   OH260082   2.986   5.226  12.492 -0.2735  0.2124 -0.1193
12864TIP3    H160083   2.900   5.183  12.499 -0.3861  0.1234 -1.6648
12864TIP3    H260084   3.002   5.231  12.398  0.8521  1.3818  0.1141
12865TIP3   OH260085   1.713   1.553  17.276 -0.3716  0.3002  0.3925
12865TIP3    H160086   1.733   1.480  17.335 -0.0339  0.1135  0.0535
12865TIP3    H260087   1.782   1.617  17.294  0.2212 -0.0991 -0.3619
12866TIP3   OH260088   2.920   1.191  16.141 -0.1085  0.3408  0.3003
12866TIP3    H160089   2.934   1.183  16.235 -0.7327  0.3837  0.3996
12866TIP3    H260090   3.005   1.172  16.102  0.2342  0.6638  0.8884
12867TIP3   OH260091   1.184   4.555  14.724 -0.0980  0.1412 -0.0670
12867TIP3    H160092   1.188   4.507  14.641 -0.7065  0.9124 -0.5578
12867TIP3    H260093   1.107   4.611  14.716  0.1489  0.6309  0.8039
12868TIP3   OH260094   5.176   3.584  12.371 -0.6087 -0.1939  0.1280
12868TIP3    H160095   5.163   3.489  12.373  1.5750 -0.5837  2.7347
12868TIP3    H260096   5.101   3.619  12.418 -1.0926 -0.6917 -0.2575
12869TIP3   OH260097   2.110   4.990  15.999 -0.2785  0.1848 -0.8222
12869TIP3    H160098   2.108   4.943  16.083  0.9719  2.9753  0.9155
12869TIP3    H260099   2.150   5.074  16.020 -4.2663  3.0378 -3.2359
12870TIP3   OH260100   2.206   5.529   0.733 -0.1814  0.3342 -0.1770
12870TIP3    H160101   2.215   5.487   0.818 -0.7314  0.2873 -0.1357
12870TIP3    H260102   2.248   5.615   0.744 -0.6193  0.4985  0.2735
12871TIP3   OH260103   6.088   4.132   5.006  0.5106 -0.6627  0.4729
12871TIP3    H160104   6.126   4.221   5.009 -2.0084  0.4640  1.4759
12871TIP3    H260105   6.093   4.108   4.914  1.4570  0.4063  0.2070
12872TIP3   OH260106   2.811   0.347  14.769  0.1558 -0.0283  0.1408
12872TIP3    H160107   2.883   0.348  14.833  1.6224  0.4685 -1.4242
12872TIP3    H260108   2.808   0.437  14.735 -0.5592 -0.2843 -0.4972
12873TIP3   OH260109   1.454   6.620  16.440 -0.6797  0.1304 -0.6160
12873TIP3    H160110   1.432   6.634  16.348 -0.7868  0.6161 -0.5193
12873TIP3    H260111   1.401   6.685  16.487  1.9046  2.2608 -0.4483
12874TIP3   OH260112   1.366   5.050  12.427  0.3227 -0.3800  0.3586
12874TIP3    H160113   1.330   5.109  12.493 -1.1657 -1.2645  0.3974
12874TIP3    H260114   1.383   4.968  12.474  1.2941 -0.3522  0.0752
12875TIP3   OH260115   4.203   4.839   2.660 -0.7295 -0.6325 -0.0641
12875TIP3    H160116   4.114   4.819   2.690 -0.8803  0.4597  0.2408
12875TIP3    H260117   4.192   4.915   2.602  0.0797 -0.0879  0.4771
12876TIP3   OH260118   4.690   5.077  14.874 -0.7944 -0.3977 -0.4647
12876TIP3    H160119   4.634   5.066  14.797 -1.3294  0.4608 -0.2057
12876TIP3    H260120   4.713   5.170  14.875 -0.2161 -0.5361  0.0226
12877TIP3   OH260121   0.230   0.064  10.899  0.1475 -0.0584  0.1229
12877TIP3    H160122   0.261   0.148  10.934 -1.2912  0.2455  0.7480
12877TIP3    H260123   0.254   0.066  10.807  0.0308  1.1100  0.1025
12878TIP3   OH260124   3.567   1.299  14.789  0.4249  0.5753  0.4517
12878TIP3    H160125   3.551   1.333  14.701 -2.3004  0.8096  0.9457
12878TIP3    H260126   3.514   1.219  14.793  0.3464  0.6760  1.9388
12879TIP3   OH260127   0.924   6.761  16.351  0.2035  0.0251  0.4040
12879TIP3    H160128   0.854   6.803  16.300 -1.1262 -1.4848  0.9104
12879TIP3    H260129   0.987   6.734  16.285 -0.2536  0.3806 -0.1956
12880TIP3   OH260130   0.915   2.349  15.008  0.8328  0.5045  0.2051
12880TIP3    H160131   0.957   2.326  14.925  0.8376  1.1707  0.0203
12880TIP3    H260132   0.821   2.348  14.989  0.8467  1.0627  0.0756
12881TIP3   OH260133   1.696   5.765  16.768  0.6946 -0.2456  1.0878
12881TIP3    H160134   1.609   5.733  16.747  2.0014 -1.9217 -2.6670
12881TIP3    H260135   1.687   5.861  16.770 -1.0079 -0.2990 -0.7513
12882TIP3   OH260136   0.980   1.843   5.088  0.5669 -0.5132 -0.0595
12882TIP3    H160137   1.065   1.825   5.128 -0.1280 -1.2917  1.1261
12882TIP3    H260138   0.928   1.882   5.158 -0.2480 -0.6217 -0.5855
12883TIP3   OH260139   5.989   3.622   3.175 -0.0532  0.1689  0.0936
12883TIP3    H160140   6.038   3.659   3.102 -0.5692  3.8211  1.3650
12883TIP3    H260141   5.956   3.538   3.142  2.9515 -0.2121 -2.4173
12884TIP3   OH260142   0.228   6.219  13.886  0.5644  0.0336 -0.6584
12884TIP3    H160143   0.191   6.144  13.932  1.4120  0.3579  0.6074
12884TIP3    H260144   0.160   6.246  13.824 -1.1085  0.2832  1.1940
12885TIP3   OH260145   0.060   0.236  12.944 -0.3755  0.0181  0.4408
12885TIP3    H160146   0.100   0.323  12.948 -1.2363  0.5048 -0.9575
12885TIP3    H260147   0.004   0.238  12.867  2.0319 -2.8127 -1.6436
12886TIP3   OH260148   6.207   3.571  15.940  0.1553 -0.4454 -0.3386
12886TIP3    H160149   6.300   3.580  15.921  0.0498  0.3206 -0.5180
12886TIP3    H260150   6.190   3.477  15.931  1.2494 -0.8422  1.3700
12887TIP3   OH260151   4.172   4.995   0.232  0.7268  0.3192 -0.0894
12887TIP3    H160152   4.186   4.929   0.163 -0.3616  0.7524 -0.7543
12887TIP3    H260153   4.204   4.953   0.312  0.7497 -0.7227 -0.6272
12888TIP3   OH260154   0.855   3.642   1.225  0.0260  0.5960 -0.6321
12888TIP3    H160155   0.775   3.597   1.254 -0.9121  0.4667 -3.1641
12888TIP3    H260156   0.833   3.678   1.139  2.2142  1.9844 -0.7028
12889TIP3   OH260157   3.426   6.703   4.626 -0.2041 -0.3819 -0.3184
12889TIP3    H160158   3.446   6.658   4.544 -0.6606  0.0625 -0.6782
12889TIP3    H260159   3.349   6.658   4.660 -0.6710  0.1245 -0.6868
12890TIP3   OH260160   4.376   1.466   2.213  0.2273  0.1557 -0.1430
12890TIP3    H160161   4.331   1.544   2.246 -0.3566 -0.1803 -0.1303
12890TIP3    H260162   4.456   1.499   2.172  0.7659  0.6150  1.2518
12891TIP3   OH260163   6.716   0.920   3.255  0.1167 -0.2997 -0.3525
12891TIP3    H160164   6.749   1.010   3.264 -0.8762  0.2866 -2.1303
12891TIP3    H260165   6.785   0.874   3.208  1.2202 -0.8883  1.7112
12892TIP3   OH260166   4.202   2.491  14.955  0.0628  0.3682  0.1656
12892TIP3    H160167   4.145   2.439  15.013 -0.4015  0.5884 -0.0915
12892TIP3    H260168   4.267   2.428  14.923 -0.3296  0.0049  0.0740
12893TIP3   OH260169   2.542   6.426  17.157  0.1151 -0.3413 -0.4602
12893TIP3    H160170   2.625   6.471  17.144  0.3720 -0.5708  0.3312
12893TIP3    H260171   2.477   6.482  17.113  0.1756  1.6765  1.8092
12894TIP3   OH260172   4.559   2.374  12.610 -0.1669 -0.6430  0.0457
12894TIP3    H160173   4.562   2.467  12.586 -3.0489 -0.5942 -0.4870
12894TIP3    H260174   4.638   2.337  12.570  0.8819  1.4772 -0.0193
12895TIP3   OH260175   1.559   0.565   6.132 -0.6156 -0.1701  0.3457
12895TIP3    H160176   1.627   0.499   6.145  1.8708  1.5871 -2.5472
12895TIP3    H260177   1.584   0.636   6.192 -0.6665 -0.0839  0.2651
12896TIP3   OH260178   1.924   3.254  13.620  0.0542 -0.0070 -0.2258
12896TIP3    H160179   1.952   3.335  13.663 -0.8107  0.7430 -1.0442
12896TIP3    H260180   1.941   3.269  13.527 -0.9163 -0.4313 -0.4752
12897TIP3   OH260181   3.271   0.088  17.254  0.4917 -0.3237 -0.0018
12897TIP3    H160182   3.261   0.045  17.169  2.4486  0.4433 -0.6905
12897TIP3    H260183   3.230   0.174  17.243  0.6524 -0.2642 -0.1306
12898TIP3   OH260184   1.027   2.300   3.326 -0.4503 -0.2098 -0.1882
12898TIP3    H160185   0.957   2.338   3.379  1.8399  0.8199  2.3861
12898TIP3    H260186   1.095   2.367   3.324  2.1389 -2.5730  1.0699
12899TIP3   OH260187   0.564   2.612  15.945 -0.3925 -0.3773  0.4191
12899TIP3    H160188   0.533   2.701  15.927 -1.5522 -1.1542 -1.7778
12899TIP3    H260189   0.494   2.571  15.996 -1.2205 -0.8906 -1.0808
12900TIP3   OH260190   4.801   5.866  14.243  0.1093 -0.7290 -0.2263
12900TIP3    H160191   4.871   5.924  14.274 -0.1889 -0.5374  0.0930
12900TIP3    H260192   4.847   5.787  14.214  0.3543 -1.3778  1.7370
12901TIP3   OH260193   4.135   0.298  13.468  0.2875 -0.2386 -0.3838
12901TIP3    H160194   4.205   0.296  13.534  1.6980 -0.3457 -1.8413
12901TIP3    H260195   4.120   0.391  13.452 -2.0875 -0.0639  2.0759
12902TIP3   OH260196   5.794   2.171  11.661 -0.5956 -0.6331 -0.0663
12902TIP3    H160197   5.734   2.189  11.589 -0.8956  0.1967  0.3778
12902TIP3    H260198   5.880   2.199  11.630 -0.8623  0.5137  0.1918
12903TIP3   OH260199   2.322   0.896   1.294 -0.0224  0.2805  0.5363
12903TIP3    H160200   2.371   0.966   1.339  2.0697 -1.1143  0.5828
12903TIP3    H260201   2.295   0.838   1.365 -1.1358  0.6554  0.4292
12904TIP3   OH260202   1.578   0.454  14.554 -0.1910  0.5856  0.1396
12904TIP3    H160203   1.566   0.537  14.507 -1.6833 -0.1402 -0.8581
12904TIP3    H260204   1.496   0.443  14.603  0.8190  0.6831  1.9407
12905TIP3   OH260205   6.044   6.193  15.797  0.2238  0.1695 -0.1371
12905TIP3    H160206   6.059   6.286  15.813 -2.1121  0.6986 -0.6436
12905TIP3    H260207   5.965   6.172  15.848 -0.0033 -1.2051 -0.9915
12906TIP3   OH260208   6.758   2.113  11.141  0.4444  0.3960  0.2366
12906TIP3    H160209   6.764   2.037  11.199 -0.9540  0.4970  0.5536
12906TIP3    H260210   6.678   2.099  11.090  1.5050  0.4469 -1.5118
12907TIP3   OH260211   6.421   0.095   2.623  0.0922 -0.3405 -0.3344
12907TIP3    H160212   6.375   0.098   2.707  1.5871  2.1465  0.4975
12907TIP3    H260213   6.376   0.159   2.568  0.0748 -0.8537 -0.9420
12908TIP3   OH260214   6.772   2.130  12.879 -0.4096  0.4580  0.4495
12908TIP3    H160215   6.759   2.186  12.956  0.1101  0.8650  0.2470
12908TIP3    H260216   6.849   2.166  12.836  0.2159 -0.7006  0.5699
12909TIP3   OH260217   5.721   1.306   4.534  0.2640  0.1174 -0.2016
12909TIP3    H160218   5.738   1.238   4.599  0.0788 -1.8120 -2.0718
12909TIP3    H260219   5.803   1.313   4.485  0.1702  1.0310 -0.2471
12910TIP3   OH260220   6.243   3.356   3.925  0.8374  0.2268  0.3947
12910TIP3    H160221   6.269   3.266   3.948  1.2520  0.1785 -0.2447
12910TIP3    H260222   6.251   3.360   3.830  0.3244  0.7942  0.3696
12911TIP3   OH260223   5.761   4.033   0.201  0.0245 -0.2827 -0.2354
12911TIP3    H160224   5.801   4.099   0.257 -0.3512 -0.3642  0.1256
12911TIP3    H260225   5.828   4.016   0.134 -0.3140  1.3005 -1.0258
12912TIP3   OH260226   2.852   4.139   0.141 -0.0900 -0.3363 -0.2356
12912TIP3    H160227   2.820   4.070   0.199  0.5464  0.2763  0.8807
12912TIP3    H260228   2.818   4.220   0.179  0.0596  0.0528 -0.9107
12913TIP3   OH260229   1.090   6.634   1.122  0.7332 -0.0181 -0.0142
12913TIP3    H160230   1.006   6.664   1.087  0.4924  0.3349  0.8371
12913TIP3    H260231   1.155   6.682   1.071  0.3696  1.2072  0.6245
12914TIP3   OH260232   6.679   0.773  16.123 -0.0217 -0.3176 -0.4874
12914TIP3    H160233   6.616   0.839  16.092 -0.1796 -0.3763 -0.2937
12914TIP3    H260234   6.639   0.689  16.100 -0.3454 -0.3729  0.2635
12915TIP3   OH260235   3.860   2.776   1.120 -0.4537 -0.0414 -0.1754
12915TIP3    H160236   3.922   2.711   1.087  1.0606  1.4662 -0.4364
12915TIP3    H260237   3.829   2.821   1.042 -1.1284 -0.1028  0.0458
12916TIP3   OH260238   5.692   3.309  16.955  0.6022 -0.2628 -0.2741
12916TIP3    H160239   5.729   3.268  16.877 -1.8079  0.7932 -2.0932
12916TIP3    H260240   5.746   3.387  16.970  1.0480 -0.4446 -0.9135
12917TIP3   OH260241   5.901   5.459  12.173 -0.0439  0.0822  0.7215
12917TIP3    H160242   5.879   5.539  12.125 -1.1170  0.0775  1.1768
12917TIP3    H260243   5.870   5.388  12.117  0.2253  0.0087  0.6630
12918TIP3   OH260244   3.224   3.270   1.376  0.2141 -0.4844  0.4676
12918TIP3    H160245   3.220   3.245   1.468 -2.3603 -4.2282 -0.4065
12918TIP3    H260246   3.132   3.269   1.347  0.8967  0.9623 -2.0996
12919TIP3   OH260247   1.998   5.353   3.085  0.4132  0.5226  0.2982
12919TIP3    H160248   1.926   5.388   3.032 -0.4466 -0.2772  0.9046
12919TIP3    H260249   1.993   5.258   3.073  1.8746  0.4948 -0.2695
12920TIP3   OH260250   6.806   4.174   1.870  0.4021 -0.4106  0.3048
12920TIP3    H160251   6.871   4.192   1.802 -0.1388 -1.0403 -0.3918
12920TIP3    H260252   6.798   4.079   1.871 -1.7905 -0.2903 -0.8571
12921TIP3   OH260253   2.950   2.458   3.046  0.3084 -0.1133  0.2959
12921TIP3    H160254   2.899   2.405   2.985 -1.7224  1.8525  0.1266
12921TIP3    H260255   2.949   2.408   3.128 -1.4528 -0.4350  0.1188
12922TIP3   OH260256   3.448   4.677  14.089  0.0377 -0.0029  0.0126
12922TIP3    H160257   3.447   4.756  14.035  1.3996  1.3050  1.8279
12922TIP3    H260258   3.527   4.630  14.061  0.4663  0.4221  0.4941
12923TIP3   OH260259   5.071   3.726   3.662  0.9772 -0.3739  0.6338
12923TIP3    H160260   4.995   3.748   3.608  0.4933 -3.1002  0.0508
12923TIP3    H260261   5.042   3.743   3.751  0.1935 -0.0365  0.3283
12924TIP3   OH260262   6.462   5.257   3.612  0.1808  0.5152  0.4920
12924TIP3    H160263   6.548   5.275   3.650  0.5972  2.6413 -1.2723
12924TIP3    H260264   6.472   5.277   3.519 -1.7312 -1.0894 -0.1141
12925TIP3   OH260265   5.875   2.322   2.398  0.1254  0.0712 -0.4147
12925TIP3    H160266   5.945   2.258   2.389 -0.5103 -0.5570 -1.0410
12925TIP3    H260267   5.902   2.378   2.471  0.6603 -0.9508  0.1888
12926TIP3   OH260268   2.893   2.442  14.942 -0.4563  0.2008 -0.1047
12926TIP3    H160269   2.979   2.480  14.963 -0.8674  1.4582 -0.6097
12926TIP3    H260270   2.877   2.380  15.012  0.4879  0.5796  0.4695
12927TIP3   OH260271   1.553   2.119  14.722  0.5198 -0.1024  0.5397
12927TIP3    H160272   1.639   2.162  14.726  1.6775 -2.3520  0.9620
12927TIP3    H260273   1.492   2.185  14.757  1.9624  1.6881 -0.1280
12928TIP3   OH260274   1.266   1.046  10.934 -0.1000 -0.3541 -0.1260
12928TIP3    H160275   1.315   1.063  10.853 -1.0957 -1.1828 -0.9230
12928TIP3    H260276   1.324   1.078  11.004  1.0661 -0.2375 -1.1111
12929TIP3   OH260277   5.505   2.263  16.562 -0.0729 -0.2844  0.6598
12929TIP3    H160278   5.506   2.352  16.527 -2.1412  0.6213  2.7063
12929TIP3    H260279   5.588   2.225  16.533  0.1250  1.7101 -1.6770
12930TIP3   OH260280   4.132   4.869  10.940 -0.0133 -0.4880 -1.3471
12930TIP3    H160281   4.171   4.935  10.882 -1.3526  0.0141 -1.7165
12930TIP3    H260282   4.038   4.879  10.928 -0.2534 -2.5973 -1.5163
12931TIP3   OH260283   1.000   2.485   1.488  0.4351 -0.0067  0.0716
12931TIP3    H160284   0.955   2.402   1.468  0.2072 -0.1672  1.1827
12931TIP3    H260285   1.034   2.473   1.577  1.2159  0.7539 -0.1073
12932TIP3   OH260286   4.642   5.255   4.404  1.2447 -0.1108  0.0742
12932TIP3    H160287   4.671   5.214   4.485  0.4921 -0.7586  0.0240
12932TIP3    H260288   4.546   5.254   4.409  1.1959  0.6178 -0.4428
12933TIP3   OH260289   1.991   6.616   0.427  0.0921 -0.4758  0.0316
12933TIP3    H160290   2.030   6.549   0.370  0.5652 -1.5193  1.5198
12933TIP3    H260291   1.977   6.691   0.369 -1.1673 -2.0864 -1.8824
12934TIP3   OH260292   2.889   6.398  12.541  0.7532 -0.2150 -0.0555
12934TIP3    H160293   2.941   6.457  12.595 -0.5343  0.0559  0.9539
12934TIP3    H260294   2.879   6.443  12.458  1.0481  0.3096  0.1920
12935TIP3   OH260295   6.187   3.049   3.721 -0.0687 -0.1214 -0.3411
12935TIP3    H160296   6.280   3.027   3.726 -0.6221 -2.5379  1.6143
12935TIP3    H260297   6.167   3.048   3.628  1.7838  0.0874 -0.7748
12936TIP3   OH260298   0.860   0.674  17.293  0.9113  0.7188 -0.3634
12936TIP3    H160299   0.779   0.640  17.255  0.4535 -1.8429  2.5863
12936TIP3    H260300   0.839   0.764  17.317 -0.2950  0.8154 -1.6112
12937TIP3   OH260301   3.852   2.225   0.443 -0.0334 -0.4074  0.1202
12937TIP3    H160302   3.869   2.229   0.349 -1.4819  0.3275 -0.1296
12937TIP3    H260303   3.897   2.145   0.472  0.2575 -0.7526 -1.2163
12938TIP3   OH260304   3.114   5.871   4.494 -0.5656  0.0493 -0.0334
12938TIP3    H160305   3.132   5.780   4.517  0.6606  0.5405  1.0765
12938TIP3    H260306   3.023   5.885   4.522 -1.3779 -1.2890 -1.8211
12939TIP3   OH260307   0.829   3.620   6.634 -0.1347  0.2400 -0.0215
12939TIP3    H160308   0.744   3.663   6.624 -1.2117 -1.2707  1.8566
12939TIP3    H260309   0.813   3.528   6.611  0.6761 -0.2966  1.3836
12940TIP3   OH260310   6.517   0.018  11.657 -0.1220  0.0690  0.1257
12940TIP3    H160311   6.434  -0.029  11.670 -0.6274  0.6913 -0.7384
12940TIP3    H260312   6.499   0.078  11.584  1.0188  0.3922  0.0987
12941TIP3   OH260313   5.573   6.379   5.514  0.7352  0.4354 -0.2296
12941TIP3    H160314   5.559   6.314   5.582  0.6855 -1.1322 -1.6908
12941TIP3    H260315   5.661   6.413   5.531  0.4157  0.6728  1.0642
12942TIP3   OH260316   6.177   5.722  12.792 -0.5490 -0.8564  0.2252
12942TIP3    H160317   6.165   5.695  12.883 -0.4315 -1.4281  0.0792
12942TIP3    H260318   6.103   5.682  12.746 -1.0232  0.0509  0.1881
12943TIP3   OH260319   1.269   6.409   5.865 -0.3298  0.3042  0.2506
12943TIP3    H160320   1.252   6.327   5.819  0.1710  1.3273 -1.9358
12943TIP3    H260321   1.267   6.386   5.958  0.0087 -2.2006 -0.2884
12944TIP3   OH260322   0.474   6.041  11.740 -0.0997 -0.1655  0.1196
12944TIP3    H160323   0.446   6.049  11.649 -0.9502 -0.1462  0.3727
12944TIP3    H260324   0.508   5.952  11.746 -0.0831 -0.1831 -0.2068
12945TIP3   OH260325   5.437   4.049   3.998  0.0843  0.1078  0.0612
12945TIP3    H160326   5.376   4.107   3.951  0.1163 -1.4682 -2.0861
12945TIP3    H260327   5.514   4.045   3.941  1.3639  0.3898  1.7067
12946TIP3   OH260328   4.463   5.215  15.779 -0.3913  0.3995 -0.8029
12946TIP3    H160329   4.551   5.177  15.775 -0.3267  0.5101 -0.4416
12946TIP3    H260330   4.405   5.140  15.788 -0.1891  0.4196  1.0824
12947TIP3   OH260331   1.335   6.776  11.854  0.4398  0.9202 -0.0935
12947TIP3    H160332   1.352   6.697  11.905  0.6555  0.6785 -0.5373
12947TIP3    H260333   1.410   6.833  11.872  1.5869  0.0091 -1.7488
12948TIP3   OH260334   0.169   4.307  16.046  0.5054 -0.4422  0.1674
12948TIP3    H160335   0.079   4.279  16.028  1.0237 -1.1481 -1.5612
12948TIP3    H260336   0.224   4.241  16.002  1.8806 -0.0887  1.2662
12949TIP3   OH260337   0.219   0.397  15.495 -0.2605 -0.7377 -0.4625
12949TIP3    H160338   0.148   0.460  15.500  0.8135  0.7285 -2.2050
12949TIP3    H260339   0.190   0.334  15.429 -0.8300 -1.4182  0.4163
12950TIP3   OH260340   0.787   1.047  17.073  0.4313 -0.0725  0.0633
12950TIP3    H160341   0.745   0.964  17.095  1.3176 -0.6564 -0.3735
12950TIP3    H260342   0.850   1.024  17.004  1.6514  0.6999  0.8801
12951TIP3   OH260343   4.567   6.481   2.798  0.4301  0.0354  0.1202
12951TIP3    H160344   4.658   6.511   2.806  0.1722  0.9330 -0.1352
12951TIP3    H260345   4.573   6.391   2.766  1.2142  0.5306 -1.1876
12952TIP3   OH260346   0.261   0.343   0.591  0.4095  0.4051 -0.5044
12952TIP3    H160347   0.302   0.423   0.560  1.8801  0.2194  0.8521
12952TIP3    H260348   0.271   0.281   0.518 -1.7803  1.7242 -2.0143
12953TIP3   OH260349   1.904   3.938  13.933 -0.2856 -0.0577  0.5046
12953TIP3    H160350   1.877   3.880  13.862  1.5813  1.8024 -1.8898
12953TIP3    H260351   1.954   3.882  13.993  0.6620 -1.1278 -1.2210
12954TIP3   OH260352   3.839   4.712  13.165 -0.1852 -0.0065  0.0561
12954TIP3    H160353   3.914   4.665  13.202  0.9488  1.0956 -0.7377
12954TIP3    H260354   3.823   4.668  13.081  0.7353  0.8304 -0.5854
12955TIP3   OH260355   6.667   4.026  14.052  0.3582  0.4876 -0.3410
12955TIP3    H160356   6.683   4.121  14.054  0.1687  0.5162 -0.0886
12955TIP3    H260357   6.748   3.988  14.086  0.8275  0.5044 -1.4131
12956TIP3   OH260358   5.687   1.958  15.166 -0.7483 -0.2715 -0.3090
12956TIP3    H160359   5.666   2.052  15.170  0.0503 -0.1071  2.6695
12956TIP3    H260360   5.782   1.955  15.175 -0.8052 -1.3641  0.0211
12957TIP3   OH260361   4.749   2.602  13.956  0.2396  0.2843 -0.4627
12957TIP3    H160362   4.684   2.645  13.902 -0.4257  0.4190  0.4281
12957TIP3    H260363   4.818   2.667  13.968  0.4629  0.2057 -1.2433
12958TIP3   OH260364   2.810   3.495  13.899 -0.9107  0.2947  0.2208
12958TIP3    H160365   2.736   3.491  13.959 -1.6749  2.0592 -0.5359
12958TIP3    H260366   2.778   3.454  13.818 -0.2987 -0.9541  0.5939
12959TIP3   OH260367   3.207   1.493  16.462  0.2555 -0.2582  0.5419
12959TIP3    H160368   3.111   1.492  16.460  0.2126  0.8637  0.8990
12959TIP3    H260369   3.233   1.532  16.379  0.4400 -1.1141  0.1869
12960TIP3   OH260370   3.647   2.300   4.407  0.2291 -0.0257 -0.2875
12960TIP3    H160371   3.659   2.387   4.445  2.0949 -0.3377 -0.0968
12960TIP3    H260372   3.685   2.307   4.319  1.1865 -0.8591  0.0439
12961TIP3   OH260373   5.290   2.383   3.572 -0.0932  0.3834  0.2786
12961TIP3    H160374   5.242   2.373   3.655 -0.0325 -1.0333  0.1535
12961TIP3    H260375   5.234   2.440   3.520 -0.6600  0.4107  0.8957
12962TIP3   OH260376   0.240   2.353  13.680 -0.5265  0.1422 -0.8765
12962TIP3    H160377   0.168   2.405  13.646  0.3760  1.4751 -0.8295
12962TIP3    H260378   0.204   2.308  13.757 -0.5261  3.3744  1.2098
12963TIP3   OH260379   2.855   2.288   5.343 -0.1981 -0.0625 -0.4689
12963TIP3    H160380   2.765   2.323   5.345 -0.4847 -0.7596 -0.8764
12963TIP3    H260381   2.906   2.356   5.298 -0.0584  1.3412  1.6455
12964TIP3   OH260382   2.593   4.743   0.572 -0.8948 -0.0398 -0.1026
12964TIP3    H160383   2.590   4.837   0.556  1.4687  0.3106  1.0107
12964TIP3    H260384   2.679   4.715   0.538 -1.2022 -1.6178  0.3174
12965TIP3   OH260385   2.645   0.028  13.589 -0.7514 -0.7023  0.2104
12965TIP3    H160386   2.720   0.016  13.647 -0.6368 -1.2920 -0.0548
12965TIP3    H260387   2.573   0.053  13.648  0.1203  1.9947  0.2631
12966TIP3   OH260388   5.108   6.499  15.099 -0.7022 -0.1184  0.3284
12966TIP3    H160389   5.018   6.504  15.132 -0.2766 -3.5361  2.4956
12966TIP3    H260390   5.098   6.481  15.005 -2.3444 -1.3001  0.6886
12967TIP3   OH260391   2.443   0.612   3.032 -0.0831 -0.4180 -0.5013
12967TIP3    H160392   2.522   0.627   2.980 -0.0083 -0.1391 -0.3067
12967TIP3    H260393   2.400   0.697   3.036 -0.5987 -0.6539 -0.9370
12968TIP3   OH260394   2.413   0.068  11.105  0.5179  0.2025 -0.5117
12968TIP3    H160395   2.405   0.148  11.053 -3.0197 -0.2187 -0.8808
12968TIP3    H260396   2.430  -0.001  11.041  0.2076  0.2255 -0.6204
12969TIP3   OH260397   1.079   1.750   3.073 -0.0074  0.1005  0.7848
12969TIP3    H160398   1.155   1.801   3.102 -0.9465  1.6569  0.6402
12969TIP3    H260399   1.078   1.760   2.978 -1.6946  2.1516  0.9360
12970TIP3   OH260400   1.864   2.690  13.178 -0.0051  0.9357  0.3542
12970TIP3    H160401   1.903   2.777  13.185  0.0554  1.0027 -0.6341
12970TIP3    H260402   1.931   2.631  13.214  0.9545  1.0703 -1.1440
12971TIP3   OH260403   4.946   5.120   2.167 -0.5138 -0.0901  0.5360
12971TIP3    H160404   4.974   5.111   2.258 -0.7164 -2.0306  0.4354
12971TIP3    H260405   5.019   5.164   2.124 -0.6176  1.2941  1.7091
12972TIP3   OH260406   1.236   2.165   3.934 -0.0977 -0.5687 -0.2093
12972TIP3    H160407   1.247   2.225   4.008 -2.2960  0.7063 -0.8312
12972TIP3    H260408   1.288   2.088   3.958 -0.3498 -0.0114  2.4381
12973TIP3   OH260409   5.730   3.349  11.101  0.5662 -0.4147  0.2362
12973TIP3    H160410   5.793   3.381  11.037 -1.7548  1.0623 -1.4433
12973TIP3    H260411   5.659   3.313  11.049 -0.7341 -0.5349  2.0174
12974TIP3   OH260412   6.695   2.531  14.042 -0.1228 -0.0753  0.3066
12974TIP3    H160413   6.653   2.540  14.128 -0.6431 -0.1771  0.0639
12974TIP3    H260414   6.631   2.485  13.988  1.1653 -2.2673  0.5390
12975TIP3   OH260415   0.620   5.272   4.167 -0.6376 -0.0259 -0.0440
12975TIP3    H160416   0.691   5.281   4.104  0.5534 -0.1122  1.2475
12975TIP3    H260417   0.618   5.178   4.187 -0.5349  0.0956  0.5609
12976TIP3   OH260418   5.893   0.642  17.112  0.2357  0.5005  0.7404
12976TIP3    H160419   5.908   0.684  17.197  1.6185 -0.0966  0.8196
12976TIP3    H260420   5.876   0.714  17.052  0.4436  1.0251  1.3004
12977TIP3   OH260421   6.023   3.950   2.832 -0.5804 -0.2313  0.4375
12977TIP3    H160422   6.116   3.952   2.856 -0.8136 -0.1984  1.3882
12977TIP3    H260423   6.008   3.860   2.803  0.0490  0.1127 -1.0638
12978TIP3   OH260424   2.481   6.417  14.985  0.0672  0.6895 -0.1473
12978TIP3    H160425   2.518   6.353  14.924 -0.7145  1.4205 -1.4517
12978TIP3    H260426   2.420   6.467  14.931  0.2964  2.2080  0.9650
12979TIP3   OH260427   1.438   1.237  11.674  0.2722  0.4921  0.4958
12979TIP3    H160428   1.364   1.256  11.617  0.7910  1.0787 -0.0087
12979TIP3    H260429   1.429   1.145  11.696  0.1680  0.1899 -0.7208
12980TIP3   OH260430   1.078   2.496  12.348 -0.0987 -0.2904 -0.0135
12980TIP3    H160431   1.159   2.474  12.393  0.6502 -1.4075 -1.7907
12980TIP3    H260432   1.037   2.563  12.403  1.2097 -0.8863  1.7624
12981TIP3   OH260433   6.495   4.348  14.408 -0.9446  0.3385 -0.1622
12981TIP3    H160434   6.476   4.291  14.334 -2.5433  0.8283 -0.1589
12981TIP3    H260435   6.440   4.314  14.479  2.3334 -1.6904  1.6713
12982TIP3   OH260436   5.999   2.230  11.878 -0.0890 -0.5311  0.3303
12982TIP3    H160437   6.032   2.217  11.789  0.4503 -0.2009  0.4743
12982TIP3    H260438   6.074   2.213  11.934 -0.1763  0.1535  0.6731
12983TIP3   OH260439   4.510   3.153   2.382 -0.2737  0.1449  0.1905
12983TIP3    H160440   4.504   3.175   2.289  0.8001  0.6134  0.2138
12983TIP3    H260441   4.516   3.238   2.426  0.2361 -0.0976  0.5957
12984TIP3   OH260442   0.100   1.675  16.114  0.3209 -0.7460  0.1427
12984TIP3    H160443   0.185   1.645  16.145  0.5277 -0.6730 -0.3429
12984TIP3    H260444   0.100   1.769  16.131  0.1664 -0.8193  0.5368
12985TIP3   OH260445   5.664   0.762  15.261  0.3385 -0.0383 -0.4851
12985TIP3    H160446   5.601   0.802  15.321  0.2767  0.7926 -1.0915
12985TIP3    H260447   5.612   0.735  15.185  0.2967 -1.7439  0.1067
12986TIP3   OH260448   4.830   6.446  13.254 -0.1880 -0.0497  0.0815
12986TIP3    H160449   4.818   6.423  13.162  0.2340 -2.1612  0.5157
12986TIP3    H260450   4.749   6.419  13.297 -0.5094  1.2067  0.3149
12987TIP3   OH260451   4.987   5.403   4.652  0.5331 -0.3172  0.1129
12987TIP3    H160452   5.030   5.434   4.572 -0.2942  1.5161  0.3344
12987TIP3    H260453   4.997   5.308   4.649  3.5759 -0.0582 -0.3879
12988TIP3   OH260454   0.880   6.220  15.603 -0.2816  0.1087 -0.2778
12988TIP3    H160455   0.948   6.271  15.647 -0.5596  0.3829 -0.1607
12988TIP3    H260456   0.841   6.167  15.672 -0.8404  0.6740 -0.1512
12989TIP3   OH260457   5.690   4.345   0.299 -0.5419  0.5587 -0.7589
12989TIP3    H160458   5.772   4.313   0.262 -0.6992 -1.0447  0.2078
12989TIP3    H260459   5.691   4.318   0.390 -1.5756  1.6586 -0.3882
12990TIP3   OH260460   4.518   0.052  16.474  0.4542 -0.2495  0.1547
12990TIP3    H160461   4.437   0.095  16.447  0.1577  0.0950  1.5160
12990TIP3    H260462   4.516  -0.033  16.430 -1.1701 -0.6861  1.0066
12991TIP3   OH260463   6.265   3.741  14.165  0.0434 -0.7248 -0.0365
12991TIP3    H160464   6.314   3.660  14.148  0.9648  0.0893 -1.4971
12991TIP3    H260465   6.224   3.762  14.081 -0.7076  0.0021  0.4955
12992TIP3   OH260466   6.321   5.639  13.699  0.0442  0.2130  0.5973
12992TIP3    H160467   6.398   5.588  13.671  0.8289  2.1877 -1.0730
12992TIP3    H260468   6.264   5.639  13.622  0.7395  3.0304 -0.0008
12993TIP3   OH260469   3.547   1.149   2.896 -0.3364 -0.0495 -0.2484
12993TIP3    H160470   3.628   1.198   2.908 -0.3696  0.4009 -1.6788
12993TIP3    H260471   3.563   1.065   2.938 -0.0246  0.8981  1.6446
12994TIP3   OH260472   2.658   2.973  13.417  0.1027  0.4162 -0.2307
12994TIP3    H160473   2.652   3.068  13.403 -1.2660  0.6910  1.8773
12994TIP3    H260474   2.676   2.963  13.510 -1.4818 -1.4041 -0.0564
12995TIP3   OH260475   0.672   3.340  12.248  0.3982  0.1667  0.4550
12995TIP3    H160476   0.721   3.422  12.240  1.8184 -0.5280  1.5492
12995TIP3    H260477   0.712   3.295  12.322 -1.0943 -1.0294  0.5930
12996TIP3   OH260478   5.432   3.152   4.813  0.2127  0.0262 -0.2576
12996TIP3    H160479   5.464   3.204   4.740  0.6646  0.3749  0.1774
12996TIP3    H260480   5.495   3.168   4.883 -0.5243  0.1657  0.3917
12997TIP3   OH260481   5.253   1.769   2.597 -0.5872 -0.0955  0.1255
12997TIP3    H160482   5.328   1.757   2.539 -0.8744  2.2264 -0.8350
12997TIP3    H260483   5.288   1.753   2.685  0.8592  0.2384 -0.3544
12998TIP3   OH260484   2.379   5.699   1.176 -0.3440 -0.4438  0.7748
12998TIP3    H160485   2.367   5.615   1.132  0.9426  0.7017 -2.0042
12998TIP3    H260486   2.301   5.709   1.231 -1.3876 -2.6341 -0.1829
12999TIP3   OH260487   0.308   5.906   5.381 -0.5015  0.0306 -0.5173
12999TIP3    H160488   0.358   5.852   5.319 -1.2191 -0.1691 -0.9310
12999TIP3    H260489   0.305   5.854   5.461 -0.1208  0.0113 -0.5100
13000TIP3   OH260490   2.341   5.824   5.732 -0.0095 -0.2345  0.0322
13000TIP3    H160491   2.370   5.759   5.668  0.7146  2.7657 -2.9627
13000TIP3    H260492   2.422   5.859   5.769 -0.3746 -0.5496  1.1722
13001TIP3   OH260493   0.363   6.570   1.968 -0.1111  0.6955  0.4130
13001TIP3    H160494   0.268   6.564   1.973  0.0208 -1.0833  3.6137
13001TIP3    H260495   0.385   6.647   2.022  0.3019  1.3836 -0.6930
13002TIP3   OH260496   4.649   2.872   4.205 -0.0841  0.1394  0.4378
13002TIP3    H160497   4.656   2.871   4.109 -1.0912  2.1553  0.2693
13002TIP3    H260498   4.622   2.783   4.228  1.0632 -0.6374 -1.0474
13003TIP3   OH260499   0.778   6.104   4.880 -0.0667  0.5871 -0.4958
13003TIP3    H160500   0.786   6.026   4.825 -0.3726 -0.5756  1.0599
13003TIP3    H260501   0.773   6.176   4.817 -0.1399 -0.6522 -1.9860
13004TIP3   OH260502   2.787   5.022  15.935 -0.4900  0.8435 -0.2771
13004TIP3    H160503   2.762   5.072  16.012  0.3666 -0.4798  0.9148
13004TIP3    H260504   2.803   4.934  15.968  0.5843  0.4116 -1.8427
13005TIP3   OH260505   5.227   1.211   0.668  0.0657  0.3293 -0.1823
13005TIP3    H160506   5.311   1.173   0.642 -0.1099  0.1875 -0.5383
13005TIP3    H260507   5.247   1.257   0.750  0.6418  0.8705 -0.6068
13006TIP3   OH260508   4.819   6.802   3.003 -0.1421 -0.6077  0.0844
13006TIP3    H160509   4.870   6.872   2.962  0.2382 -1.4303 -0.8907
13006TIP3    H260510   4.733   6.840   3.017 -0.0659 -0.0721 -0.8310
13007TIP3   OH260511   4.706   0.643  15.853 -0.1810 -0.0914  0.3413
13007TIP3    H160512   4.757   0.570  15.817 -1.2011 -1.9996  2.5060
13007TIP3    H260513   4.616   0.625  15.825 -0.7331 -0.7378  2.3520
13008TIP3   OH260514   1.011   4.523  13.674  0.0649  0.0919 -0.6542
13008TIP3    H160515   0.985   4.504  13.584  0.4790 -1.6799 -0.4312
13008TIP3    H260516   0.986   4.445  13.724 -0.9250  1.3634  0.9432
13009TIP3   OH260517   3.750   6.224  14.201  0.0550 -0.3528 -0.2543
13009TIP3    H160518   3.760   6.206  14.107  0.2391  0.2471 -0.3587
13009TIP3    H260519   3.717   6.314  14.205  3.1611  0.9046  0.2795
13010TIP3   OH260520   5.987   4.632  12.791 -0.7127 -0.2447  0.4295
13010TIP3    H160521   5.971   4.726  12.798  2.5606  0.5799 -1.3281
13010TIP3    H260522   5.971   4.598  12.879 -0.8139  2.1453  1.3979
13011TIP3   OH260523   3.741   5.100   4.221 -0.2242 -0.6895  0.1896
13011TIP3    H160524   3.746   5.117   4.315 -1.3653  3.1161 -0.2783
13011TIP3    H260525   3.756   5.185   4.180  0.3150 -2.2119 -3.1463
13012TIP3   OH260526   0.512   5.532   4.477  0.1200  0.2514  0.4725
13012TIP3    H160527   0.418   5.532   4.497  0.5421  0.4988  2.6840
13012TIP3    H260528   0.536   5.625   4.474  0.0900  0.2372 -1.3902
13013TIP3   OH260529   5.673   3.597  15.326  0.0349  0.1691  0.3688
13013TIP3    H160530   5.657   3.685  15.293  0.1833  0.2837  0.5973
13013TIP3    H260531   5.586   3.562  15.346 -0.2148 -0.5570 -1.7705
13014TIP3   OH260532   4.302   0.959   1.661 -0.2659  0.0537  0.5920
13014TIP3    H160533   4.264   1.040   1.693 -2.4391 -0.2188 -1.0515
13014TIP3    H260534   4.234   0.893   1.677  0.8931 -1.1754  0.6323
13015TIP3   OH260535   3.720   6.334   0.239  0.1041  0.0086 -0.4106
13015TIP3    H160536   3.798   6.283   0.216 -0.8270 -1.9023  0.4558
13015TIP3    H260537   3.648   6.288   0.197 -0.9133 -0.1675  1.4242
13016TIP3   OH260538   1.844   2.379   1.138 -0.4299  0.8356  0.6479
13016TIP3    H160539   1.853   2.311   1.205 -0.8048  0.6412  0.4992
13016TIP3    H260540   1.782   2.442   1.176 -0.0290  1.1346  0.8159
13017TIP3   OH260541   0.418   1.320   0.496  0.7276  0.2838  0.4770
13017TIP3    H160542   0.326   1.346   0.498  0.6886  0.8427 -2.9943
13017TIP3    H260543   0.463   1.386   0.549 -0.3271  3.0361 -1.8416
13018TIP3   OH260544   6.668   5.136   2.395  0.1169 -0.2835  0.1560
13018TIP3    H160545   6.598   5.196   2.422  0.4071  0.3922 -0.5606
13018TIP3    H260546   6.731   5.192   2.350  0.2912 -1.1589 -0.7134
13019TIP3   OH260547   4.039   1.294  15.289 -0.3545  0.3110 -0.4016
13019TIP3    H160548   4.011   1.341  15.368  2.9916  3.1680 -0.6724
13019TIP3    H260549   4.040   1.361  15.221 -1.1799 -1.6351 -2.4433
13020TIP3   OH260550   6.338   1.925  13.754  0.3465 -0.0224  0.0841
13020TIP3    H160551   6.430   1.939  13.730  0.1662  1.7851  0.3172
13020TIP3    H260552   6.296   1.895  13.673  0.9879 -0.0689 -0.2337
13021TIP3   OH260553   0.940   1.567  12.916 -0.7850  0.3657 -0.2576
13021TIP3    H160554   0.845   1.578  12.918 -0.7361  1.2906  2.8393
13021TIP3    H260555   0.960   1.525  13.000  1.5882  0.6820 -0.6019
13022TIP3   OH260556   2.145   2.677  12.078 -0.0758  0.9049 -0.4085
13022TIP3    H160557   2.090   2.685  12.001 -0.4753  0.1683 -0.2001
13022TIP3    H260558   2.230   2.714  12.051 -0.5030  1.5663 -0.8788
13023TIP3   OH260559   6.628   4.508  11.253 -0.4156  0.4873 -0.5055
13023TIP3    H160560   6.705   4.493  11.198 -0.8967  0.9726 -1.3239
13023TIP3    H260561   6.569   4.560  11.198 -0.8574  1.0794  0.5065
13024TIP3   OH260562   5.558   6.004  13.157 -0.3736 -0.0087 -0.1543
13024TIP3    H160563   5.614   5.950  13.103 -0.3446  0.8198 -0.9772
13024TIP3    H260564   5.591   6.093  13.145 -2.1014  0.5589 -1.0097
13025TIP3   OH260565   1.579   5.568  15.778  0.1586 -0.0773 -0.7035
13025TIP3    H160566   1.554   5.476  15.766 -1.8673  0.0668  1.6209
13025TIP3    H260567   1.527   5.616  15.714 -0.8253 -0.3582 -0.1384
13026TIP3   OH260568   1.415   2.500  13.343  0.0373  0.5660  0.0663
13026TIP3    H160569   1.463   2.580  13.360 -0.2112  0.8288 -0.4353
13026TIP3    H260570   1.417   2.491  13.248 -0.6156  0.4042  0.0624
13027TIP3   OH260571   1.801   0.611   4.605  0.8082 -0.1583 -0.0916
13027TIP3    H160572   1.826   0.545   4.541  2.2062  1.7431 -1.6402
13027TIP3    H260573   1.727   0.656   4.564  1.2763  0.6327 -0.0826
13028TIP3   OH260574   4.923   2.804   0.498  0.0324 -0.0508 -0.9984
13028TIP3    H160575   4.966   2.751   0.566 -0.8844 -1.7438 -1.6952
13028TIP3    H260576   4.957   2.892   0.512  0.5452 -0.5269  1.1032
13029TIP3   OH260577   1.990   0.983  16.419 -0.2110  0.3008 -0.7054
13029TIP3    H160578   1.917   0.921  16.414  0.3150 -0.4301  0.3517
13029TIP3    H260579   1.984   1.033  16.338 -2.2688  0.6836 -0.3676
13030TIP3   OH260580   5.826   2.894  17.109  0.0446 -0.8298  0.1188
13030TIP3    H160581   5.898   2.899  17.046  0.9787 -0.0016  1.1955
13030TIP3    H260582   5.854   2.950  17.182 -0.8469 -2.0027  1.4192
13031TIP3   OH260583   2.864   6.179  12.142  0.0046  0.1006  0.4406
13031TIP3    H160584   2.874   6.087  12.118  1.7188  0.4610 -0.4096
13031TIP3    H260585   2.937   6.196  12.202  1.3725  1.4924 -1.4752
13032TIP3   OH260586   0.195   5.578  13.074 -0.0851  0.2286 -0.6748
13032TIP3    H160587   0.286   5.575  13.102 -0.7937 -1.6963  1.7247
13032TIP3    H260588   0.195   5.536  12.988  0.9212 -2.7127  0.6497
13033TIP3   OH260589   6.059   5.316   0.168 -0.0460  0.1265  0.2008
13033TIP3    H160590   6.051   5.376   0.242  0.3448  1.2799 -0.6684
13033TIP3    H260591   6.148   5.331   0.135 -0.8796  1.0846 -1.7157
13034TIP3   OH260592   1.397   5.501  14.622 -0.5008 -0.1587 -0.0298
13034TIP3    H160593   1.347   5.580  14.601 -0.4273  0.4936  1.9524
13034TIP3    H260594   1.362   5.433  14.564 -0.2933  1.3855 -2.0678
13035TIP3   OH260595   0.471   0.978   3.254 -0.7122  0.3923  0.2418
13035TIP3    H160596   0.422   0.990   3.335 -1.3854 -0.2194 -0.0619
13035TIP3    H260597   0.515   0.893   3.264 -1.4454 -0.0740 -0.3386
13036TIP3   OH260598   3.230   5.219  11.987 -0.5939 -0.3512 -0.2414
13036TIP3    H160599   3.231   5.125  11.969 -0.8476 -0.0751 -1.8391
13036TIP3    H260600   3.306   5.254  11.939  0.8708 -0.0068  2.1599
13037TIP3   OH260601   1.851   2.258   6.269 -0.2063 -0.3744 -0.1656
13037TIP3    H160602   1.842   2.304   6.186  0.5389 -0.0820 -0.0903
13037TIP3    H260603   1.846   2.327   6.335 -1.2478 -0.6503  0.0756
13038TIP3   OH260604   5.102   3.226   5.994  0.6754  0.0189 -0.3593
13038TIP3    H160605   5.084   3.192   6.081  0.1830  0.6141 -0.2227
13038TIP3    H260606   5.196   3.242   5.993  0.5968  0.5394  0.2567
13039TIP3   OH260607   1.868   3.152   5.725 -0.1421  0.0656  0.2168
13039TIP3    H160608   1.889   3.235   5.769 -0.0384 -0.2888  0.8549
13039TIP3    H260609   1.780   3.166   5.689 -0.5435  0.1258  1.1828
13040TIP3   OH260610   1.562   4.273  15.722  0.2862 -0.3345 -0.1330
13040TIP3    H160611   1.573   4.363  15.691  2.6183 -1.0569 -1.6664
13040TIP3    H260612   1.517   4.229  15.650 -1.6343 -0.2807  0.9640
13041TIP3   OH260613   3.540   5.517   5.766 -0.5801  0.0240 -1.1715
13041TIP3    H160614   3.584   5.515   5.851  1.9603 -0.8673 -2.3915
13041TIP3    H260615   3.447   5.514   5.787 -0.1365  2.0263  1.6140
13042TIP3   OH260616   2.475   2.102   5.054 -0.0162  0.4655 -0.2471
13042TIP3    H160617   2.416   2.066   5.120  1.3570  0.1154  0.8489
13042TIP3    H260618   2.525   2.026   5.023  0.4624  0.8748 -0.4991
13043TIP3   OH260619   5.327   3.347  12.954  0.1614 -0.6100 -0.0596
13043TIP3    H160620   5.308   3.330  12.862 -0.8760 -2.1598  0.3993
13043TIP3    H260621   5.284   3.431  12.972 -1.3734 -1.2765 -0.5048
13044TIP3   OH260622   3.115   2.381   0.007  0.0843  0.6997 -0.4583
13044TIP3    H160623   3.209   2.361   0.004 -0.2807 -1.3172  0.3411
13044TIP3    H260624   3.077   2.328  -0.063 -0.7814 -0.6064  0.9693
13045TIP3   OH260625   1.113   6.503   1.513  0.0173  0.6280 -0.1471
13045TIP3    H160626   1.054   6.481   1.441 -0.1576  1.1108 -0.1562
13045TIP3    H260627   1.055   6.517   1.588  0.3073 -1.5396  0.5303
13046TIP3   OH260628   2.116   4.586   2.195 -0.7135  0.4241  0.4190
13046TIP3    H160629   2.204   4.588   2.157 -1.5334  0.1959 -1.6338
13046TIP3    H260630   2.130   4.588   2.289  1.5315 -1.1417  0.1837
13047TIP3   OH260631   6.653   3.218   0.512 -0.7795 -0.3394  0.4097
13047TIP3    H160632   6.665   3.216   0.417 -0.5176  1.4881  0.3721
13047TIP3    H260633   6.581   3.279   0.525 -2.4114 -2.3450  1.3020
13048TIP3   OH260634   3.737   3.872  11.971  0.2465  0.0918  0.2210
13048TIP3    H160635   3.726   3.798  11.911  2.6469  1.0835 -1.6098
13048TIP3    H260636   3.816   3.851  12.021 -0.0683  0.6313  0.9648
13049TIP3   OH260637   5.611   5.475   4.223 -0.0243  0.5350  0.0512
13049TIP3    H160638   5.601   5.469   4.128 -0.1139  0.7464  0.0463
13049TIP3    H260639   5.655   5.394   4.248 -1.9357 -0.5684  0.0839
13050TIP3   OH260640   2.354   2.171  12.066  0.7150  0.4436  0.2663
13050TIP3    H160641   2.427   2.213  12.021  0.2308  1.7924  0.7104
13050TIP3    H260642   2.338   2.226  12.142 -0.1655 -0.3625  0.6760
13051TIP3   OH260643   4.905   1.012   0.253 -0.2572  0.2933 -0.0811
13051TIP3    H160644   4.993   1.042   0.276  0.0152 -0.2922 -0.3545
13051TIP3    H260645   4.847   1.077   0.292  0.2705  0.3053  0.6994
13052TIP3   OH260646   1.158   4.087   2.688  0.3525 -0.0832 -0.6383
13052TIP3    H160647   1.225   4.070   2.622 -0.7837 -2.2612 -1.3195
13052TIP3    H260648   1.076   4.089   2.639 -0.4282 -0.8964  0.5803
13053TIP3   OH260649   4.812   3.316   3.317 -0.5009 -0.1105  0.0001
13053TIP3    H160650   4.861   3.302   3.398 -1.6352 -1.1522  0.5372
13053TIP3    H260651   4.865   3.378   3.267  2.3430 -2.5895 -0.3356
13054TIP3   OH260652   3.274   6.209  14.825  0.4186  0.1038  0.2638
13054TIP3    H160653   3.195   6.246  14.785  1.2111  1.3052 -0.2232
13054TIP3    H260654   3.326   6.178  14.751  0.7725  0.0378  0.5376
13055TIP3   OH260655   1.945   0.828  12.820 -0.0220 -0.0965 -0.3114
13055TIP3    H160656   1.901   0.896  12.871  2.1950  1.0981  0.1462
13055TIP3    H260657   1.985   0.771  12.885  0.8234  0.0597 -0.6780
13056TIP3   OH260658   2.385   3.653  16.846  0.3081 -0.1181 -0.4629
13056TIP3    H160659   2.369   3.709  16.921  0.0131  0.0468 -0.6481
13056TIP3    H260660   2.479   3.634  16.850  0.8798  2.1340 -1.5973
13057TIP3   OH260661   2.476   6.540   0.372 -0.3823  0.0042  0.0624
13057TIP3    H160662   2.425   6.549   0.291  1.0788  3.2817 -0.6667
13057TIP3    H260663   2.416   6.568   0.441 -0.2500  1.9241 -0.5470
13058TIP3   OH260664   5.791   6.739   3.440 -0.1946 -0.5713  0.9737
13058TIP3    H160665   5.864   6.696   3.485  1.0481 -0.5110 -0.8619
13058TIP3    H260666   5.803   6.832   3.459  0.4881 -0.5187  0.3227
13059TIP3   OH260667   2.068   6.699  11.806 -0.2539  0.2492 -0.0551
13059TIP3    H160668   2.149   6.747  11.787 -0.4728  2.1681  3.1602
13059TIP3    H260669   2.093   6.634  11.872 -0.9711 -0.6540 -0.6371
13060TIP3   OH260670   6.492   0.721   4.534 -0.4744 -0.0821 -0.1307
13060TIP3    H160671   6.434   0.771   4.591  2.2242  2.7456  0.4318
13060TIP3    H260672   6.533   0.656   4.593 -1.3577 -0.5697 -0.0384
13061TIP3   OH260673   6.154   3.623  11.981 -0.6264  0.2352  0.5801
13061TIP3    H160674   6.207   3.666  12.048 -0.5371 -0.3606  0.8916
13061TIP3    H260675   6.161   3.530  12.000  0.7658 -0.1001 -1.2532
13062TIP3   OH260676   4.198   5.691  11.029 -0.4841  0.7007 -0.1370
13062TIP3    H160677   4.206   5.769  11.083 -0.4811  0.1238  0.7186
13062TIP3    H260678   4.202   5.723  10.939  1.0112  1.5291  0.2011
13063TIP3   OH260679   2.883   5.713  11.816  0.3616 -0.6492  0.6809
13063TIP3    H160680   2.925   5.757  11.890  1.4321 -2.0471  0.9483
13063TIP3    H260681   2.915   5.623  11.820  0.5621 -0.7453 -1.5453
13064TIP3   OH260682   3.039   6.314  16.204 -0.2668 -0.2221  0.0633
13064TIP3    H160683   3.086   6.362  16.272  0.6670 -1.1473  0.0968
13064TIP3    H260684   3.099   6.312  16.130  0.7950 -3.3465  0.8386
13065TIP3   OH260685   0.505   4.405   4.961 -0.4098  0.2264  0.0458
13065TIP3    H160686   0.550   4.414   5.045 -0.8576  1.1428  0.1976
13065TIP3    H260687   0.414   4.427   4.980 -0.5700  0.1769 -0.6314
13066TIP3   OH260688   6.217   0.544   2.190  0.2088 -0.0877 -0.1192
13066TIP3    H160689   6.147   0.600   2.223  0.0507 -0.8318  0.8337
13066TIP3    H260690   6.223   0.472   2.253 -1.4905 -2.7011 -2.6962
13067TIP3   OH260691   0.484   5.747   1.964 -0.6537 -0.3507  0.1427
13067TIP3    H160692   0.475   5.803   1.886  1.2963  0.6967  0.6003
13067TIP3    H260693   0.407   5.767   2.017 -0.6967  0.8896 -0.3423
13068TIP3   OH260694   1.739   3.046  13.767 -0.5954  0.2775 -0.5256
13068TIP3    H160695   1.707   2.957  13.752  0.4569  0.0044 -1.2273
13068TIP3    H260696   1.763   3.078  13.681  2.7580 -0.2210  0.0855
13069TIP3   OH260697   1.484   1.394  12.477  0.7670  0.1850 -1.0174
13069TIP3    H160698   1.456   1.484  12.497  0.7350 -0.1099  0.3266
13069TIP3    H260699   1.566   1.384  12.524  0.8606 -0.4381 -1.3150
13070TIP3   OH260700   2.307   6.107  15.105  0.1210  0.1799  0.2968
13070TIP3    H160701   2.291   6.123  15.013 -1.6804  0.4368  0.6194
13070TIP3    H260702   2.362   6.028  15.107  0.4995  0.3964 -0.9869
13071TIP3   OH260703   4.364   5.454   6.302 -0.3779 -0.1120 -0.1512
13071TIP3    H160704   4.327   5.525   6.249  0.2145 -0.1049 -0.5640
13071TIP3    H260705   4.344   5.479   6.393 -1.8058 -0.3506 -0.3714
13072TIP3   OH260706   0.818   4.518   2.270  0.4112  0.3607  0.2522
13072TIP3    H160707   0.832   4.512   2.365  4.1592  2.0446 -0.0170
13072TIP3    H260708   0.739   4.570   2.261 -0.5092 -0.5348  2.4093
13073TIP3   OH260709   5.268   4.064   1.704  0.3040  0.2007 -0.0682
13073TIP3    H160710   5.282   4.093   1.614 -0.0579  0.7930  0.0586
13073TIP3    H260711   5.353   4.033   1.733  1.2766  3.1727  0.5063
13074TIP3   OH260712   4.154   2.884  14.592  0.4766 -0.1059  0.0377
13074TIP3    H160713   4.079   2.903  14.648  1.0631  0.8737  0.5019
13074TIP3    H260714   4.137   2.932  14.512 -0.6207 -1.9229 -0.8878
13075TIP3   OH260715   4.439   5.399   2.641  0.1106  0.7328  0.0761
13075TIP3    H160716   4.388   5.371   2.717 -0.3631  0.7139 -0.2434
13075TIP3    H260717   4.500   5.328   2.625  1.0971  1.2961  1.2263
13076TIP3   OH260718   4.576   4.032  15.887 -0.0013 -0.0209  0.2961
13076TIP3    H160719   4.599   3.995  15.972 -3.1162 -1.0869  0.7961
13076TIP3    H260720   4.558   4.124  15.905  0.8696  0.1366  0.4305
13077TIP3   OH260721   1.220   5.603   0.274  0.2649  0.2668  0.2161
13077TIP3    H160722   1.126   5.619   0.282  0.5079  2.0761 -0.0602
13077TIP3    H260723   1.247   5.573   0.360 -0.4282  0.5104  0.5231
13078TIP3   OH260724   1.901   5.153  13.929  0.2918 -0.1659 -0.1884
13078TIP3    H160725   1.918   5.128  14.020  0.0137 -0.1161 -0.1219
13078TIP3    H260726   1.947   5.237  13.919 -0.3475  0.2264  0.1453
13079TIP3   OH260727   4.628   4.227  12.725  0.1825 -0.0389 -0.0915
13079TIP3    H160728   4.690   4.296  12.700  1.1002 -0.5212  0.7775
13079TIP3    H260729   4.683   4.157  12.759 -0.6649 -1.5146 -1.5897
13080TIP3   OH260730   3.553   6.099   4.507  0.2701  0.6520  0.3379
13080TIP3    H160731   3.641   6.128   4.530 -0.1113  0.0744  2.7159
13080TIP3    H260732   3.496   6.172   4.530 -0.2373 -0.3330  2.4758
13081TIP3   OH260733   5.490   1.995   4.806 -0.5429 -0.5862 -0.0705
13081TIP3    H160734   5.430   2.036   4.868 -0.7546 -1.7361  0.5096
13081TIP3    H260735   5.460   1.905   4.799 -0.7212 -0.4084 -2.1241
13082TIP3   OH260736   5.044   5.474  12.162 -0.4495 -0.0026  0.9189
13082TIP3    H160737   5.117   5.516  12.117 -0.7761  0.2261  0.5919
13082TIP3    H260738   5.079   5.451  12.248 -0.6370  2.2340  1.6654
13083TIP3   OH260739   4.859   0.704   2.421  0.7165  0.5371 -0.3594
13083TIP3    H160740   4.867   0.653   2.501  2.0122 -0.3612 -1.0286
13083TIP3    H260741   4.764   0.714   2.408  0.4816  1.2764  1.5973
13084TIP3   OH260742   0.808   3.899  15.443  0.1312 -0.1664 -0.4686
13084TIP3    H160743   0.861   3.878  15.519 -0.1562 -0.8556 -0.4490
13084TIP3    H260744   0.719   3.871  15.467 -0.4764  1.9812 -0.0730
13085TIP3   OH260745   5.598   4.206   1.694  0.0185  0.2032 -0.1281
13085TIP3    H160746   5.588   4.197   1.788 -2.3434  0.0548 -0.3288
13085TIP3    H260747   5.594   4.117   1.660  0.2960  0.2967 -0.4138
13086TIP3   OH260748   2.651   3.680  16.083 -0.3401 -0.1127 -0.0062
13086TIP3    H160749   2.578   3.713  16.135 -0.4889  0.4372 -0.5451
13086TIP3    H260750   2.705   3.757  16.065 -0.3443 -0.2686 -0.7436
13087TIP3   OH260751   4.785   0.845   0.083  0.7927  0.5439  0.1265
13087TIP3    H160752   4.825   0.897   0.152 -0.3976 -0.6666  1.8187
13087TIP3    H260753   4.729   0.906   0.035  1.2298  1.2857  0.5438
13088TIP3   OH260754   5.394   5.120  16.742  0.0747  0.4341  0.2883
13088TIP3    H160755   5.346   5.193  16.702  1.5398  1.1419 -0.2821
13088TIP3    H260756   5.481   5.124  16.700 -0.1771 -2.4421 -0.7021
13089TIP3   OH260757   1.256   2.766   3.857  0.7146 -0.2921 -0.3903
13089TIP3    H160758   1.219   2.752   3.770  0.5023  0.6023 -0.4522
13089TIP3    H260759   1.221   2.851   3.885 -0.6408 -1.3377  1.3172
13090TIP3   OH260760   3.291   5.252  13.035  0.1995 -0.3098  0.1848
13090TIP3    H160761   3.384   5.242  13.057  0.3346  0.0737 -0.1781
13090TIP3    H260762   3.264   5.332  13.081  0.4012  0.3161 -0.7418
13091TIP3   OH260763   6.782   2.752  17.108  0.4249  0.2290 -0.3955
13091TIP3    H160764   6.847   2.822  17.116  0.6057 -0.0043  0.2524
13091TIP3    H260765   6.806   2.705  17.028  0.4927  0.7099 -0.6634
13092TIP3   OH260766   0.122   4.723   4.327 -0.2854 -0.0640 -0.0564
13092TIP3    H160767   0.149   4.657   4.263 -1.8762  1.3941 -2.4248
13092TIP3    H260768   0.204   4.761   4.359  0.6169  0.2235 -2.5052
13093TIP3   OH260769   6.328   4.557   4.780  0.4308 -0.2011  0.0209
13093TIP3    H160770   6.294   4.640   4.746  0.4909 -0.1459  0.0963
13093TIP3    H260771   6.326   4.498   4.705  0.2623 -0.1698 -0.0009
13094TIP3   OH260772   3.235   3.710  14.310  0.2301 -0.0377 -0.1000
13094TIP3    H160773   3.181   3.786  14.286 -1.1811 -1.0759 -0.3604
13094TIP3    H260774   3.312   3.716  14.253 -1.2615 -0.3705 -2.3062
13095TIP3   OH260775   1.017   2.236  17.275 -0.1501 -0.3670 -0.3188
13095TIP3    H160776   1.060   2.268  17.196 -0.9238 -0.1010 -0.6401
13095TIP3    H260777   1.037   2.303  17.341  1.7558 -1.3198  0.1430
13096TIP3   OH260778   0.525   2.939  17.049 -0.8173 -0.0261 -0.2579
13096TIP3    H160779   0.543   3.032  17.062 -2.7814  0.3362  0.1868
13096TIP3    H260780   0.523   2.903  17.138  0.5809 -0.6661 -0.4557
13097TIP3   OH260781   2.642   4.003   5.665  0.0314 -0.4468 -0.1440
13097TIP3    H160782   2.628   4.061   5.740 -0.2174 -0.2545 -0.3366
13097TIP3    H260783   2.582   4.036   5.598  2.2123  1.2066 -1.4300
13098TIP3   OH260784   2.886   5.052  13.304  0.1628 -0.0785  0.4464
13098TIP3    H160785   2.881   5.012  13.217 -0.3615  0.9249 -0.0003
13098TIP3    H260786   2.875   5.145  13.288 -0.9938  0.0258  1.7126
13099TIP3   OH260787   4.446   2.875  11.594  0.1965 -0.2727 -0.0607
13099TIP3    H160788   4.535   2.850  11.622 -0.4724 -1.3075  1.2465
13099TIP3    H260789   4.413   2.798  11.549 -0.8689 -0.7890  1.5309
13100TIP3   OH260790   5.939   0.108   6.242 -0.5444 -0.1346  0.8208
13100TIP3    H160791   5.935   0.140   6.152 -0.7017 -0.2123  0.8007
13100TIP3    H260792   6.032   0.094   6.258 -0.3829  1.1387  1.1084
13101TIP3   OH260793   5.567   0.710  14.452 -0.0486  0.0826 -0.1048
13101TIP3    H160794   5.485   0.702  14.403  1.4589 -1.5101 -2.5871
13101TIP3    H260795   5.626   0.756  14.392  1.2839 -0.0244  1.0782
13102TIP3   OH260796   0.754   4.216   0.103  0.0264  0.0666 -0.2525
13102TIP3    H160797   0.668   4.255   0.116  0.9554  1.6832  1.4597
13102TIP3    H260798   0.791   4.209   0.191  1.3111 -1.4503 -0.8705
13103TIP3   OH260799   2.397   1.946   1.860 -0.0541  0.0959 -0.8532
13103TIP3    H160800   2.403   1.885   1.787  1.1107  0.3305 -0.9746
13103TIP3    H260801   2.346   1.899   1.926 -0.3573 -0.4626 -1.4690
13104TIP3   OH260802   1.132   2.508  14.123  0.2809  0.0036 -0.3858
13104TIP3    H160803   1.203   2.512  14.060 -0.0956 -0.9147 -0.8908
13104TIP3    H260804   1.063   2.457  14.079  0.0360 -0.7212  0.7743
13105TIP3   OH260805   0.552   5.303   2.728  0.1261 -0.3078  0.0703
13105TIP3    H160806   0.577   5.211   2.721 -0.4083 -0.4964  0.5757
13105TIP3    H260807   0.629   5.351   2.698  0.2436 -0.9268 -0.6376
13106TIP3   OH260808   1.602   0.807  11.932  0.4856  0.2487 -0.4348
13106TIP3    H160809   1.646   0.776  12.011 -1.5498 -0.5822  0.4522
13106TIP3    H260810   1.562   0.890  11.958 -0.7528 -0.3558 -0.3570
13107TIP3   OH260811   2.418   0.345  13.580  0.1554  0.5733 -0.1020
13107TIP3    H160812   2.502   0.300  13.587 -1.1174 -1.6386  3.9424
13107TIP3    H260813   2.436   0.435  13.610  1.0931  0.0851  0.8649
13108TIP3   OH260814   6.198   4.753   0.140 -0.3587 -0.4124 -0.0224
13108TIP3    H160815   6.184   4.716   0.227  1.3345  0.6135  0.7329
13108TIP3    H260816   6.259   4.825   0.154 -1.1422  0.6789 -1.8848
13109TIP3   OH260817   2.218   2.071  13.151 -0.7672 -0.4467 -0.0196
13109TIP3    H160818   2.169   2.011  13.207 -1.8720  0.2614 -0.2089
13109TIP3    H260819   2.191   2.158  13.180  1.2069  0.0029  0.6087
13110TIP3   OH260820   2.787   1.726   0.284  0.0509  0.1644 -0.0232
13110TIP3    H160821   2.711   1.724   0.226  0.1650  0.6260 -0.1920
13110TIP3    H260822   2.757   1.682   0.364  0.0557 -0.9316 -0.6120
13111TIP3   OH260823   5.768   1.421   0.867 -0.1279  0.5848  0.4537
13111TIP3    H160824   5.836   1.488   0.864 -0.1047  0.5501 -2.1041
13111TIP3    H260825   5.706   1.448   0.798 -0.2633 -1.8278 -0.4528
13112TIP3   OH260826   2.756   5.761  16.380 -0.6256 -0.2916 -0.0363
13112TIP3    H160827   2.720   5.818  16.448  1.4196 -0.3504  1.1732
13112TIP3    H260828   2.680   5.733  16.329 -1.7623  4.5421 -1.6211
13113TIP3   OH260829   0.951   5.992  15.217 -0.2635  1.0902 -0.1789
13113TIP3    H160830   0.859   5.967  15.227 -0.4004  0.9559 -1.5458
13113TIP3    H260831   0.965   5.994  15.122  1.8610 -1.5299 -0.0445
13114TIP3   OH260832   6.043   2.880   4.409 -0.0407 -0.4231  0.5664
13114TIP3    H160833   6.029   2.889   4.315  0.5586 -0.2187  0.4968
13114TIP3    H260834   5.971   2.929   4.449 -2.6641 -3.6449  0.2810
13115TIP3   OH260835   4.372   3.811  14.991  0.0943 -0.0578 -0.5522
13115TIP3    H160836   4.277   3.808  14.985  0.1192 -1.3674 -0.6125
13115TIP3    H260837   4.402   3.774  14.908  0.5742 -3.5541  0.9723
13116TIP3   OH260838   2.079   4.255   6.500 -0.4072  0.2735 -0.9676
13116TIP3    H160839   2.101   4.348   6.500  0.4488  0.0933 -1.8308
13116TIP3    H260840   1.994   4.250   6.543 -0.3157  1.4154 -0.6228
13117TIP3   OH260841   1.110   4.631   1.420  0.5191 -0.0706 -0.2814
13117TIP3    H160842   1.144   4.629   1.330  3.8398 -0.6001  0.8495
13117TIP3    H260843   1.097   4.539   1.442  0.6374  0.0051  0.1007
13118TIP3   OH260844   5.427   5.600   0.468 -0.6374  0.4009  0.9136
13118TIP3    H160845   5.410   5.673   0.408  2.0643 -0.1018 -0.6077
13118TIP3    H260846   5.498   5.632   0.524 -1.3361 -0.0938  2.1070
13119TIP3   OH260847   1.713   0.607  10.697 -0.2848 -0.0972  0.2104
13119TIP3    H160848   1.646   0.558  10.745  1.0434 -2.7395 -0.4626
13119TIP3    H260849   1.796   0.573  10.730  0.7132  1.4440 -0.6189
13120TIP3   OH260850   1.681   4.345   1.298 -0.0238  0.2279 -0.7959
13120TIP3    H160851   1.659   4.316   1.209  1.1572 -1.1069 -0.6850
13120TIP3    H260852   1.767   4.308   1.315  0.0111  0.9215  0.7237
13121TIP3   OH260853   5.645   1.737   1.511  0.0021 -0.2929  0.0914
13121TIP3    H160854   5.692   1.658   1.484 -0.7642 -0.7128 -0.0473
13121TIP3    H260855   5.561   1.705   1.546 -0.9092  0.5234 -1.2390
13122TIP3   OH260856   0.439   0.847   1.553 -0.0498 -0.4168 -0.0253
13122TIP3    H160857   0.445   0.786   1.627 -0.2287  1.3226  1.5069
13122TIP3    H260858   0.529   0.857   1.522  0.2132 -0.2597  0.7642
13123TIP3   OH260859   4.132   1.383   4.742  1.0029  0.0069  0.6166
13123TIP3    H160860   4.113   1.305   4.794 -0.9931 -0.2112 -0.3613
13123TIP3    H260861   4.054   1.437   4.748  1.4010  0.8038 -0.6963
13124TIP3   OH260862   3.865   1.697  11.880  0.0866 -0.1740 -0.3058
13124TIP3    H160863   3.852   1.792  11.878  0.1106 -0.1765 -1.7725
13124TIP3    H260864   3.892   1.678  11.970  0.3242  1.2359 -0.0599
13125TIP3   OH260865   1.631   1.866   0.534 -0.0779 -0.5492 -0.7121
13125TIP3    H160866   1.724   1.847   0.550 -0.0792 -0.0417 -0.0584
13125TIP3    H260867   1.627   1.889   0.441  0.8436  1.5312 -0.3139
13126TIP3   OH260868   0.765   1.568   3.479 -0.4090  0.1143  0.4021
13126TIP3    H160869   0.736   1.603   3.563  1.5403  1.9717  0.4143
13126TIP3    H260870   0.761   1.643   3.419  0.0496 -0.6781 -0.6603
13127TIP3   OH260871   1.948   0.257  11.033  0.8253  0.4515 -0.1573
13127TIP3    H160872   1.992   0.340  11.015 -0.1085  1.2946  1.2057
13127TIP3    H260873   1.909   0.232  10.950  1.5877  1.0855 -0.7241
13128TIP3   OH260874   5.768   6.182   1.653  0.1053  0.5812 -0.7748
13128TIP3    H160875   5.677   6.198   1.678  0.5419 -0.1642  1.5342
13128TIP3    H260876   5.761   6.124   1.577 -1.3270  1.2429 -1.1978
13129TIP3   OH260877   4.450   2.113  16.326 -0.2696  0.3438 -0.3765
13129TIP3    H160878   4.434   2.176  16.397 -0.0300  0.6499 -0.5899
13129TIP3    H260879   4.519   2.154  16.273 -0.7800  0.3369 -1.0607
13130TIP3   OH260880   5.249   6.035   2.334  0.2730  0.2368  0.3157
13130TIP3    H160881   5.294   5.956   2.365  0.0440  1.0835  3.0543
13130TIP3    H260882   5.158   6.007   2.322 -0.6692  0.6388  4.6733
13131TIP3   OH260883   1.830   1.238  17.001  0.2841 -0.3324 -0.2523
13131TIP3    H160884   1.754   1.209  16.952 -0.4348 -0.2405  0.7833
13131TIP3    H260885   1.904   1.193  16.959 -0.3314 -0.4925 -1.2080
13132TIP3   OH260886   3.236   1.797  16.034  0.1245 -0.2163 -0.6334
13132TIP3    H160887   3.164   1.858  16.018  0.4866  0.0868 -1.1027
13132TIP3    H260888   3.272   1.779  15.948  1.6540  0.8941 -0.2538
13133TIP3   OH260889   5.418   1.835  11.686  0.3038  0.2653 -0.1133
13133TIP3    H160890   5.351   1.793  11.740  0.1856  2.0604  1.2285
13133TIP3    H260891   5.451   1.906  11.741 -0.2693  2.6070 -2.5931
13134TIP3   OH260892   3.246   2.369   6.507  0.7253  0.4708  0.2781
13134TIP3    H160893   3.181   2.343   6.442  0.8824  1.3130 -0.2312
13134TIP3    H260894   3.244   2.299   6.572 -1.7008  1.1474  1.0470
13135TIP3   OH260895   0.242   4.580  15.477 -0.1610  0.4794  0.3965
13135TIP3    H160896   0.311   4.545  15.533  0.6988  3.0499  1.0879
13135TIP3    H260897   0.186   4.630  15.536 -1.1775  0.5173 -0.5551
13136TIP3   OH260898   4.935   0.452   6.555 -0.1458 -0.2572  0.6620
13136TIP3    H160899   4.956   0.455   6.648  3.3618 -0.0660  0.0204
13136TIP3    H260900   4.980   0.374   6.522 -0.5037  0.1896 -1.0015
13137TIP3   OH260901   6.387   5.535  12.456  0.1341 -0.3998 -0.0668
13137TIP3    H160902   6.382   5.627  12.484  0.4956 -0.8348  1.5621
13137TIP3    H260903   6.453   5.496  12.513  0.4201 -1.5477 -1.1390
13138TIP3   OH260904   4.301   2.075  12.166  0.1086 -0.3306 -0.2797
13138TIP3    H160905   4.319   2.148  12.108 -0.4686  0.5070  0.5664
13138TIP3    H260906   4.210   2.051  12.148 -1.0613  1.7711  2.1391
13139TIP3   OH260907   5.504   3.177   0.705  0.5946 -0.4246 -0.1349
13139TIP3    H160908   5.507   3.126   0.786 -0.4811 -0.1452  0.0913
13139TIP3    H260909   5.466   3.117   0.641  1.2590 -0.5783 -0.3936
13140TIP3   OH260910   4.054   1.639   2.898 -0.6297  0.1010  0.0707
13140TIP3    H160911   4.039   1.547   2.877 -0.2412 -0.2012  1.0331
13140TIP3    H260912   4.068   1.682   2.814 -2.5365 -0.3836 -0.5344
13141TIP3   OH260913   3.732   0.523  13.453  0.3869 -0.1566  1.3052
13141TIP3    H160914   3.787   0.455  13.491  0.2000 -0.2622  1.3911
13141TIP3    H260915   3.729   0.592  13.519  0.4593 -0.1272  1.2783
13142TIP3   OH260916   1.798   5.724   5.866 -0.1254 -0.4288  0.4499
13142TIP3    H160917   1.887   5.720   5.830 -0.3849 -0.2644 -0.2261
13142TIP3    H260918   1.810   5.723   5.961  0.6497  0.4705  0.3799
13143TIP3   OH260919   4.953   0.401  15.553 -0.0717  0.6363  0.1741
13143TIP3    H160920   4.865   0.402  15.516 -0.3558 -1.9100  0.6224
13143TIP3    H260921   5.011   0.415  15.478 -0.7663  4.9599  0.1869
13144TIP3   OH260922   2.201   1.385   0.504 -0.0153  0.6519  0.1763
13144TIP3    H160923   2.146   1.321   0.550  0.6530 -0.5767 -0.6692
13144TIP3    H260924   2.263   1.414   0.571  0.6180 -0.7320  0.2453
13145TIP3   OH260925   0.393   1.409   5.709 -0.1236 -0.3026  0.4180
13145TIP3    H160926   0.344   1.400   5.790 -0.1185 -0.8868  0.3611
13145TIP3    H260927   0.465   1.346   5.716  1.8908  1.9461  1.3855
13146TIP3   OH260928   0.269   4.974   4.589 -0.1827 -0.4066 -0.0606
13146TIP3    H160929   0.307   4.894   4.553 -0.5473  0.0086 -1.4245
13146TIP3    H260930   0.290   4.970   4.683  0.6252 -1.6215 -0.2642
13147TIP3   OH260931   1.137   6.813  13.886 -0.5001 -0.3592  0.4919
13147TIP3    H160932   1.191   6.791  13.962  0.4366 -0.7627 -0.2762
13147TIP3    H260933   1.123   6.730  13.841 -0.7579 -0.0690  0.0216
13148TIP3   OH260934   4.272   0.720   5.367 -0.4121  0.0313  0.3148
13148TIP3    H160935   4.255   0.648   5.427 -1.4879  0.1156  0.1264
13148TIP3    H260936   4.281   0.797   5.423 -0.7180 -0.0087  0.4220
13149TIP3   OH260937   0.344   1.877  14.241 -0.0493 -0.3357 -0.0275
13149TIP3    H160938   0.318   1.860  14.331  0.6700 -0.7024  0.1170
13149TIP3    H260939   0.436   1.851  14.236 -0.0914 -0.3788 -0.8777
13150TIP3   OH260940   4.512   5.310   5.418  0.0027  0.1403  0.3768
13150TIP3    H160941   4.554   5.371   5.478  0.8509  1.0525 -1.0672
13150TIP3    H260942   4.437   5.358   5.383 -0.0070 -0.0638  0.1094
13151TIP3   OH260943   2.839   6.717   7.032  0.3386 -0.3303  0.4955
13151TIP3    H160944   2.878   6.803   7.047 -0.7822  0.2702  0.1351
13151TIP3    H260945   2.844   6.672   7.116  1.2812 -0.0711  0.5892
13152TIP3   OH260946   1.286   5.889   0.910  0.1007 -0.4245 -0.5304
13152TIP3    H160947   1.240   5.824   0.963  1.3542 -0.5846  0.4017
13152TIP3    H260948   1.258   5.973   0.947 -0.3745 -0.4701 -0.7729
13153TIP3   OH260949   5.556   2.843   5.957  0.3506 -0.2155  0.3228
13153TIP3    H160950   5.599   2.820   6.039  1.8907  1.3511  0.0034
13153TIP3    H260951   5.568   2.937   5.948  1.5924 -0.5246 -2.4017
13154TIP3   OH260952   1.751   4.270   1.933  0.4901  0.0409 -0.0636
13154TIP3    H160953   1.740   4.259   1.839  1.3351  1.1369 -0.3140
13154TIP3    H260954   1.845   4.257   1.948  0.5508  0.9492  0.4381
13155TIP3   OH260955   0.654   4.046   1.201 -0.2923  0.8252  0.0498
13155TIP3    H160956   0.721   4.058   1.269 -1.1180  0.8547  0.8788
13155TIP3    H260957   0.609   3.965   1.226  0.4310 -0.0641 -1.3835
13156TIP3   OH260958   0.801   4.090  12.977 -0.1624  0.2206 -0.3489
13156TIP3    H160959   0.717   4.135  12.984 -0.0013  0.6148 -0.9609
13156TIP3    H260960   0.846   4.132  12.905  0.2345 -0.5289 -0.5519
13157TIP3   OH260961   2.609   2.487  11.992 -0.2966 -0.0870  0.0942
13157TIP3    H160962   2.562   2.441  12.061  0.8044 -0.5817  0.5373
13157TIP3    H260963   2.702   2.478  12.016  0.2982 -2.0022 -2.4476
13158TIP3   OH260964   0.282   0.732   2.892 -0.4724  0.3589 -0.0043
13158TIP3    H160965   0.232   0.777   2.960 -0.4307  1.5162 -0.7096
13158TIP3    H260966   0.304   0.647   2.931 -1.0045  0.7332  1.1732
13159TIP3   OH260967   5.929   5.615   0.472 -0.3121 -0.3297  0.1343
13159TIP3    H160968   5.944   5.642   0.381  0.0216  1.5803  0.7171
13159TIP3    H260969   5.848   5.659   0.497 -0.2605 -0.6237  0.8475
13160TIP3   OH260970   2.248   5.410  15.387 -0.0452  1.0160 -0.5674
13160TIP3    H160971   2.182   5.393  15.319  0.3373 -1.1445 -0.4522
13160TIP3    H260972   2.311   5.339  15.378  0.1704  0.8129  1.8941
13161TIP3   OH260973   6.231   2.028  13.209  0.0926 -0.3275 -0.7997
13161TIP3    H160974   6.241   1.992  13.298  1.3097 -0.4650 -0.9732
13161TIP3    H260975   6.264   1.959  13.152  0.5386  0.2619 -1.2678
13162TIP3   OH260976   3.747   1.276   4.650 -0.2416 -0.2713  0.4655
13162TIP3    H160977   3.718   1.184   4.652  0.1762 -0.3952  0.9086
13162TIP3    H260978   3.831   1.273   4.606 -0.5098 -0.0168 -0.0682
13163TIP3   OH260979   6.570   1.754   6.255  0.2079 -1.0592 -0.2097
13163TIP3    H160980   6.489   1.771   6.208 -0.1701  0.9685  1.0418
13163TIP3    H260981   6.560   1.665   6.289 -1.4674 -0.8859 -0.1648
13164TIP3   OH260982   0.172   4.307   6.012 -0.9434  0.2039 -0.3232
13164TIP3    H160983   0.264   4.286   5.999 -0.8878 -2.0155  2.5153
13164TIP3    H260984   0.166   4.337   6.103 -2.8490  1.6025 -0.8445
13165TIP3   OH260985   3.148   0.743  16.542 -0.2288  0.3582  0.3266
13165TIP3    H160986   3.111   0.726  16.456 -1.3633 -1.1218  1.0775
13165TIP3    H260987   3.170   0.657  16.577 -1.3970  0.7627  2.2041
13166TIP3   OH260988   5.254   2.337  13.144 -0.6816 -0.4539 -0.2566
13166TIP3    H160989   5.249   2.430  13.165  0.2023 -0.6589  0.9834
13166TIP3    H260990   5.169   2.301  13.170 -0.3249 -0.3310  1.1542
13167TIP3   OH260991   4.896   3.025   5.245 -0.4635  0.2637  0.2053
13167TIP3    H160992   4.937   2.952   5.199 -1.5665 -0.9267  1.0428
13167TIP3    H260993   4.879   3.090   5.177 -1.5939 -1.2298 -0.9894
13168TIP3   OH260994   3.475   2.137  16.515 -0.5454  0.3541  0.3472
13168TIP3    H160995   3.452   2.122  16.423 -1.5868  3.0153  0.0963
13168TIP3    H260996   3.539   2.208  16.512 -0.1348  0.0604  1.6658
13169TIP3   OH260997   2.257   5.345   5.088 -0.0808  0.0433  0.0330
13169TIP3    H160998   2.218   5.429   5.110  3.1975  1.1826  2.2428
13169TIP3    H260999   2.293   5.312   5.170 -0.2843 -3.0495 -0.9769
13170TIP3   OH261000   3.987   2.272  16.792  0.3944 -0.1225 -0.4196
13170TIP3    H161001   3.965   2.272  16.699 -2.0158 -1.0692  0.0837
13170TIP3    H261002   4.048   2.199  16.803 -0.4439 -0.9334 -1.0442
13171TIP3   OH261003   1.036   0.302  11.529  0.0271  0.5858  0.0112
13171TIP3    H161004   1.025   0.369  11.596  1.1443  0.4391  0.3691
13171TIP3    H261005   1.093   0.236  11.570 -0.2552 -0.0944 -0.6704
13172TIP3   OH261006   1.714   6.735   2.592  0.2294 -0.3621 -0.1556
13172TIP3    H161007   1.692   6.756   2.502 -1.0041  1.4944  0.5229
13172TIP3    H261008   1.778   6.801   2.618  1.3959 -1.5259  0.0341
13173TIP3   OH261009   2.906   1.466   4.701  0.0808  0.5400 -0.3915
13173TIP3    H161010   2.979   1.454   4.639  0.1375 -1.4990 -0.0050
13173TIP3    H261011   2.830   1.481   4.646  0.4604  0.7062 -0.8775
13174TIP3   OH261012   0.298   1.425  11.138  0.1924  0.1933  0.3209
13174TIP3    H161013   0.300   1.428  11.042 -1.1004  0.5138  0.2896
13174TIP3    H261014   0.226   1.366  11.159 -0.5196  1.2997  1.0821
13175TIP3   OH261015   6.252   3.008   5.829  0.3219  0.1367 -0.3149
13175TIP3    H161016   6.234   3.006   5.735  1.4309 -2.0227 -0.5597
13175TIP3    H261017   6.348   3.014   5.835  0.3515 -0.8022  0.6165
13176TIP3   OH261018   5.997   0.680   3.069  0.4764 -0.2069  0.4066
13176TIP3    H161019   5.954   0.757   3.106  1.5385  1.1931 -1.1107
13176TIP3    H261020   5.926   0.626   3.036 -0.2503  0.6258  0.5835
13177TIP3   OH261021   1.463   0.467  12.071 -0.4165  0.6131 -0.0628
13177TIP3    H161022   1.553   0.500  12.070 -0.1579 -0.0834 -0.1265
13177TIP3    H261023   1.409   0.545  12.086  0.1535  1.1204 -0.6150
13178TIP3   OH261024   4.550   1.184   5.901 -0.0640  0.0402  0.0938
13178TIP3    H161025   4.593   1.145   5.825 -1.1578 -1.1532  0.0461
13178TIP3    H261026   4.616   1.178   5.971  0.4575 -0.1585 -0.4092
13179TIP3   OH261027   2.921   0.959   3.259 -0.5648 -0.2160 -0.0825
13179TIP3    H161028   2.838   0.917   3.236 -0.1315 -0.5806 -1.0807
13179TIP3    H261029   2.974   0.889   3.297 -0.0477 -0.4747 -1.2189
13180TIP3   OH261030   2.672   2.582  11.049  0.4636 -1.0119  0.3986
13180TIP3    H161031   2.714   2.524  10.986  0.6603 -2.6182  1.9062
13180TIP3    H261032   2.579   2.560  11.045  0.0954  0.6077 -0.9968
13181TIP3   OH261033   2.783   6.706   1.310  0.3085 -0.5152 -0.4641
13181TIP3    H161034   2.824   6.723   1.225  0.4247  0.5916 -0.2000
13181TIP3    H261035   2.850   6.659   1.360  0.2461 -1.1515 -0.9701
13182TIP3   OH261036   2.173   1.167   2.514 -0.6717  0.0759  0.0358
13182TIP3    H161037   2.097   1.158   2.456 -1.9454  2.6515  1.1131
13182TIP3    H261038   2.242   1.204   2.458 -0.8088 -0.5113 -0.5334
13183TIP3   OH261039   3.968   1.628  16.334 -0.0905  0.4846 -0.0190
13183TIP3    H161040   3.982   1.665  16.246  0.7896  1.3327  0.4521
13183TIP3    H261041   3.939   1.538  16.318  2.5838 -0.2726 -1.2021
13184TIP3   OH261042   3.891   3.899   2.904 -0.1498 -0.7055 -0.2982
13184TIP3    H161043   3.885   3.986   2.943  1.5454  0.2398 -2.0070
13184TIP3    H261044   3.869   3.912   2.811 -0.5243 -2.2385 -0.4616
13185TIP3   OH261045   0.585   3.076   5.729  0.2446  0.3754 -0.1525
13185TIP3    H161046   0.570   3.110   5.817 -0.9241 -0.5395  0.0380
13185TIP3    H261047   0.497   3.069   5.690  0.5785 -0.7991 -0.7704
13186TIP3   OH261048   5.073   6.205  15.340 -0.1796 -0.9335 -0.8837
13186TIP3    H161049   5.044   6.178  15.427  0.8043  0.0459 -0.2169
13186TIP3    H261050   4.998   6.251  15.303 -1.1193 -2.6369 -1.1753
13187TIP3   OH261051   4.415   3.941   4.705 -0.1944  0.3340  0.3675
13187TIP3    H161052   4.448   3.950   4.794 -0.5896 -0.4253  0.6063
13187TIP3    H261053   4.478   3.987   4.650  0.4017  0.2536  0.9765
13188TIP3   OH261054   4.075   3.486   3.315 -0.4686  0.4249  0.3426
13188TIP3    H161055   4.122   3.461   3.394  1.3902 -0.3716 -0.9343
13188TIP3    H261056   4.123   3.562   3.282  0.7992 -1.0815 -1.5941
13189TIP3   OH261057   6.139   2.550  16.008 -0.7837 -1.4005  0.1708
13189TIP3    H161058   6.169   2.536  15.919 -1.5080  0.2378 -0.3657
13189TIP3    H261059   6.217   2.540  16.062  0.3560  0.6657 -0.9687
13190TIP3   OH261060   6.498   4.744  12.121 -0.2422  0.6924  0.0732
13190TIP3    H161061   6.502   4.837  12.144  1.2362  0.5901  0.3305
13190TIP3    H261062   6.514   4.742  12.027  0.4475  0.6663  0.1839
13191TIP3   OH261063   4.098   6.463   6.878 -0.0624 -0.0158  0.4117
13191TIP3    H161064   4.051   6.395   6.829  2.1983 -0.3944 -1.3974
13191TIP3    H261065   4.129   6.419   6.957 -1.6056 -0.0852  1.0090
13192TIP3   OH261066   5.623   6.120  11.481 -0.3702 -0.1066  0.2236
13192TIP3    H161067   5.579   6.190  11.432 -0.4826  0.1202  0.6334
13192TIP3    H261068   5.598   6.040  11.437 -0.8585  0.0573  0.1929
13193TIP3   OH261069   3.536   4.866   6.005 -0.0678 -0.0120 -0.5159
13193TIP3    H161070   3.486   4.891   6.084 -0.2451  0.2017 -0.6932
13193TIP3    H261071   3.524   4.940   5.946  2.2262  1.0517  0.2366
13194TIP3   OH261072   2.494   1.983  11.565 -0.1259 -0.5423 -0.3373
13194TIP3    H161073   2.403   1.953  11.574 -0.1108 -0.4789  0.0487
13194TIP3    H261074   2.546   1.912  11.600 -0.0532 -0.3565 -0.0670
13195TIP3   OH261075   5.020   6.244  13.340 -0.1230  0.6404  1.0205
13195TIP3    H161076   4.953   6.291  13.291  0.2918  1.9892  1.7218
13195TIP3    H261077   4.971   6.195  13.406 -0.5482  0.0977  0.3227
13196TIP3   OH261078   5.695   6.728  15.721  0.1667  0.2997  0.2106
13196TIP3    H161079   5.709   6.633  15.725 -2.0747 -0.0455  1.7543
13196TIP3    H261080   5.616   6.737  15.667  0.1379  1.2513  0.4012
13197TIP3   OH261081   2.315   5.823  14.123  0.0709 -0.3866  0.1974
13197TIP3    H161082   2.336   5.863  14.208 -1.1470 -1.0244  0.8181
13197TIP3    H261083   2.224   5.795  14.131  0.0402 -0.7773 -1.2080
13198TIP3   OH261084   4.602   5.789   1.590  0.2788 -0.2138  0.4116
13198TIP3    H161085   4.560   5.873   1.609  0.4706  0.1294 -0.5576
13198TIP3    H261086   4.565   5.727   1.652 -0.7106  0.3533  0.3939
13199TIP3   OH261087   5.094   1.377  13.614  0.0558 -0.3739 -0.1293
13199TIP3    H161088   5.017   1.406  13.566 -0.2536  0.3803  0.7935
13199TIP3    H261089   5.165   1.381  13.550 -0.6626 -1.0832 -0.9859
13200TIP3   OH261090   5.907   3.594  13.585  0.0387 -0.3759  0.2851
13200TIP3    H161091   5.817   3.567  13.603  0.0015  0.1599  0.9683
13200TIP3    H261092   5.901   3.687  13.565  0.5630 -0.0460  1.5403
13201TIP3   OH261093   5.512   6.819  16.378 -0.1386 -0.3509  0.1650
13201TIP3    H161094   5.521   6.905  16.420 -0.4121  0.1857 -0.8424
13201TIP3    H261095   5.600   6.783  16.379  0.0399  0.0757  0.3137
13202TIP3   OH261096   4.432   2.207   4.862  0.7964 -0.3757  0.1600
13202TIP3    H161097   4.383   2.126   4.845  0.0513  0.6875 -3.9120
13202TIP3    H261098   4.375   2.277   4.831  1.5300  1.8228  3.2855
13203TIP3   OH261099   4.516   0.217  11.676  0.0501  0.1096 -0.3869
13203TIP3    H161100   4.535   0.174  11.759 -2.0963 -0.7729 -0.2960
13203TIP3    H261101   4.531   0.310  11.693  1.3455 -0.2329  0.4456
13204TIP3   OH261102   5.486   3.051   1.558  0.1572  0.0678 -0.0633
13204TIP3    H161103   5.497   3.061   1.463 -2.0301 -0.4898 -0.4226
13204TIP3    H261104   5.522   3.132   1.594  1.6576 -0.0035 -1.2899
13205TIP3   OH261105   6.680   2.289   0.892  0.1074 -0.2271  0.4637
13205TIP3    H161106   6.688   2.298   0.797 -0.5802  0.1735  0.4327
13205TIP3    H261107   6.742   2.220   0.915 -0.8202 -1.4320 -0.4944
13206TIP3   OH261108   5.036   4.815  11.643  0.0155  0.5006  0.3288
13206TIP3    H161109   5.075   4.902  11.658 -0.3007  0.5742  0.7289
13206TIP3    H261110   5.110   4.755  11.647  0.4309  0.8735 -1.1812
13207TIP3   OH261111   0.961   0.973  12.231  0.9140 -0.5036  0.0191
13207TIP3    H161112   0.979   1.054  12.277 -0.4900 -0.5632  0.7449
13207TIP3    H261113   0.903   0.999  12.159  1.3731 -0.7132 -0.4366
13208TIP3   OH261114   6.007   0.135   2.853 -0.3285 -0.1132 -0.5339
13208TIP3    H161115   6.097   0.127   2.885 -0.8857  1.1999  1.5812
13208TIP3    H261116   5.962   0.187   2.920 -2.7391 -0.9289 -1.3953
13209TIP3   OH261117   3.425   2.460  15.390  0.8376  1.1730  0.1988
13209TIP3    H161118   3.444   2.416  15.473  1.1830  0.0708 -0.4487
13209TIP3    H261119   3.331   2.447  15.377  0.4222  2.7926  1.2074
13210TIP3   OH261120   0.799   6.129   4.538 -0.0237  0.6935  0.1774
13210TIP3    H161121   0.711   6.090   4.538 -0.0236  0.6788 -0.5361
13210TIP3    H261122   0.792   6.203   4.598 -0.1749 -0.0632  1.1101
13211TIP3   OH261123   3.308   5.402  13.765 -0.5958 -0.1472 -0.2121
13211TIP3    H161124   3.322   5.333  13.830  1.1705  0.2992 -0.0494
13211TIP3    H261125   3.379   5.389  13.701  0.1217  1.7993  0.1155
13212TIP3   OH261126   3.740   5.974  15.538 -0.2056 -0.3591  0.4499
13212TIP3    H161127   3.687   6.054  15.537 -1.0740 -0.9308  0.7981
13212TIP3    H261128   3.705   5.922  15.610  2.6233  0.4362  2.5792
13213TIP3   OH261129   5.883   5.633  11.941  0.0813 -0.2860  0.5074
13213TIP3    H161130   5.828   5.641  11.864  0.4312  0.1890  0.3037
13213TIP3    H261131   5.845   5.695  12.004  0.8458  0.6542  0.0800
13214TIP3   OH261132   0.895   2.658   4.836 -0.4799  0.3918  0.4883
13214TIP3    H161133   0.982   2.687   4.809 -0.4474  0.8929  1.0948
13214TIP3    H261134   0.867   2.724   4.899 -1.2045  0.1065  0.4759
13215TIP3   OH261135   2.263   1.582   5.727  0.2788  0.6339  0.0262
13215TIP3    H161136   2.270   1.676   5.707 -0.4414  0.9962  1.3548
13215TIP3    H261137   2.170   1.563   5.723  0.3467  0.1598  0.5066
13216TIP3   OH261138   0.019   1.562  14.714 -0.1851  0.0977 -0.0844
13216TIP3    H161139  -0.005   1.612  14.792 -1.9699 -0.8621  0.0405
13216TIP3    H261140   0.022   1.626  14.643 -0.3437  0.6947  0.4426
13217TIP3   OH261141   5.742   5.522  11.211  0.2475  0.0454  0.6755
13217TIP3    H161142   5.751   5.432  11.181 -2.7526 -0.2243  0.3482
13217TIP3    H261143   5.820   5.566  11.178  0.5655 -1.8594 -1.3058
13218TIP3   OH261144   4.209   5.872   3.395  0.1392  0.4707  0.0681
13218TIP3    H161145   4.178   5.925   3.468 -1.0103  0.5012 -0.4133
13218TIP3    H261146   4.129   5.842   3.352  0.7855 -0.4271 -0.5471
13219TIP3   OH261147   2.540   0.091  12.035 -0.2309  0.2258  0.0107
13219TIP3    H161148   2.572   0.009  12.073 -2.5431 -0.5855  0.3648
13219TIP3    H261149   2.532   0.073  11.941 -1.1507 -0.1054  0.1505
13220TIP3   OH261150   2.848   6.747   1.658 -0.3808 -0.0962 -0.9154
13220TIP3    H161151   2.891   6.674   1.611 -0.5804 -0.5411 -0.4140
13220TIP3    H261152   2.848   6.819   1.594  3.2627  0.7328 -0.2022
13221TIP3   OH261153   0.908   1.522   1.583 -0.2095 -0.0282 -0.6998
13221TIP3    H161154   0.929   1.615   1.591  2.2194 -0.5776  0.1552
13221TIP3    H261155   0.867   1.514   1.497 -0.6930  1.8550 -0.6809
13222TIP3   OH261156   1.678   2.610   5.728 -0.2461  0.2830  0.0339
13222TIP3    H161157   1.609   2.664   5.766  0.5212  1.0104  0.4268
13222TIP3    H261158   1.759   2.651   5.758  0.3636 -0.0240 -1.1593
13223TIP3   OH261159   6.062   2.134  12.776 -0.0923  0.4166  0.3535
13223TIP3    H161160   6.008   2.195  12.726 -1.0524 -0.2951  0.4829
13223TIP3    H261161   6.095   2.185  12.850  0.1411  1.0931 -0.2078
13224TIP3   OH261162   0.686   2.839   2.827 -0.0630  0.0706 -0.1169
13224TIP3    H161163   0.707   2.772   2.762  2.4770  0.7124 -0.0911
13224TIP3    H261164   0.633   2.793   2.892 -0.0860 -1.3861 -1.1080
13225TIP3   OH261165   4.663   4.644   3.624 -0.6702  0.0721  0.0612
13225TIP3    H161166   4.702   4.557   3.624 -1.6326 -0.3598  0.0656
13225TIP3    H261167   4.737   4.703   3.642  0.3085 -0.5897 -1.5974
13226TIP3   OH261168   2.776   5.175   1.346 -0.1632 -0.4389  0.3193
13226TIP3    H161169   2.690   5.181   1.388 -0.0865  0.3617  0.3599
13226TIP3    H261170   2.759   5.128   1.264 -0.5332 -0.8291  0.6149
13227TIP3   OH261171   0.126   0.522  13.621 -0.1913  0.3291  0.0546
13227TIP3    H161172   0.077   0.490  13.545 -1.3922 -1.1739  1.4073
13227TIP3    H261173   0.087   0.607  13.641  0.0241  0.6594 -0.8845
13228TIP3   OH261174   0.398   1.973  15.962 -0.2897 -0.5856 -0.0342
13228TIP3    H161175   0.460   1.927  16.019  0.2911 -0.5704 -0.6337
13228TIP3    H261176   0.385   2.058  16.004  2.1605  0.4750 -1.1836
13229TIP3   OH261177   4.109   4.392  12.549 -0.2998 -0.1641 -0.4535
13229TIP3    H161178   4.112   4.480  12.511  1.7218 -0.1205 -0.3061
13229TIP3    H261179   4.046   4.344  12.495  0.4651  0.6620 -2.1484
13230TIP3   OH261180   2.286   6.348  12.063 -0.3978  0.4987 -0.1864
13230TIP3    H161181   2.376   6.316  12.060 -0.7213 -0.4274 -3.0013
13230TIP3    H261182   2.233   6.271  12.080 -0.7293  0.8838  0.5580
13231TIP3   OH261183   5.594   2.422   2.709  0.2158  0.0343  0.1433
13231TIP3    H161184   5.640   2.338   2.716 -0.8008 -0.4552  1.3259
13231TIP3    H261185   5.654   2.486   2.748 -0.0642 -0.5988  1.6777
13232TIP3   OH261186   1.325   3.628  10.840  0.2796  0.2876 -0.0310
13232TIP3    H161187   1.381   3.706  10.847  2.2677 -0.9067 -1.4356
13232TIP3    H261188   1.317   3.597  10.930 -1.1544  2.4523  0.6588
13233TIP3   OH261189   3.737   6.344   1.446  0.6242 -0.1655  0.5362
13233TIP3    H161190   3.736   6.317   1.537 -0.2654  0.4748  0.7322
13233TIP3    H261191   3.823   6.384   1.433  1.1994 -1.2888  0.7630
13234TIP3   OH261192   4.766   2.811  16.073 -0.0096  0.9090  0.4900
13234TIP3    H161193   4.826   2.859  16.017  0.1210 -0.4455 -0.5819
13234TIP3    H261194   4.811   2.803  16.157  1.7985 -0.9087 -0.5621
13235TIP3   OH261195   5.768   6.491   1.472 -0.0976 -0.1672 -0.0716
13235TIP3    H161196   5.721   6.451   1.398 -2.9483  0.4848  1.2320
13235TIP3    H261197   5.848   6.525   1.433 -0.1048 -2.3437 -2.2678
13236TIP3   OH261198   1.700   0.126   1.304 -0.6889 -0.7536 -0.0471
13236TIP3    H161199   1.655   0.180   1.239  1.1367 -0.9929 -1.6222
13236TIP3    H261200   1.731   0.050   1.255  0.7036 -0.9704  1.1012
13237TIP3   OH261201   4.534   1.149   1.298  0.9495  0.0309  0.9022
13237TIP3    H161202   4.578   1.090   1.237 -1.1852 -0.5968 -0.1346
13237TIP3    H261203   4.547   1.236   1.260  0.0154 -0.3103 -0.2710
13238TIP3   OH261204   4.879   2.260  17.288  0.5146 -0.7687 -0.0346
13238TIP3    H161205   4.873   2.294  17.377  1.4149  1.0826 -0.6294
13238TIP3    H261206   4.970   2.236  17.277  0.3410 -1.2865 -0.3523
13239TIP3   OH261207   3.218   4.820   5.524  0.0212  0.3884  0.1291
13239TIP3    H161208   3.212   4.916   5.517 -1.6055  0.6375  3.2488
13239TIP3    H261209   3.132   4.789   5.494 -0.6264  0.2200  2.0385
13240TIP3   OH261210   2.418   2.990   3.385  0.1460 -0.5997  0.2969
13240TIP3    H161211   2.368   2.915   3.352  0.4770 -1.3077  1.3248
13240TIP3    H261212   2.365   3.066   3.363 -0.1444 -1.1252 -0.8793
13241TIP3   OH261213   1.073   6.682  13.294 -0.6686  0.2329 -0.5746
13241TIP3    H161214   1.165   6.674  13.319 -0.7861  0.2001 -0.1508
13241TIP3    H261215   1.030   6.608  13.336 -0.9727  0.5223 -0.3787
13242TIP3   OH261216   3.933   4.963  14.535 -0.2819  0.2622 -0.2835
13242TIP3    H161217   3.935   4.868  14.543  1.0580  0.2217 -0.8192
13242TIP3    H261218   4.014   4.992  14.578 -0.7215  1.1680 -0.0402
13243TIP3   OH261219   3.979   3.107   0.390 -0.2408  0.1123  0.7528
13243TIP3    H161220   4.053   3.062   0.429  1.3316  2.2242  0.3514
13243TIP3    H261221   3.926   3.136   0.465  0.0463 -0.2349  1.0931
13244TIP3   OH261222   0.925   2.793  16.982 -0.2565 -0.2428  0.1041
13244TIP3    H161223   1.000   2.784  17.041 -0.0524  1.2325  0.1090
13244TIP3    H261224   0.855   2.745  17.026  0.3572 -0.5982  0.7174
13245TIP3   OH261225   5.627   5.034   3.640 -0.0849 -0.0147 -0.5312
13245TIP3    H161226   5.593   5.117   3.673 -1.0890 -0.7552  0.4242
13245TIP3    H261227   5.712   5.055   3.603 -0.1855  1.3781 -0.0316
13246TIP3   OH261228   5.585   1.698   2.278  0.7413 -0.2967  0.4338
13246TIP3    H161229   5.490   1.689   2.279  0.6016  0.7977  2.1821
13246TIP3    H261230   5.610   1.678   2.188 -1.0091 -1.6673  0.1870
13247TIP3   OH261231   3.038   3.593  15.839  0.1857 -0.1299 -0.0678
13247TIP3    H161232   2.952   3.553  15.853  0.1247  0.0410  0.0422
13247TIP3    H261233   3.099   3.518  15.837  0.0207 -0.2594 -0.2671
13248TIP3   OH261234   5.978   0.105  15.139  0.3142  0.1542 -0.0431
13248TIP3    H161235   5.989   0.123  15.232  0.1691 -3.3198  0.7633
13248TIP3    H261236   5.885   0.120  15.123  0.4946  1.5759  0.1226
13249TIP3   OH261237   1.353   1.717  16.791  0.3360 -0.3205 -0.1253
13249TIP3    H161238   1.442   1.693  16.767  0.6938 -0.5694  1.3290
13249TIP3    H261239   1.330   1.790  16.734  1.8909  0.4811  0.2263
13250TIP3   OH261240   6.577   6.573   1.245 -0.0139 -0.2576  0.2018
13250TIP3    H161241   6.507   6.559   1.181  1.3274 -0.3771 -1.3318
13250TIP3    H261242   6.547   6.644   1.300 -1.1512 -0.0191 -0.7046
13251TIP3   OH261243   3.544   4.222   1.136 -0.0374  0.3646  0.6251
13251TIP3    H161244   3.586   4.136   1.143  1.9254  1.1543 -0.7163
13251TIP3    H261245   3.451   4.202   1.121  0.2810 -1.5017  0.9263
13252TIP3   OH261246   5.181   4.549   2.172 -0.0414  0.1114 -0.5109
13252TIP3    H161247   5.157   4.610   2.103  1.3961  1.5632  0.2145
13252TIP3    H261248   5.272   4.527   2.154 -0.4374 -1.6279 -0.5817
13253TIP3   OH261249   1.342   5.171  11.631 -0.3895  0.1448  0.0874
13253TIP3    H161250   1.354   5.263  11.653  1.2217 -0.2510  1.0540
13253TIP3    H261251   1.429   5.132  11.643 -0.7442 -1.2726 -1.4958
13254TIP3   OH261252   4.511   4.283   1.290 -0.4264  0.0966  0.2775
13254TIP3    H161253   4.481   4.200   1.326  1.6394 -0.4246  0.8908
13254TIP3    H261254   4.468   4.349   1.344 -0.8709 -0.6000  0.7928
13255TIP3   OH261255   1.652   6.129   1.488  0.6913 -0.5581  0.2024
13255TIP3    H161256   1.642   6.140   1.583 -1.0374  0.5024 -0.0557
13255TIP3    H261257   1.630   6.214   1.452  0.4884 -1.1794 -1.1916
13256TIP3   OH261258   5.128   0.411   0.610  0.2439  0.0198  0.4815
13256TIP3    H161259   5.109   0.324   0.577 -3.1690  0.1324  1.7447
13256TIP3    H261260   5.123   0.468   0.534 -1.8251 -0.4317  0.2107
13257TIP3   OH261261   4.905   6.779  11.851  0.1810 -0.0874  0.5053
13257TIP3    H161262   4.819   6.736  11.848  0.7413 -1.2158  0.0453
13257TIP3    H261263   4.888   6.864  11.891 -1.5061  0.5839 -1.4805
13258TIP3   OH261264   5.249   3.517  15.133 -0.8320 -0.3283  0.2201
13258TIP3    H161265   5.305   3.440  15.119  0.2219  0.8243 -2.5442
13258TIP3    H261266   5.175   3.504  15.075  0.1198  1.3701 -1.4786
13259TIP3   OH261267   6.545   2.252  12.498 -0.9499 -0.1127  0.4553
13259TIP3    H161268   6.572   2.298  12.578 -0.2974 -1.5639  1.1045
13259TIP3    H261269   6.589   2.300  12.427  2.1201 -1.3770  1.3285
13260TIP3   OH261270   4.883   6.103   1.802  0.1913  0.7502 -0.3930
13260TIP3    H161271   4.827   6.177   1.825  1.3908  0.9798  1.9723
13260TIP3    H261272   4.911   6.066   1.885  2.5904 -0.1134 -1.4855
13261TIP3   OH261273   5.260   4.746  17.106 -0.1644 -0.7654  0.7066
13261TIP3    H161274   5.254   4.657  17.070 -0.1461  0.1067 -1.6682
13261TIP3    H261275   5.339   4.746  17.159 -0.2241 -2.1911  0.8238
13262TIP3   OH261276   4.593   6.635   3.961 -0.1088  0.2009 -0.1912
13262TIP3    H161277   4.601   6.620   3.867 -0.1823  0.8350 -0.3009
13262TIP3    H261278   4.661   6.699   3.981 -0.6209  0.6783  0.0434
13263TIP3   OH261279   1.381   6.371  16.999  0.3376  0.1820  0.4109
13263TIP3    H161280   1.462   6.320  17.001  1.6197  2.0646  0.0127
13263TIP3    H261281   1.323   6.322  16.941  2.3421  0.2373 -1.8530
13264TIP3   OH261282   1.742   5.113   1.769 -0.1882 -0.2525 -0.0837
13264TIP3    H161283   1.761   5.118   1.863  4.2390  1.2748 -0.8353
13264TIP3    H261284   1.793   5.038   1.738  0.8715  1.0448 -1.6531
13265TIP3   OH261285   3.188   5.607  14.291 -0.9491 -0.4283  0.3946
13265TIP3    H161286   3.197   5.673  14.360 -0.3194 -0.2666  0.1684
13265TIP3    H261287   3.196   5.657  14.209 -3.4780 -0.3404  0.1317
13266TIP3   OH261288   4.944   4.228   2.409  0.2083 -0.2425  0.0847
13266TIP3    H161289   4.944   4.312   2.364  1.1165 -0.8443 -1.1078
13266TIP3    H261290   4.854   4.195   2.399 -0.0945  0.4766  0.3848
13267TIP3   OH261291   0.538   4.791   2.533  0.1446  0.8571 -0.2799
13267TIP3    H161292   0.506   4.724   2.474  0.1088  0.7884 -0.1827
13267TIP3    H261293   0.600   4.842   2.481  0.5414  0.4464 -0.2085
13268TIP3   OH261294   0.794   1.683   5.362 -0.3443 -0.4122 -1.0308
13268TIP3    H161295   0.862   1.619   5.378  0.8201  1.1388  0.6845
13268TIP3    H261296   0.840   1.767   5.362 -2.1471  0.6260 -0.5106
13269TIP3   OH261297   4.789   1.259   1.464 -0.5734 -0.4528 -0.1360
13269TIP3    H161298   4.790   1.234   1.556  0.2832 -0.2655 -0.0824
13269TIP3    H261299   4.697   1.253   1.438 -0.7482 -1.0240  0.5865
13270TIP3   OH261300   0.783   2.285   3.148 -0.2744  0.4183 -0.5874
13270TIP3    H161301   0.864   2.278   3.198  0.1714  0.7513 -1.2415
13270TIP3    H261302   0.793   2.222   3.076 -1.4797 -1.0422  0.4685
13271TIP3   OH261303   2.518   4.666  14.507  0.2516  0.2769  0.0962
13271TIP3    H161304   2.501   4.595  14.568 -0.2383 -2.0855 -2.5885
13271TIP3    H261305   2.447   4.728  14.521 -0.4277 -0.7081  1.1687
13272TIP3   OH261306   4.748   6.814  11.285 -0.8275 -0.1712 -0.4719
13272TIP3    H161307   4.712   6.898  11.313 -0.7045 -0.6740  1.3125
13272TIP3    H261308   4.843   6.828  11.284 -0.8689  0.4357 -2.7892
13273TIP3   OH261309   6.168   6.445   1.648 -0.1035 -0.6047 -0.5375
13273TIP3    H161310   6.094   6.408   1.696 -0.2988  0.4367  0.0001
13273TIP3    H261311   6.135   6.458   1.559 -0.7479  0.3257 -0.1771
13274TIP3   OH261312   5.382   1.734   4.806  0.4025  0.3355  0.1099
13274TIP3    H161313   5.290   1.709   4.812 -0.2169  1.9007 -1.8465
13274TIP3    H261314   5.410   1.701   4.720  1.7724 -0.3325  0.7786
13275TIP3   OH261315   6.424   2.203  14.589  0.3179  0.2467  0.1138
13275TIP3    H161316   6.419   2.259  14.512 -0.6855 -2.2732 -1.7821
13275TIP3    H261317   6.512   2.166  14.587  0.6704  0.9910  0.8614
13276TIP3   OH261318   6.608   5.958   5.434  0.7727 -0.0415 -0.3320
13276TIP3    H161319   6.616   5.913   5.350 -0.9082  0.8261 -0.9991
13276TIP3    H261320   6.631   6.049   5.415  0.6433  0.1101  0.2082
13277TIP3   OH261321   3.243   2.827   3.589  0.4942  0.5731 -0.4841
13277TIP3    H161322   3.319   2.791   3.543 -0.5307 -2.3033 -0.0896
13277TIP3    H261323   3.186   2.860   3.519  1.1827  0.9161 -0.8984
13278TIP3   OH261324   3.692   4.406   4.942 -0.0086  0.0241  0.9142
13278TIP3    H161325   3.777   4.431   4.904 -0.7671  0.7565 -0.3817
13278TIP3    H261326   3.659   4.487   4.981 -0.7255  0.1116  0.1643
13279TIP3   OH261327   3.598   5.730  13.487  0.6344  0.4939  0.1446
13279TIP3    H161328   3.577   5.801  13.426  0.3499  1.0911  0.9170
13279TIP3    H261329   3.565   5.761  13.571  0.3151 -0.6614  0.4575
13280TIP3   OH261330   3.507   4.265   5.262 -0.2196  0.1073  0.9578
13280TIP3    H161331   3.419   4.243   5.232  0.0914 -2.1050  1.4596
13280TIP3    H261332   3.555   4.286   5.181 -0.9860  0.5306  0.6034
13281TIP3   OH261333   6.601   6.785   1.464 -0.0930  0.3054  0.6533
13281TIP3    H161334   6.514   6.779   1.504 -0.8468 -1.1768 -1.0463
13281TIP3    H261335   6.656   6.727   1.517  0.6476  3.2000  3.3413
13282TIP3   OH261336   2.234   6.414  12.524  0.0368 -0.0680  0.4999
13282TIP3    H161337   2.312   6.388  12.475 -1.4791  0.4241 -2.3908
13282TIP3    H261338   2.201   6.332  12.561  1.6943 -0.3208  1.5081
13283TIP3   OH261339   2.670   3.959  14.504 -0.2054  0.2119  0.5380
13283TIP3    H161340   2.611   3.909  14.447 -1.6632  4.1531 -1.8829
13283TIP3    H261341   2.620   4.039  14.525  3.6060  3.1141 -0.3536
13284TIP3   OH261342   2.750   4.295  15.388 -0.3579  0.5394  0.0148
13284TIP3    H161343   2.705   4.217  15.357 -0.4748  0.4151  0.4788
13284TIP3    H261344   2.689   4.367  15.371 -0.8253  0.3480  0.8144
13285TIP3   OH261345   5.773   6.725  16.624 -0.1577  0.2680  0.4553
13285TIP3    H161346   5.739   6.673  16.552  1.0007 -0.3583  0.3202
13285TIP3    H261347   5.833   6.787  16.583 -1.1004  1.3609  0.6786
13286TIP3   OH261348   5.690   2.801   3.437  0.6997  0.2600 -0.2928
13286TIP3    H161349   5.744   2.821   3.513  1.0356  0.3308 -0.5476
13286TIP3    H261350   5.638   2.725   3.464 -0.6431  1.4741  0.7156
13287TIP3   OH261351   5.656   1.824  13.139 -0.0447 -0.0949  0.2428
13287TIP3    H161352   5.678   1.736  13.109 -1.2177 -0.5298  0.6039
13287TIP3    H261353   5.665   1.820  13.234 -1.1512 -0.1459  0.3537
13288TIP3   OH261354   2.949   5.854  15.838 -0.0860 -0.1870 -0.2593
13288TIP3    H161355   3.028   5.902  15.864  0.8934 -0.8488 -1.8319
13288TIP3    H261356   2.946   5.864  15.743 -0.8017 -1.8110 -0.4367
13289TIP3   OH261357   2.235   0.770   1.048  0.2742 -0.4487  0.4300
13289TIP3    H161358   2.256   0.790   1.139  0.2974  2.5006 -0.1208
13289TIP3    H261359   2.156   0.715   1.053 -0.2511  0.3896  2.2277
13290TIP3   OH261360   6.036   0.765  14.979  0.7407  0.3415  0.5154
13290TIP3    H161361   6.115   0.726  15.016  0.2039 -1.5375 -0.2037
13290TIP3    H261362   5.977   0.775  15.054  0.5775 -1.0824  0.6078
13291TIP3   OH261363   3.054   3.835  14.957  0.3375  0.1927  0.3476
13291TIP3    H161364   2.992   3.863  15.025 -0.1034  0.2348 -0.0670
13291TIP3    H261365   2.998   3.803  14.886  0.8177 -1.0526  0.5147
13292TIP3   OH261366   6.419   0.351  17.174  0.1509 -0.1292 -0.0757
13292TIP3    H161367   6.399   0.412  17.245  0.5535  0.9860 -0.8824
13292TIP3    H261368   6.393   0.398  17.094 -0.5725 -1.4679 -0.6656
13293TIP3   OH261369   3.449   3.356  13.112 -0.8644 -0.4482  0.0321
13293TIP3    H161370   3.534   3.399  13.099 -0.4136 -0.4574  2.4215
13293TIP3    H261371   3.442   3.295  13.039  1.9741 -1.6122  0.5682
13294TIP3   OH261372   0.640   1.732   4.278  0.2861 -0.5634  0.1025
13294TIP3    H161373   0.688   1.701   4.201 -0.0170  0.2253 -0.4244
13294TIP3    H261374   0.578   1.662   4.298  1.7823 -1.7061  0.9467
13295TIP3   OH261375   5.712   4.816  14.623  0.1969  0.3218 -0.4098
13295TIP3    H161376   5.712   4.876  14.698 -0.4263  0.0598 -0.1894
13295TIP3    H261377   5.700   4.873  14.547 -1.6117  0.4215 -0.1136
13296TIP3   OH261378   2.817   6.032   2.476 -0.3742  0.0338  0.2640
13296TIP3    H161379   2.781   6.116   2.446 -1.0395 -0.0689  0.7405
13296TIP3    H261380   2.746   5.969   2.463  0.2727 -0.5538 -0.5010
13297TIP3   OH261381   6.087   4.862  13.850 -0.0838  0.3826 -0.3165
13297TIP3    H161382   6.141   4.792  13.888  0.7666  1.5562  0.6952
13297TIP3    H261383   6.150   4.925  13.815 -0.8498  0.3384 -1.8524
13298TIP3   OH261384   1.899   6.099   0.450 -0.3643  0.0366  0.3574
13298TIP3    H161385   1.821   6.043   0.449  0.6009 -1.3932  1.0450
13298TIP3    H261386   1.895   6.144   0.535 -0.4834  0.0250  0.3584
13299TIP3   OH261387   4.516   2.299   1.970 -0.6733 -0.2505 -0.0496
13299TIP3    H161388   4.427   2.279   1.941  0.1550 -2.3743 -1.3546
13299TIP3    H261389   4.536   2.231   2.034 -0.5700  1.2858  1.6421
13300TIP3   OH261390   2.871   3.020  12.479  0.0555 -0.1283 -0.0383
13300TIP3    H161391   2.779   3.031  12.500  0.5368  1.3466  1.5374
13300TIP3    H261392   2.872   2.966  12.400 -2.1667  0.5325 -0.5810
13301TIP3   OH261393   1.862   4.607  16.607 -0.2451 -0.1061  0.5000
13301TIP3    H161394   1.776   4.645  16.623 -0.2100 -0.3378  1.2816
13301TIP3    H261395   1.861   4.581  16.515  0.0695  2.6239 -0.3443
13302TIP3   OH261396   2.783   0.647  11.062  0.0751 -0.1312  0.0986
13302TIP3    H161397   2.854   0.619  11.004 -0.1253 -2.2662  0.7966
13302TIP3    H261398   2.826   0.664  11.146  0.3074  2.5889 -0.4790
13303TIP3   OH261399   4.182   5.807  12.032  0.2179 -0.2420  0.2651
13303TIP3    H161400   4.227   5.872  11.978  0.0683  0.7380  1.2953
13303TIP3    H261401   4.107   5.779  11.978  0.2348  0.5020 -0.1625
13304TIP3   OH261402   5.066   1.664  13.867 -0.2365 -0.3079 -0.0264
13304TIP3    H161403   5.147   1.639  13.912  0.5916  1.2961 -0.5334
13304TIP3    H261404   5.000   1.606  13.903  1.1223 -1.6411  0.4460
13305TIP3   OH261405   1.099   5.336   1.244  0.0976 -0.3294  0.1000
13305TIP3    H161406   1.146   5.364   1.167  1.2839  0.0740  0.9518
13305TIP3    H261407   1.031   5.403   1.258  1.6986  1.1726  1.0309
13306TIP3   OH261408   4.284   6.707  14.788 -0.5337 -0.6209  0.5492
13306TIP3    H161409   4.333   6.626  14.774 -3.3603 -2.0532 -2.4545
13306TIP3    H261410   4.193   6.678  14.797 -1.6613  2.2164 -0.6656
13307TIP3   OH261411   1.468   5.572  15.358 -0.7212 -0.0668 -0.1971
13307TIP3    H161412   1.486   5.641  15.421  0.0080 -0.7847  0.3965
13307TIP3    H261413   1.449   5.619  15.276  0.1514  0.8191  0.0958
13308TIP3   OH261414   6.561   2.694   0.416 -0.5161 -0.1060 -0.7127
13308TIP3    H161415   6.641   2.740   0.438 -1.1772  0.5493  0.4332
13308TIP3    H261416   6.580   2.602   0.434 -0.9348  0.3277  2.7614
13309TIP3   OH261417   0.084   6.724  15.800  0.6646  1.2962  0.5640
13309TIP3    H161418   0.172   6.754  15.823  0.2593  2.6220  0.4534
13309TIP3    H261419   0.054   6.786  15.734  0.7151 -0.8063 -1.5309
13310TIP3   OH261420   1.189   2.384  10.764  0.0290 -0.1699  0.2826
13310TIP3    H161421   1.173   2.307  10.818  0.7097 -1.2641 -1.0040
13310TIP3    H261422   1.128   2.375  10.691 -0.9309  1.3188  0.8686
13311TIP3   OH261423   1.320   0.944  15.129 -0.5224 -0.2813  0.6918
13311TIP3    H161424   1.286   1.013  15.186 -0.5931 -0.6519  1.0915
13311TIP3    H261425   1.264   0.869  15.145  1.1632 -1.2779  2.2138
13312TIP3   OH261426   0.685   2.271   5.054  0.2923  0.3806 -0.0688
13312TIP3    H161427   0.637   2.193   5.080 -1.3964  1.0005 -1.1459
13312TIP3    H261428   0.736   2.295   5.131 -0.5493 -0.7537  0.8802
13313TIP3   OH261429   5.899   5.141  16.994  0.3315  0.2117 -0.8377
13313TIP3    H161430   5.869   5.212  16.937 -3.3041  0.2724  0.8473
13313TIP3    H261431   5.911   5.183  17.079 -2.1064 -1.0823  0.2416
13314TIP3   OH261432   5.255   0.145  14.243  0.3816 -0.3593 -0.1820
13314TIP3    H161433   5.347   0.162  14.227 -0.0967  1.1977 -1.5395
13314TIP3    H261434   5.240   0.174  14.333  1.1441 -0.3602 -0.0512
13315TIP3   OH261435   6.537   2.505   0.085  0.1281  0.1754 -0.2445
13315TIP3    H161436   6.626   2.503   0.049 -0.5195 -1.4381 -1.9341
13315TIP3    H261437   6.510   2.597   0.077  1.1821  0.4419 -0.9572
13316TIP3   OH261438   4.235   2.364   2.733 -0.2569 -0.1792  0.3381
13316TIP3    H161439   4.310   2.326   2.688 -0.6056 -0.3210 -0.1341
13316TIP3    H261440   4.257   2.457   2.743  0.4468 -0.4275  1.1921
13317TIP3   OH261441   2.516   4.792   3.797 -0.4570  0.1442  0.3123
13317TIP3    H161442   2.587   4.730   3.780 -1.0509 -1.7282  3.7666
13317TIP3    H261443   2.439   4.752   3.757 -0.1255  0.7172 -0.9261
13318TIP3   OH261444   2.034   3.714   1.326  0.3178 -0.0427  0.0339
13318TIP3    H161445   2.052   3.646   1.261 -1.8264  0.1019 -0.8180
13318TIP3    H261446   1.990   3.669   1.397 -0.0991  0.2573 -0.0262
13319TIP3   OH261447   1.350   0.827   4.875  0.8156  0.3899 -0.4952
13319TIP3    H161448   1.266   0.862   4.903  0.9560  1.2659 -1.1339
13319TIP3    H261449   1.365   0.751   4.932  0.4213  1.2455  0.7817
13320TIP3   OH261450   2.422   0.702   2.666  0.1776  0.3157 -0.0593
13320TIP3    H161451   2.420   0.790   2.703 -0.4042  0.2173  0.1593
13320TIP3    H261452   2.461   0.713   2.579  1.2712  0.5943  0.4511
13321TIP3   OH261453   4.976   1.072   6.105  0.3067 -0.0615  0.0202
13321TIP3    H161454   5.011   1.118   6.029  0.0119 -0.5786 -0.4310
13321TIP3    H261455   5.054   1.045   6.154  0.5451 -0.8729 -0.7784
13322TIP3   OH261456   6.392   0.910  12.126 -0.1844  0.4284  0.2542
13322TIP3    H161457   6.463   0.878  12.070 -0.1337  0.9832 -0.0080
13322TIP3    H261458   6.319   0.925  12.065  0.1375  1.8599  0.1666
13323TIP3   OH261459   4.147   1.612   2.249 -0.1854  0.3822 -0.4151
13323TIP3    H161460   4.062   1.585   2.283  0.4917 -1.4791 -0.0559
13323TIP3    H261461   4.137   1.705   2.229 -1.9343  0.4776  0.7142
13324TIP3   OH261462   3.291   3.528   1.272  0.1529 -0.1144  0.5126
13324TIP3    H161463   3.304   3.499   1.182 -1.6218  0.8119 -0.0900
13324TIP3    H261464   3.290   3.447   1.323  0.3292 -0.7223 -0.4200
13325TIP3   OH261465   6.422   4.144   3.793 -0.1864  0.0393 -0.3882
13325TIP3    H161466   6.399   4.129   3.701 -0.0028 -1.5669 -0.2162
13325TIP3    H261467   6.356   4.095   3.842 -0.4118  1.0668  0.3534
13326TIP3   OH261468   4.551   0.750   1.654  0.2185  0.4987  0.3004
13326TIP3    H161469   4.520   0.799   1.578  1.3501  0.2352 -0.3525
13326TIP3    H261470   4.481   0.688   1.674 -1.4203  2.5454  1.3612
13327TIP3   OH261471   4.878   1.622  12.879  0.4447  0.2176  0.5080
13327TIP3    H161472   4.858   1.708  12.844  1.3778  0.6061  0.8990
13327TIP3    H261473   4.848   1.626  12.970 -0.6560 -0.3062  0.1901
13328TIP3   OH261474   5.645   3.829  12.278  0.3383 -0.6448  0.4001
13328TIP3    H161475   5.570   3.866  12.234  1.5523 -0.1476 -1.3417
13328TIP3    H261476   5.641   3.865  12.367 -2.0073 -1.4577  0.6935
13329TIP3   OH261477   0.517   3.919   4.291 -0.5104  0.1307 -0.0139
13329TIP3    H161478   0.490   4.001   4.251  3.5239  2.1490  0.9441
13329TIP3    H261479   0.567   3.874   4.223  0.5383  0.3166  0.6196
13330TIP3   OH261480   6.027   1.111   5.183 -0.2139 -0.0143  0.6731
13330TIP3    H161481   6.005   1.123   5.275 -1.8684  0.9644  0.1819
13330TIP3    H261482   5.945   1.124   5.136  0.2471 -2.0453 -0.8606
13331TIP3   OH261483   1.159   3.997   0.457 -0.0643  0.3268 -0.1785
13331TIP3    H161484   1.224   3.933   0.488 -0.0223  1.3982  2.1152
13331TIP3    H261485   1.164   4.069   0.519 -4.1512  0.0601  0.7323
13332TIP3   OH261486   6.765   2.863  14.280 -0.0942  0.1347  0.4490
13332TIP3    H161487   6.707   2.892  14.209  0.0428 -1.1962 -0.2439
13332TIP3    H261488   6.845   2.838  14.235 -0.4608 -1.9876  0.8828
13333TIP3   OH261489   5.739   2.847   0.938  0.5529  0.0963  0.3305
13333TIP3    H161490   5.761   2.927   0.890 -1.1553  1.3235  1.4683
13333TIP3    H261491   5.823   2.802   0.950  1.4409  1.3055 -1.0257
13334TIP3   OH261492   2.614   2.810   0.186  0.3586  1.0291  0.3943
13334TIP3    H161493   2.644   2.839   0.100  0.4189  0.5979  0.2661
13334TIP3    H261494   2.661   2.728   0.201  2.2530  2.2794  1.9222
13335TIP3   OH261495   0.768   5.160   3.746  0.3440  0.0188 -0.2725
13335TIP3    H161496   0.754   5.068   3.726 -0.0313 -0.5204  2.1187
13335TIP3    H261497   0.839   5.187   3.687  0.7021 -1.8829 -0.7825
13336TIP3   OH261498   2.552   1.569   1.681  0.4228  0.3778 -0.5307
13336TIP3    H161499   2.466   1.539   1.652  0.6348 -0.8363  0.0511
13336TIP3    H261500   2.534   1.624   1.757  0.2237 -0.8033  0.2967
13337TIP3   OH261501   3.313   4.430   0.763  0.3504 -0.1880 -0.1259
13337TIP3    H161502   3.390   4.394   0.718  0.3590  0.5605 -0.7304
13337TIP3    H261503   3.347   4.461   0.848  0.8969  0.8393 -0.6926
13338TIP3   OH261504   0.435   1.353   0.039  0.8995 -0.0580 -0.1925
13338TIP3    H161505   0.507   1.303  -0.000  0.5209  0.6394 -1.8627
13338TIP3    H261506   0.370   1.287   0.063  1.9700 -0.6707  1.1157
13339TIP3   OH261507   1.262   0.908  13.305  0.6201  0.5721  0.1975
13339TIP3    H161508   1.281   0.920  13.398  0.9775  3.2493 -0.1433
13339TIP3    H261509   1.198   0.976  13.285  0.7122  0.1849 -1.5607
13340TIP3   OH261510   3.654   2.939  14.464 -0.0708 -0.0856 -0.0326
13340TIP3    H161511   3.689   2.952  14.376 -3.3276 -0.1208 -1.4659
13340TIP3    H261512   3.680   2.850  14.487 -0.7216 -0.7717 -1.7924
13341TIP3   OH261513   5.061   4.482   5.474  0.7963 -0.0828 -0.5760
13341TIP3    H161514   5.055   4.539   5.398 -0.1479 -0.1992 -0.5954
13341TIP3    H261515   5.068   4.542   5.548 -1.7061  0.1600 -0.4441
13342TIP3   OH261516   1.265   3.330   0.807  0.0978  0.2095  0.5186
13342TIP3    H161517   1.174   3.322   0.777  0.3221  1.4762 -0.6107
13342TIP3    H261518   1.311   3.258   0.765  0.4102  1.9622 -2.3537
13343TIP3   OH261519   5.238   6.023  12.838 -0.2065 -0.4919 -0.2933
13343TIP3    H161520   5.206   5.972  12.764 -0.1851  0.4658 -0.9737
13343TIP3    H261521   5.162   6.072  12.868 -0.2169 -0.8759  0.3377
13344TIP3   OH261522   3.339   6.669  11.276  0.5510 -1.1083 -0.0906
13344TIP3    H161523   3.268   6.648  11.215  0.1390  1.6046 -0.6818
13344TIP3    H261524   3.416   6.625  11.239 -0.4437 -2.6350 -0.4240
13345TIP3   OH261525   0.505   6.042   4.575 -0.3998 -0.2267 -0.3223
13345TIP3    H161526   0.484   6.077   4.488 -1.4819 -0.0617 -0.0022
13345TIP3    H261527   0.461   6.100   4.636 -0.9340 -1.2348  0.2839
13346TIP3   OH261528   3.513   5.909  13.276  0.1960  0.3366  0.4961
13346TIP3    H161529   3.470   5.969  13.215 -0.3811  2.0947  2.5206
13346TIP3    H261530   3.602   5.900  13.242 -0.7717 -0.7405 -1.9353
13347TIP3   OH261531   3.680   5.405  13.968 -0.1487  0.0092 -0.2515
13347TIP3    H161532   3.765   5.448  13.964 -0.4843  0.6059 -1.3485
13347TIP3    H261533   3.668   5.367  13.881 -0.7471 -0.5890  0.0799
13348TIP3   OH261534   4.606   1.515  11.459 -0.5770  0.5200  0.1443
13348TIP3    H161535   4.543   1.460  11.505  0.8482 -0.8661  0.5181
13348TIP3    H261536   4.681   1.521  11.519  0.2588  0.8590 -0.9002
13349TIP3   OH261537   3.740   3.493   1.770 -0.5229 -0.7900  0.3140
13349TIP3    H161538   3.657   3.486   1.723 -0.2027  0.2765 -0.4492
13349TIP3    H261539   3.741   3.582   1.805  0.3271 -0.7496  0.2206
13350TIP3   OH261540   6.497   4.049  13.631  0.2365 -0.8270  0.1407
13350TIP3    H161541   6.587   4.079  13.624  0.0637 -0.4026 -0.2936
13350TIP3    H261542   6.494   3.971  13.575  0.0154 -0.0856 -0.9206
13351TIP3   OH261543   5.037   1.190  14.154 -0.3654 -0.4281  0.3017
13351TIP3    H161544   4.985   1.112  14.172  0.7462 -1.1375  0.5566
13351TIP3    H261545   5.117   1.178  14.206  0.1988  0.4686 -0.3261
13352TIP3   OH261546   4.276   0.441   3.499 -0.1599 -0.1501  0.3868
13352TIP3    H161547   4.339   0.382   3.458  0.2413  0.1701  0.5390
13352TIP3    H261548   4.233   0.387   3.566  1.1782  0.0839  1.4839
13353TIP3   OH261549   1.973   3.657  13.426 -0.2515  1.2917 -0.3781
13353TIP3    H161550   2.010   3.714  13.359  1.0743 -0.4046 -1.1706
13353TIP3    H261551   1.927   3.589  13.378 -1.3894  1.3922  0.5249
13354TIP3   OH261552   2.703   2.492  12.497 -0.1872  0.2392  0.2979
13354TIP3    H161553   2.725   2.473  12.589 -0.1716  0.5953  0.3715
13354TIP3    H261554   2.671   2.409  12.462 -1.5890  0.4386  1.0420
13355TIP3   OH261555   6.136   0.463   3.208  0.3727  0.3857 -0.0377
13355TIP3    H161556   6.111   0.553   3.184 -0.4863  0.4886  1.1647
13355TIP3    H261557   6.225   0.453   3.173  1.9322  2.9347  2.7064
13356TIP3   OH261558   4.874   1.865  10.602 -0.1762 -0.1312 -0.0644
13356TIP3    H161559   4.956   1.840  10.644 -0.0891  2.1661  1.2772
13356TIP3    H261560   4.810   1.802  10.635  0.5158 -0.2471  1.1180
13357TIP3   OH261561   2.308   0.705   1.494  0.1050 -0.5128 -0.5045
13357TIP3    H161562   2.269   0.627   1.455 -0.1326 -0.2938 -0.7041
13357TIP3    H261563   2.293   0.694   1.588 -1.8072  0.2882 -0.6639
13358TIP3   OH261564   1.432   3.735  17.036 -0.4089  0.2453  0.1274
13358TIP3    H161565   1.390   3.819  17.017 -0.5533  0.1148 -0.1467
13358TIP3    H261566   1.412   3.718  17.128  0.4336  0.9702  0.4568
13359TIP3   OH261567   0.623   5.557   2.451  0.1750  0.0834  0.2983
13359TIP3    H161568   0.631   5.502   2.373 -1.6406 -0.1000  0.1891
13359TIP3    H261569   0.663   5.506   2.521 -1.0685 -1.2044  0.1035
13360TIP3   OH261570   5.191   4.888   4.834  0.4681  0.3340  0.0169
13360TIP3    H161571   5.099   4.865   4.840  0.7394 -0.8106  0.1042
13360TIP3    H261572   5.233   4.811   4.796  1.6625  0.0419  1.7506
13361TIP3   OH261573   5.726   5.720  16.246  0.4858 -0.7876 -1.1772
13361TIP3    H161574   5.691   5.786  16.186 -0.5989 -0.1651  0.0951
13361TIP3    H261575   5.656   5.705  16.309  2.2599  0.1345  1.1909
13362TIP3   OH261576   1.437   2.058  13.721  0.1101  0.2871 -0.7524
13362TIP3    H161577   1.341   2.058  13.732  0.1096  1.2231 -0.6476
13362TIP3    H261578   1.465   2.138  13.765  1.0829 -0.6019  0.2912
13363TIP3   OH261579   6.610   3.219  14.946 -0.0281 -0.1084  0.0552
13363TIP3    H161580   6.681   3.162  14.977  0.4660  0.5590  0.1681
13363TIP3    H261581   6.633   3.237  14.855  0.3511  0.7177  0.3096
13364TIP3   OH261582   5.724   2.144   4.784 -0.2828 -0.1837 -0.3340
13364TIP3    H161583   5.676   2.063   4.801 -2.1552  0.6352 -1.4488
13364TIP3    H261584   5.813   2.115   4.763 -0.6245 -1.8517  0.3492
13365TIP3   OH261585   0.934   4.836  10.805 -0.0533  1.1135  0.3139
13365TIP3    H161586   0.847   4.870  10.786 -0.3363 -0.1050 -0.6666
13365TIP3    H261587   0.966   4.801  10.722  0.6965  0.0858  0.9957
13366TIP3   OH261588   6.801   0.835   0.186 -0.3472  0.8629 -0.1850
13366TIP3    H161589   6.870   0.834   0.120  0.9345  0.5645  1.1124
13366TIP3    H261590   6.756   0.919   0.172  0.7336  1.3932 -0.6086
13367TIP3   OH261591   0.253   3.238   0.376 -0.1548 -0.5228  0.4323
13367TIP3    H161592   0.263   3.143   0.367 -1.5293 -0.6004 -0.6716
13367TIP3    H261593   0.208   3.250   0.459 -0.4837 -0.8873  0.3102
13368TIP3   OH261594   3.777   2.418   3.638 -0.3022  0.5026 -0.2195
13368TIP3    H161595   3.687   2.409   3.604 -0.8506 -1.8772  1.6536
13368TIP3    H261596   3.796   2.334   3.678  3.1615  0.6435 -1.3109
13369TIP3   OH261597   6.505   2.256   3.998  0.0556 -0.2209 -0.1309
13369TIP3    H161598   6.532   2.208   3.920 -0.3230 -1.0389  0.2268
13369TIP3    H261599   6.548   2.341   3.990  1.3725 -0.8979 -0.3858
13370TIP3   OH261600   3.076   2.416  11.950  0.1411  0.2410 -0.5200
13370TIP3    H161601   3.059   2.505  11.918 -1.6153 -0.0489 -0.4890
13370TIP3    H261602   3.138   2.428  12.022 -1.7457  1.7518  0.9927
13371TIP3   OH261603   4.948   1.804  16.002  0.6323 -0.2539 -0.0936
13371TIP3    H161604   4.983   1.791  15.914 -0.0954 -1.6632 -0.2059
13371TIP3    H261605   4.855   1.822  15.989  0.6294  0.0624  0.3547
13372TIP3   OH261606   6.271   5.539   4.978  0.9122 -0.1054  0.3225
13372TIP3    H161607   6.244   5.589   5.054  0.4022 -0.0007  0.0786
13372TIP3    H261608   6.203   5.556   4.912  1.5412  0.1161 -0.2872
13373TIP3   OH261609   2.125   1.031  13.101 -0.5024 -0.3236  0.1392
13373TIP3    H161610   2.058   1.059  13.039 -0.3700  1.2617  0.6512
13373TIP3    H261611   2.078   1.018  13.184 -0.0496  2.5125  0.9725
13374TIP3   OH261612   5.245   2.625  12.316  0.2314  0.0174 -0.0927
13374TIP3    H161613   5.156   2.626  12.282  0.4329 -2.5487 -0.8607
13374TIP3    H261614   5.294   2.568  12.256  1.8817 -0.2931  1.4569
13375TIP3   OH261615   4.385   4.781  15.412 -0.2103 -0.3956  0.1572
13375TIP3    H161616   4.411   4.759  15.502  0.9450  2.7085  0.7388
13375TIP3    H261617   4.289   4.782  15.415 -0.2238 -1.8682  0.9082
13376TIP3   OH261618   2.024   1.561   3.923  0.1434 -0.0238 -0.0552
13376TIP3    H161619   2.093   1.622   3.894 -0.1046 -0.3377 -1.3610
13376TIP3    H261620   2.071   1.490   3.965  0.4825  0.7135  0.8542
13377TIP3   OH261621   0.722   1.324  13.419 -0.5291 -0.0952  0.2083
13377TIP3    H161622   0.690   1.346  13.332 -1.3898 -2.1406 -0.0610
13377TIP3    H261623   0.783   1.251  13.404 -0.0713  0.0510  1.2477
13378TIP3   OH261624   0.364   2.647   0.092  0.0167  0.2583 -0.8996
13378TIP3    H161625   0.356   2.568   0.147  0.6497  1.6474  1.3440
13378TIP3    H261626   0.408   2.617   0.013 -1.1675 -1.9186 -0.8059
13379TIP3   OH261627   6.619   3.256   5.088  0.3593 -0.0647  0.2751
13379TIP3    H161628   6.530   3.223   5.076  0.0547 -0.2357  2.4781
13379TIP3    H261629   6.641   3.299   5.006 -1.5365 -0.5077 -0.5070
13380TIP3   OH261630   2.180   1.169  11.442 -0.3880 -0.1799 -0.6758
13380TIP3    H161631   2.103   1.185  11.387  0.5370  0.4097 -1.8473
13380TIP3    H261632   2.244   1.130  11.382  0.1189 -0.9835  0.3580
13381TIP3   OH261633   6.214   6.477   2.090 -0.1974  0.2308 -0.1405
13381TIP3    H161634   6.253   6.560   2.118  1.1254 -0.3606 -0.1683
13381TIP3    H261635   6.281   6.435   2.037  0.1745 -1.9607  1.8585
13382TIP3   OH261636   1.567   5.514   4.203 -0.1635 -0.1976 -0.4873
13382TIP3    H161637   1.540   5.469   4.123  0.2657 -1.1180 -0.1271
13382TIP3    H261638   1.662   5.506   4.204 -0.2022 -0.7475  0.4132
13383TIP3   OH261639   5.813   3.910  11.055 -0.5390 -0.2638 -0.3102
13383TIP3    H161640   5.832   3.837  10.995 -0.4536  0.4536 -1.1796
13383TIP3    H261641   5.792   3.983  10.997  0.6903  0.7737  0.5026
13384TIP3   OH261642   6.179   2.023  17.291  0.2638  0.4934 -0.4031
13384TIP3    H161643   6.180   2.075  17.211  0.2704  2.1035  0.6073
13384TIP3    H261644   6.110   1.958  17.276 -1.7866  2.5835 -0.6563
13385TIP3   OH261645   6.169   4.137   3.142 -0.0919 -0.6049  0.4232
13385TIP3    H161646   6.106   4.156   3.073 -0.3432  0.2350  0.8664
13385TIP3    H261647   6.118   4.145   3.223  0.4501 -0.4832  0.7566
13386TIP3   OH261648   0.393   0.600   4.862  0.0943  0.4424 -0.3280
13386TIP3    H161649   0.446   0.529   4.898  1.1274  0.8027 -1.1058
13386TIP3    H261650   0.364   0.649   4.939 -0.2003 -0.5057  0.1854
13387TIP3   OH261651   5.184   5.669   5.749 -0.8175 -0.0998  0.3706
13387TIP3    H161652   5.177   5.626   5.835  0.4893 -1.3598 -0.1007
13387TIP3    H261653   5.278   5.670   5.731 -0.7458  3.2502  0.4308
13388TIP3   OH261654   4.223   4.407   5.564  0.2833 -0.5489 -0.0022
13388TIP3    H161655   4.302   4.441   5.522 -0.0814 -0.6526 -0.7918
13388TIP3    H261656   4.251   4.326   5.606  0.8777  0.0718  0.8102
13389TIP3   OH261657   4.734   0.334  12.100 -0.5596 -0.4621  0.5606
13389TIP3    H161658   4.722   0.428  12.090  1.0909 -0.3779 -1.4447
13389TIP3    H261659   4.671   0.308  12.168 -1.0541  2.0504  1.1538
13390TIP3   OH261660   5.859   4.158  13.318  0.0852 -0.1232  0.1384
13390TIP3    H161661   5.821   4.070  13.320  1.3687 -0.6905  1.4468
13390TIP3    H261662   5.951   4.144  13.296  0.4975  0.8048  1.1631
13391TIP3   OH261663   5.736   0.695  12.816 -0.0402 -0.0460  0.0486
13391TIP3    H161664   5.714   0.611  12.856  0.8363  0.4268  1.6295
13391TIP3    H261665   5.669   0.755  12.847  0.2358  0.1658  0.2497
13392TIP3   OH261666   1.049   6.319  13.667  0.3138  0.5864  0.4840
13392TIP3    H161667   1.134   6.284  13.641  1.7891  2.9486  1.8268
13392TIP3    H261668   1.007   6.246  13.713  2.3241 -0.1347  1.2815
13393TIP3   OH261669   1.920   5.747   5.449 -0.1000  0.1388 -0.3181
13393TIP3    H161670   1.876   5.731   5.366 -0.9058  0.6998 -0.0200
13393TIP3    H261671   1.936   5.842   5.450  0.2414  0.0811  0.0053
13394TIP3   OH261672   5.164   1.977   3.937 -0.0551 -0.7437  0.0222
13394TIP3    H161673   5.251   2.012   3.919 -0.0253 -2.3778 -3.9891
13394TIP3    H261674   5.113   2.053   3.968  1.1580  1.9151 -3.8326
13395TIP3   OH261675   2.001   0.088   3.376  0.6490 -0.2080  0.2661
13395TIP3    H161676   2.073   0.026   3.388 -0.4661 -1.8063 -0.8123
13395TIP3    H261677   1.992   0.097   3.281 -0.3941  0.1674  0.3848
13396TIP3   OH261678   1.012   2.485  16.724 -0.3930  0.0089  0.6761
13396TIP3    H161679   1.055   2.567  16.749  1.3119 -0.7093  0.2199
13396TIP3    H261680   0.995   2.494  16.631 -1.8675  0.5365  0.9681
13397TIP3   OH261681   2.465   2.926  11.247 -0.2118 -0.3218 -0.3707
13397TIP3    H161682   2.417   2.842  11.245  0.1210 -0.5155 -0.2175
13397TIP3    H261683   2.400   2.991  11.220 -0.5257 -0.6051 -0.3020
13398TIP3   OH261684   4.922   3.666  16.192 -0.4769  0.6606  1.3877
13398TIP3    H161685   4.995   3.687  16.134  0.4826  0.6424  2.5616
13398TIP3    H261686   4.844   3.692  16.143  0.2867  0.3835 -0.0172
13399TIP3   OH261687   0.710   3.359   0.017 -0.0149  0.1096 -0.4279
13399TIP3    H161688   0.733   3.445  -0.018  0.8353 -0.8102 -2.2611
13399TIP3    H261689   0.793   3.324   0.051 -0.0755 -0.5066 -0.8999
13400TIP3   OH261690   1.781   6.241   4.674  0.2091  0.5323  0.0285
13400TIP3    H161691   1.786   6.323   4.625 -0.5043  0.7306  0.2749
13400TIP3    H261692   1.816   6.175   4.614 -0.9737  0.7109 -0.9061
13401TIP3   OH261693   4.109   0.187   5.868  0.3904  0.5598 -0.7320
13401TIP3    H161694   4.164   0.161   5.942 -0.3896  1.3980  0.1687
13401TIP3    H261695   4.147   0.269   5.837 -0.1817  1.0138 -0.2627
13402TIP3   OH261696   1.036   5.724   0.868 -0.4544  0.1762  0.3383
13402TIP3    H161697   1.090   5.659   0.824 -0.4160  0.5113 -0.1244
13402TIP3    H261698   0.949   5.712   0.831 -0.2663  0.9488 -0.3979
13403TIP3   OH261699   2.353   6.682  11.471 -0.4233  0.7119 -0.1958
13403TIP3    H161700   2.336   6.596  11.509  1.4037  1.1753  1.8519
13403TIP3    H261701   2.281   6.736  11.503 -2.6322 -0.3231 -2.9694
13404TIP3   OH261702   4.450   4.123  12.526 -0.0783 -0.0555  0.2946
13404TIP3    H161703   4.519   4.138  12.591  0.1367  2.4625 -0.4033
13404TIP3    H261704   4.495   4.127  12.442 -0.9613  1.2485 -0.1490
13405TIP3   OH261705   5.436   4.511  16.545  0.4987  0.3772  0.0137
13405TIP3    H161706   5.409   4.436  16.598 -0.0781 -0.4859 -1.4451
13405TIP3    H261707   5.418   4.588  16.600 -0.2391 -0.4717  0.9845
13406TIP3   OH261708   3.721   3.604  14.795  0.5529 -0.1752  0.2694
13406TIP3    H161709   3.651   3.612  14.860  0.8927  2.1323  0.4604
13406TIP3    H261710   3.799   3.640  14.839  1.4954 -1.2729 -0.4490
13407TIP3   OH261711   5.987   0.059   4.064 -0.1683 -0.0515 -0.3241
13407TIP3    H161712   6.013  -0.020   4.111 -0.6601  1.0236  1.8487
13407TIP3    H261713   5.893   0.068   4.080 -0.7201 -0.4296 -2.8207
13408TIP3   OH261714   5.580   4.311   4.694 -0.6379 -0.5747 -0.4137
13408TIP3    H161715   5.525   4.363   4.635  1.0922  0.4740 -1.1763
13408TIP3    H261716   5.614   4.241   4.638  0.7768  0.2520 -0.6221
13409TIP3   OH261717   5.956   6.159   4.230 -0.3895 -1.1537 -0.0652
13409TIP3    H161718   5.872   6.168   4.275  0.2519 -0.4027  1.0306
13409TIP3    H261719   5.934   6.126   4.144 -1.8711 -0.4327  0.0102
13410TIP3   OH261720   5.714   2.335  13.429 -0.5779  0.4586  0.1890
13410TIP3    H161721   5.669   2.252  13.411 -1.2610  1.0547 -0.9842
13410TIP3    H261722   5.653   2.383  13.486 -0.9203  0.7685 -0.4137
13411TIP3   OH261723   0.518   3.001   4.070 -0.1418 -0.0992 -0.2962
13411TIP3    H161724   0.487   2.916   4.100 -0.5233  0.3652  0.6354
13411TIP3    H261725   0.462   3.021   3.995 -0.5572 -0.3191 -0.0502
13412TIP3   OH261726   3.423   5.901   5.795  0.1515  0.7790 -0.5178
13412TIP3    H161727   3.422   5.955   5.874 -2.0562  0.1450 -0.0310
13412TIP3    H261728   3.338   5.856   5.796  0.8842 -0.7756 -2.2136
13413TIP3   OH261729   1.591   6.817   1.527  0.6181  0.0119 -0.1775
13413TIP3    H161730   1.590   6.881   1.457  1.1208  2.5208  1.9585
13413TIP3    H261731   1.675   6.830   1.571  1.0004 -2.5746 -0.0004
13414TIP3   OH261732   1.820   3.739  13.135 -0.1088 -0.7514  0.1919
13414TIP3    H161733   1.733   3.773  13.157 -0.0025 -0.5963  0.3705
13414TIP3    H261734   1.816   3.725  13.040  0.8465  2.7878 -0.5190
13415TIP3   OH261735   4.167   3.044   4.423  0.4922 -0.1463 -0.1979
13415TIP3    H161736   4.136   3.023   4.511 -0.3399 -0.4558 -0.5601
13415TIP3    H261737   4.262   3.029   4.428  0.2637 -1.6294  0.2381
13416TIP3   OH261738   3.655   4.391   1.324  0.1437  0.3475  0.1690
13416TIP3    H161739   3.661   4.328   1.396  1.6808  0.3053  0.0369
13416TIP3    H261740   3.599   4.347   1.259 -1.3674  0.4414  1.3431
13417TIP3   OH261741   4.203   5.032  13.936 -0.5234  0.0828  0.4402
13417TIP3    H161742   4.261   5.087  13.988  0.8804 -1.2952  0.3916
13417TIP3    H261743   4.179   5.087  13.861  1.0218  0.5687  0.2800
13418TIP3   OH261744   3.492   2.895  12.287  0.7745  0.3313 -0.0370
13418TIP3    H161745   3.473   2.988  12.297 -0.5574 -0.0327  1.3061
13418TIP3    H261746   3.470   2.857  12.372  1.7004 -1.1543 -0.4218
13419TIP3   OH261747   2.717   4.232   1.508  0.6374 -0.7087  0.2031
13419TIP3    H161748   2.713   4.242   1.413  2.1602 -0.6480  0.1136
13419TIP3    H261749   2.692   4.318   1.542  0.2094 -0.6943 -0.1328
13420TIP3   OH261750   1.064   1.954  14.143 -0.0786 -0.3425  0.2905
13420TIP3    H161751   1.092   1.939  14.053  1.2772  1.1036  0.4373
13420TIP3    H261752   1.039   1.867  14.175 -1.1512 -0.7885 -1.6334
13421TIP3   OH261753   3.582   4.731  15.421 -0.3170  0.0454  0.2807
13421TIP3    H161754   3.496   4.736  15.379 -0.5452 -0.1214  0.7238
13421TIP3    H261755   3.584   4.644  15.462  0.1164 -0.0074  0.1629
13422TIP3   OH261756   1.699   4.392  12.504  0.6478 -0.0395  0.0317
13422TIP3    H161757   1.722   4.324  12.567  1.8881  1.2259  1.0073
13422TIP3    H261758   1.654   4.345  12.433  4.1760 -2.4327 -0.8909
13423TIP3   OH261759   6.427   6.629  14.321  0.1661 -0.5260  0.0515
13423TIP3    H161760   6.337   6.630  14.287  0.9428 -1.3975 -2.2814
13423TIP3    H261761   6.466   6.710  14.287  0.3120 -0.2056  0.9606
13424TIP3   OH261762   5.981   0.433   5.476 -0.0750  0.0140  0.1415
13424TIP3    H161763   6.041   0.487   5.528  0.2478 -1.0323  0.9203
13424TIP3    H261764   5.961   0.359   5.534 -0.8005 -0.4968 -0.7414
13425TIP3   OH261765   4.045   5.020  12.641 -0.5396  0.0990 -0.2213
13425TIP3    H161766   4.046   4.981  12.729  0.4488 -0.6981 -0.5733
13425TIP3    H261767   3.995   5.101  12.652  0.5083  0.5808  1.3213
13426TIP3   OH261768   1.844   6.199   3.253  0.4476  0.2173 -0.6737
13426TIP3    H161769   1.868   6.107   3.263  0.0591  0.2494  0.8637
13426TIP3    H261770   1.926   6.246   3.265  0.1381  0.2091  2.2539
13427TIP3   OH261771   5.736   5.059   5.487  0.4581  0.5201  0.2254
13427TIP3    H161772   5.656   5.068   5.538  0.7355 -0.5276  0.8740
13427TIP3    H261773   5.710   5.008   5.410  0.3474  0.8180  0.0661
13428TIP3   OH261774   6.160   0.929  14.582 -0.3366 -0.3040  0.3629
13428TIP3    H161775   6.239   0.896  14.625 -0.7259  0.7523  2.0301
13428TIP3    H261776   6.097   0.938  14.654 -1.1285  1.2841 -0.4823
13429TIP3   OH261777   4.684   6.040   0.299  0.4150 -0.1462 -0.1740
13429TIP3    H161778   4.655   6.115   0.248  0.3303 -0.5350 -0.7052
13429TIP3    H261779   4.778   6.052   0.310  0.4642 -0.1519 -0.5797
13430TIP3   OH261780   1.950   2.066   2.011  0.1355  0.0486  0.0315
13430TIP3    H161781   1.942   2.159   2.032 -0.4073 -0.2741  1.3728
13430TIP3    H261782   1.910   2.057   1.925 -1.5116  0.7651  0.6922
13431TIP3   OH261783   2.733   5.381   1.878 -0.1045  0.1639  0.0045
13431TIP3    H161784   2.645   5.412   1.898 -0.1633  0.0463 -0.0674
13431TIP3    H261785   2.759   5.431   1.800 -1.1584 -1.6629 -1.6087
13432TIP3   OH261786   3.496   2.233   5.466  0.3849  0.2218 -0.0872
13432TIP3    H161787   3.558   2.184   5.413  1.8309 -0.4554  2.1176
13432TIP3    H261788   3.414   2.228   5.417  1.9687  1.1077 -3.0739
13433TIP3   OH261789   6.368   6.499  16.696  0.1709  0.0521  0.0673
13433TIP3    H161790   6.398   6.535  16.612 -1.7229  0.6802 -0.3841
13433TIP3    H261791   6.447   6.497  16.751  1.4088 -0.2095 -1.6538
13434TIP3   OH261792   1.482   5.090   0.699  0.7007 -0.3124  0.5351
13434TIP3    H161793   1.485   5.067   0.792  0.9771 -0.7758  0.4164
13434TIP3    H261794   1.508   5.009   0.654  0.4024 -0.1405  0.0493
13435TIP3   OH261795   0.825   3.128  16.416 -0.0575  0.2108 -0.1924
13435TIP3    H161796   0.730   3.129  16.429  0.0374 -1.6715  1.0105
13435TIP3    H261797   0.860   3.173  16.494  0.0394  2.4661 -1.4531
13436TIP3   OH261798   3.359   3.139   5.495 -0.4276  0.2167  0.6270
13436TIP3    H161799   3.403   3.146   5.580 -1.1271  1.6508  0.9070
13436TIP3    H261800   3.395   3.060   5.456  1.2727  0.5340  1.4668
13437TIP3   OH261801   5.784   5.977  13.437 -0.7809  0.3631 -0.4020
13437TIP3    H161802   5.834   6.024  13.504 -3.1242  2.3890  0.0946
13437TIP3    H261803   5.738   6.047  13.388 -3.4695 -1.2927 -0.4747
13438TIP3   OH261804   2.497   0.817  14.449 -0.1511 -0.7035 -0.2687
13438TIP3    H161805   2.566   0.820  14.383  0.2136 -0.6952  0.1023
13438TIP3    H261806   2.418   0.795  14.401 -0.2213  0.9851 -0.9575
13439TIP3   OH261807   0.406   0.696   6.511  0.2194  0.1874 -0.1215
13439TIP3    H161808   0.323   0.653   6.491  1.5233 -2.5731  0.0367
13439TIP3    H261809   0.388   0.748   6.590 -0.9981 -1.6316  0.8607
13440TIP3   OH261810   1.348   0.145   0.828  0.4189 -0.3202 -0.1086
13440TIP3    H161811   1.417   0.202   0.796  0.3427 -1.3462 -2.2497
13440TIP3    H261812   1.268   0.178   0.786 -1.0174  2.2878  4.0262
13441TIP3   OH261813   3.928   4.196   1.924  0.1659  0.7346  0.2021
13441TIP3    H161814   3.994   4.196   1.855 -1.1094 -0.8071 -1.1100
13441TIP3    H261815   3.844   4.191   1.877 -0.8553  1.8544  1.8219
13442TIP3   OH261816   1.013   6.824   3.748 -0.3371 -0.2267 -0.3472
13442TIP3    H161817   1.029   6.748   3.692  1.6895 -0.7419  0.8591
13442TIP3    H261818   1.091   6.879   3.737 -1.2178  1.1039 -0.2349
13443TIP3   OH261819   5.416   3.210  13.428  0.2252 -0.0553  0.2570
13443TIP3    H161820   5.455   3.207  13.341  5.1022 -0.0425  2.1247
13443TIP3    H261821   5.349   3.142  13.427 -0.4025  0.3954 -3.5987
13444TIP3   OH261822   4.130   1.686  17.045 -0.1763  0.3318 -0.2194
13444TIP3    H161823   4.206   1.696  16.987  0.3982  1.8968  0.7302
13444TIP3    H261824   4.064   1.642  16.992  0.6000  1.0123 -1.8139
13445TIP3   OH261825   2.544   1.313   1.303  0.6810  0.2956  0.6369
13445TIP3    H161826   2.526   1.275   1.217  0.6372  0.4278  0.5878
13445TIP3    H261827   2.518   1.244   1.365  0.3710  0.3336  0.5541
13446TIP3   OH261828   6.225   6.589   5.850  0.3081  0.3020 -0.0096
13446TIP3    H161829   6.205   6.560   5.761 -1.1109  1.9748 -0.2804
13446TIP3    H261830   6.292   6.657   5.839 -0.1774  0.8118  0.1514
13447TIP3   OH261831   2.036   4.109  15.438  0.3249  0.2915  0.6047
13447TIP3    H161832   2.034   4.032  15.381  1.2493  1.3181 -0.9079
13447TIP3    H261833   1.976   4.171  15.396 -0.0616  0.5730  1.5509
13448TIP3   OH261834   3.600   3.074  13.635  0.5317  0.6275  0.0367
13448TIP3    H161835   3.673   3.030  13.590 -0.9857 -0.9190 -1.0526
13448TIP3    H261836   3.562   3.130  13.568 -0.3533  0.0475  0.0329
13449TIP3   OH261837   3.199   0.851  12.333  0.7075  0.3776  0.3746
13449TIP3    H161838   3.179   0.942  12.356  1.4693  0.7439 -0.3808
13449TIP3    H261839   3.282   0.855  12.285 -0.3544 -0.4547 -1.6434
13450TIP3   OH261840   5.572   1.013   0.857 -0.4087  0.3281  0.0069
13450TIP3    H161841   5.638   1.072   0.894  2.4296 -2.2371 -0.6251
13450TIP3    H261842   5.540   0.963   0.932  0.1103 -0.0389 -0.0166
13451TIP3   OH261843   5.171   0.364   4.909 -0.0724  0.1089  0.6176
13451TIP3    H161844   5.163   0.424   4.835 -0.2623  0.5383  0.9798
13451TIP3    H261845   5.195   0.280   4.870  0.8177  0.5627  0.1624
13452TIP3   OH261846   5.322   2.075  13.290  0.2378 -0.1922 -0.0585
13452TIP3    H161847   5.290   2.143  13.230  1.4048  0.4159 -0.0196
13452TIP3    H261848   5.259   2.004  13.281 -1.1145  0.9537  0.0239
13453TIP3   OH261849   4.088   3.137  14.441 -0.2757 -0.6410  0.2196
13453TIP3    H161850   4.145   3.193  14.494  0.8395  0.6944 -2.2384
13453TIP3    H261851   4.022   3.104  14.503  0.3896  1.5212  2.2155
13454TIP3   OH261852   4.754   5.664  14.012 -0.5039 -0.2943 -0.1314
13454TIP3    H161853   4.696   5.721  13.961 -0.6347  0.2223  0.5771
13454TIP3    H261854   4.718   5.667  14.101 -0.3912 -1.3262 -0.0432
13455TIP3   OH261855   4.706   5.086   2.715 -0.3101 -0.1000 -0.2117
13455TIP3    H161856   4.634   5.025   2.701 -0.4143  0.2257 -1.1227
13455TIP3    H261857   4.721   5.127   2.630  1.1950 -0.4161 -0.1348
13456TIP3   OH261858   0.941   3.953   3.969  0.1526  0.1998  0.3773
13456TIP3    H161859   1.036   3.947   3.976  0.1780 -1.0323 -0.6786
13456TIP3    H261860   0.925   3.982   3.879 -0.4880 -0.1662  0.3677
13457TIP3   OH261861   3.160   3.389  12.798 -0.6875  0.1304  0.5092
13457TIP3    H161862   3.122   3.407  12.884 -0.0361 -0.3763  0.9125
13457TIP3    H261863   3.178   3.295  12.799  0.3545  0.3146  0.2459
13458TIP3   OH261864   0.361   1.092   3.015 -0.3203  0.2307 -0.4974
13458TIP3    H161865   0.310   1.148   3.073  1.1192  1.8139 -0.6837
13458TIP3    H261866   0.427   1.051   3.072 -1.9302 -2.1144 -0.1831
13459TIP3   OH261867   6.724   5.309   1.147 -0.4154  0.3096  0.0551
13459TIP3    H161868   6.656   5.242   1.159  1.9391 -2.6170 -1.5954
13459TIP3    H261869   6.689   5.367   1.079 -1.1626 -1.3957 -1.0821
13460TIP3   OH261870   0.344   5.458  16.072 -0.8544  0.3984  0.2673
13460TIP3    H161871   0.301   5.445  16.157  0.4780 -1.2371  0.7477
13460TIP3    H261872   0.407   5.386  16.066  0.6061  1.7224 -1.1647
13461TIP3   OH261873   1.955   3.818   3.340 -0.6930  0.3122  0.7392
13461TIP3    H161874   1.990   3.733   3.316 -3.1552 -0.7253  0.5571
13461TIP3    H261875   1.860   3.805   3.345 -1.3804  3.4703 -1.1896
13462TIP3   OH261876   1.280   3.854  16.147  0.4645 -0.0784  0.3118
13462TIP3    H161877   1.261   3.918  16.216  1.6580  0.8129 -0.1609
13462TIP3    H261878   1.351   3.893  16.096 -0.5090 -0.6379 -1.5566
13463TIP3   OH261879   3.379   1.898  11.702 -0.3859 -0.2150  0.7362
13463TIP3    H161880   3.467   1.860  11.707  0.0056  0.3511 -0.9858
13463TIP3    H261881   3.326   1.846  11.762  0.6440 -1.9851  0.1762
13464TIP3   OH261882   4.661   1.471  14.356 -0.6675 -0.6525 -0.5358
13464TIP3    H161883   4.681   1.403  14.292 -0.8725  0.2324 -1.5696
13464TIP3    H261884   4.567   1.484  14.349 -0.9691 -1.6325  1.0909
13465TIP3   OH261885   2.015   4.091   1.129  0.0886 -0.3896  0.6285
13465TIP3    H161886   1.924   4.062   1.128 -0.6180  1.5222 -1.8287
13465TIP3    H261887   2.059   4.033   1.066  0.0951 -0.0324  0.3022
13466TIP3   OH261888   6.670   5.327  13.989  0.1208  0.3488  0.0760
13466TIP3    H161889   6.695   5.392  13.924  0.7632  2.3640  2.1695
13466TIP3    H261890   6.586   5.359  14.023  0.0958 -0.2942  0.6421
13467TIP3   OH261891   6.252   0.650   6.293 -0.1468  0.2671 -0.6490
13467TIP3    H161892   6.246   0.610   6.380 -2.6037  1.0505 -0.3772
13467TIP3    H261893   6.197   0.595   6.237  2.0264 -0.6964 -1.9955
13468TIP3   OH261894   5.440   1.662   5.612  0.2665 -0.2567  0.1583
13468TIP3    H161895   5.437   1.693   5.522 -0.9148  0.5132  0.4347
13468TIP3    H261896   5.377   1.590   5.615 -0.1924  0.1486  0.5045
13469TIP3   OH261897   3.221   2.664   1.798  0.6592  0.5221  0.0634
13469TIP3    H161898   3.150   2.721   1.769  1.3690  0.7377 -1.3326
13469TIP3    H261899   3.179   2.578   1.809  0.0210  0.8233  0.0462
13470TIP3   OH261900   5.578   0.456  13.896 -0.2374  0.0982  0.3387
13470TIP3    H161901   5.487   0.449  13.869  0.2883  0.5072 -1.7134
13470TIP3    H261902   5.627   0.408  13.829  1.0071 -0.8858  1.8897
13471TIP3   OH261903   4.143   6.613  12.075  0.2848  0.0836 -0.4049
13471TIP3    H161904   4.063   6.654  12.106  0.8543  0.9810 -0.0807
13471TIP3    H261905   4.120   6.577  11.989  0.0141  2.0056 -1.1892
13472TIP3   OH261906   4.134   4.439   1.231  0.5465 -0.2001 -0.1000
13472TIP3    H161907   4.206   4.473   1.285  0.1053  0.0970  0.3161
13472TIP3    H261908   4.177   4.385   1.165  1.0803 -0.9435  0.8212
13473TIP3   OH261909   4.437   5.751   4.378 -0.2990  0.7991  0.2863
13473TIP3    H161910   4.511   5.691   4.390  0.2373  1.6143  1.2991
13473TIP3    H261911   4.361   5.700   4.404  0.2144  0.6999  1.6981
13474TIP3   OH261912   6.569   4.749   2.099  0.8841 -0.5902 -0.5318
13474TIP3    H161913   6.541   4.840   2.106  0.0022 -0.9306  0.7398
13474TIP3    H261914   6.573   4.732   2.005  0.6348  0.6268 -0.7762
13475TIP3   OH261915   1.986   1.565   2.412 -0.3449 -0.6454  0.6475
13475TIP3    H161916   2.072   1.582   2.373 -1.1196  1.8258 -0.1951
13475TIP3    H261917   1.933   1.641   2.387 -3.3317 -2.8398 -0.3426
13476TIP3   OH261918   6.558   0.773   4.185  0.1930  0.2787  0.7289
13476TIP3    H161919   6.638   0.763   4.132 -0.4950 -1.2655 -0.0822
13476TIP3    H261920   6.547   0.688   4.228 -0.2599  0.9353  1.9405
13477TIP3   OH261921   5.497   1.161   4.698  0.0834 -0.3080  0.0769
13477TIP3    H161922   5.502   1.220   4.624  0.5645  0.2812  0.5695
13477TIP3    H261923   5.583   1.167   4.740 -0.6305  0.4546  1.4880
13478TIP3   OH261924   0.017   3.368   3.812 -0.9407 -0.1736  0.0446
13478TIP3    H161925   0.109   3.345   3.808 -0.7466  0.5225  0.3460
13478TIP3    H261926  -0.025   3.313   3.746 -0.4236 -1.0134  0.4050
13479TIP3   OH261927   1.525   5.893  13.408 -0.3301  0.3762  0.5440
13479TIP3    H161928   1.542   5.812  13.457  1.6043 -0.6435 -1.6498
13479TIP3    H261929   1.430   5.901  13.407 -0.5070 -0.9057  2.2731
13480TIP3   OH261930   4.796   2.322  12.830 -0.0468 -0.0502 -0.6188
13480TIP3    H161931   4.791   2.323  12.734 -0.3183 -1.1346 -0.6325
13480TIP3    H261932   4.716   2.278  12.857 -0.0482  0.4023  0.1155
13481TIP3   OH261933   4.716   3.993   6.033 -0.2554  0.0957  0.4443
13481TIP3    H161934   4.788   3.932   6.049  0.4483  0.8862  0.4078
13481TIP3    H261935   4.757   4.079   6.040 -1.4304  0.5875  1.4891
13482TIP3   OH261936   5.235   3.154   3.069 -0.5119 -0.2824  0.0641
13482TIP3    H161937   5.263   3.246   3.066  0.5120 -0.5829  0.2585
13482TIP3    H261938   5.141   3.159   3.085 -0.2736  0.7184  1.3559
13483TIP3   OH261939   0.976   5.484   6.028 -0.3556 -0.3618  0.0435
13483TIP3    H161940   1.059   5.481   6.076 -0.7696  0.9809  0.8996
13483TIP3    H261941   1.001   5.503   5.938  0.3715 -1.9752 -0.1272
13484TIP3   OH261942   5.000   3.990   4.137 -0.1384 -0.1811 -0.0233
13484TIP3    H161943   4.908   3.982   4.159 -0.2600 -1.4661 -0.8307
13484TIP3    H261944   5.046   3.994   4.221 -0.8319 -1.0921  0.4159
13485TIP3   OH261945   0.999   3.644   3.361 -0.7598  0.5028  0.1635
13485TIP3    H161946   1.008   3.582   3.433  0.1306 -1.7296 -1.7203
13485TIP3    H261947   0.952   3.594   3.293 -1.5221  2.4765 -0.8371
13486TIP3   OH261948   1.351   5.834   3.515  0.1123 -0.2650 -0.3273
13486TIP3    H161949   1.365   5.920   3.477  2.0248  0.0416  0.9439
13486TIP3    H261950   1.274   5.844   3.571 -0.0991  0.4079 -0.7303
13487TIP3   OH261951   6.483   4.642   2.756  0.0395 -0.0943 -0.0099
13487TIP3    H161952   6.510   4.729   2.787 -0.7302 -0.2044  1.0345
13487TIP3    H261953   6.467   4.654   2.663 -2.1141  1.4694  0.4626
13488TIP3   OH261954   6.578   0.369   0.998 -0.4014 -0.3700  0.1767
13488TIP3    H161955   6.513   0.307   0.963 -0.4179  0.7322 -1.9206
13488TIP3    H261956   6.528   0.449   1.013 -0.0009 -0.2679  0.9783
13489TIP3   OH261957   3.068   0.933   2.320 -0.1280  0.2619  0.1868
13489TIP3    H161958   3.059   0.936   2.415  0.7469 -2.1954  0.4098
13489TIP3    H261959   2.985   0.966   2.286 -1.1440 -0.5153  1.8246
13490TIP3   OH261960   2.436   2.574  15.943  0.1786  0.3217 -0.6826
13490TIP3    H161961   2.528   2.586  15.966 -0.0980  0.7533  0.2274
13490TIP3    H261962   2.406   2.661  15.916 -0.1027  0.2986 -0.4498
13491TIP3   OH261963   4.683   5.252   2.495 -0.1110 -0.3953  0.4574
13491TIP3    H161964   4.674   5.213   2.408 -1.4882 -0.9384  0.8091
13491TIP3    H261965   4.759   5.309   2.489  0.1072 -0.8107 -0.9569
13492TIP3   OH261966   3.506   2.406   3.563 -0.0933  0.0891 -0.1314
13492TIP3    H161967   3.418   2.444   3.554 -0.6127 -1.1096 -0.3495
13492TIP3    H261968   3.499   2.321   3.520  0.0125 -1.8064  3.2675
13493TIP3   OH261969   2.148   0.506   0.048  0.5890  0.3550 -0.4320
13493TIP3    H161970   2.149   0.597   0.080  1.5947  1.0246 -2.2501
13493TIP3    H261971   2.055   0.485   0.042  0.3279  1.3980 -0.3550
13494TIP3   OH261972   4.718   1.906  11.838  0.0481 -0.6777  0.3947
13494TIP3    H161973   4.674   1.923  11.922  2.7160  3.5529  1.2475
13494TIP3    H261974   4.802   1.867  11.862  0.0789 -1.1538 -0.4636
13495TIP3   OH261975   1.498   4.424  12.268  0.0566  0.4783  0.2391
13495TIP3    H161976   1.441   4.348  12.252 -0.6799  1.3140 -1.2756
13495TIP3    H261977   1.582   4.398  12.232 -0.7301  1.0995 -2.1756
13496TIP3   OH261978   0.047   6.310  12.572  0.1164  0.6301  0.1640
13496TIP3    H161979  -0.007   6.310  12.493 -0.0494 -1.0659  0.2493
13496TIP3    H261980   0.006   6.376  12.629 -2.2922 -1.0250  0.4928
13497TIP3   OH261981   3.452   5.704   4.449 -0.4452 -0.1716  0.0828
13497TIP3    H161982   3.436   5.772   4.383 -0.1827 -0.5370 -0.3682
13497TIP3    H261983   3.439   5.748   4.533  0.3986  0.6190 -0.1780
13498TIP3   OH261984   1.976   3.577  10.772  0.7287 -0.3373  0.0754
13498TIP3    H161985   1.967   3.603  10.681  0.0487  0.2533  0.3000
13498TIP3    H261986   1.904   3.516  10.787  1.6466 -1.5021 -0.1416
13499TIP3   OH261987   1.734   4.279  12.206  0.2734 -0.2419 -0.4338
13499TIP3    H161988   1.783   4.287  12.124  1.2150 -0.1718  0.1194
13499TIP3    H261989   1.791   4.228  12.263 -0.9180 -1.3972 -0.2345
13500TIP3   OH261990   0.670   4.067   3.756 -0.3319  0.1515 -0.1205
13500TIP3    H161991   0.761   4.039   3.744 -0.2676  0.1405  0.3843
13500TIP3    H261992   0.645   4.104   3.671 -0.1315 -0.6226 -0.5296
13501TIP3   OH261993   3.170   6.776   2.328 -0.3375  0.2739 -0.2502
13501TIP3    H161994   3.100   6.779   2.393 -0.8564 -2.1435 -0.6188
13501TIP3    H261995   3.228   6.706   2.357  0.7127  0.7197 -1.1634
13502TIP3   OH261996   5.673   3.669   2.872 -0.2572 -0.1467 -0.3883
13502TIP3    H161997   5.584   3.650   2.903 -0.4918 -1.3009 -1.6345
13502TIP3    H261998   5.672   3.762   2.851 -0.9743 -0.0098  0.2108
13503TIP3   OH261999   5.181   4.292  15.825  0.1015  0.2820  0.1060
13503TIP3    H162000   5.195   4.251  15.910 -0.3014 -0.6612 -0.2603
13503TIP3    H262001   5.232   4.373  15.828  1.7988 -0.7630  0.4679
13504TIP3   OH262002   2.670   2.914   3.282  0.0050  0.5307  0.5711
13504TIP3    H162003   2.681   2.999   3.240 -1.2979 -1.0803 -3.5606
13504TIP3    H262004   2.580   2.914   3.314  0.0720  0.7820  0.7581
13505TIP3   OH262005   0.498   6.073   4.984 -0.2235  0.1161 -0.0040
13505TIP3    H162006   0.576   6.096   4.934 -1.0781  0.4302 -1.2222
13505TIP3    H262007   0.455   6.005   4.933 -1.0846  0.4028  0.3153
13506TIP3   OH262008   3.939   0.198  14.416  0.4510  0.5194  0.7053
13506TIP3    H162009   3.855   0.244  14.419  0.6980  1.0892 -0.3694
13506TIP3    H262010   3.948   0.173  14.324  0.6498 -1.0917  1.1284
13507TIP3   OH262011   0.543   0.699   3.253  0.5143  0.2357  0.3804
13507TIP3    H162012   0.636   0.721   3.241  1.0669 -1.7054  0.6455
13507TIP3    H262013   0.545   0.613   3.295 -1.4220  0.8848  1.9430
13508TIP3   OH262014   3.284   4.468   3.488  0.1170 -0.2158 -0.3524
13508TIP3    H162015   3.353   4.508   3.436  0.5517 -1.2782 -0.6254
13508TIP3    H262016   3.320   4.383   3.514  0.5884  0.9225  3.1299
13509TIP3   OH262017   1.232   6.198  12.021 -0.2901  0.4706 -0.0772
13509TIP3    H162018   1.262   6.288  12.022  1.2574  0.0007  1.8361
13509TIP3    H262019   1.307   6.147  11.991 -0.5127 -0.3561  0.7226
13510TIP3   OH262020   0.942   4.362   3.809 -0.0933 -0.8766 -0.6487
13510TIP3    H162021   0.980   4.421   3.744  0.1690 -1.8903 -1.4503
13510TIP3    H262022   0.858   4.400   3.831  0.6430  0.5097 -0.1275
13511TIP3   OH262023   5.330   3.306   1.699 -0.2284  0.2884 -0.0995
13511TIP3    H162024   5.362   3.245   1.765  2.8582  3.0329  1.2834
13511TIP3    H262025   5.276   3.368   1.748 -1.8433 -0.2411 -1.1372
13512TIP3   OH262026   1.658   3.213  13.037 -0.6354 -0.4269  0.1006
13512TIP3    H162027   1.590   3.213  12.969  0.4527  0.1449 -1.0114
13512TIP3    H262028   1.715   3.140  13.013 -0.5068 -0.5232  0.6877
13513TIP3   OH262029   0.378   3.418   5.959  0.1431 -0.0574  0.2291
13513TIP3    H162030   0.426   3.497   5.935  1.9615 -0.9475  0.8228
13513TIP3    H262031   0.437   3.346   5.941 -1.0259 -1.2234  0.8373
13514TIP3   OH262032   2.120   1.874   4.094  0.3264  0.0363 -0.2327
13514TIP3    H162033   2.135   1.815   4.020  1.1289  0.6389 -0.5652
13514TIP3    H262034   2.148   1.960   4.062  0.2444  0.3889  0.6182
13515TIP3   OH262035   4.713   2.531   5.192 -0.0175 -0.0385  0.4306
13515TIP3    H162036   4.670   2.459   5.238 -1.4332  0.3576 -0.2330
13515TIP3    H262037   4.682   2.609   5.236  0.0628  0.2552 -0.0275
13516TIP3   OH262038   0.707   3.220   5.517  0.1131  0.7090 -0.8685
13516TIP3    H162039   0.663   3.159   5.575 -0.3674  1.4387 -0.4513
13516TIP3    H262040   0.786   3.245   5.564 -0.4466  1.5648 -0.3550
13517TIP3   OH262041   4.135   5.388  16.914  0.2635 -0.2923  0.8159
13517TIP3    H162042   4.193   5.445  16.864  1.8308 -0.0848  2.7609
13517TIP3    H262043   4.052   5.390  16.866  0.8929  1.9437 -0.3007
13518TIP3   OH262044   5.212   1.629  10.849 -0.4604 -0.4622  0.2056
13518TIP3    H162045   5.131   1.674  10.827 -0.1645  0.0676  0.1802
13518TIP3    H262046   5.273   1.700  10.872  0.4979 -0.7431 -1.3923
13519TIP3   OH262047   4.199   1.760  15.845  0.3135 -0.2859 -0.4830
13519TIP3    H162048   4.209   1.833  15.907 -1.7956 -1.8277  1.9006
13519TIP3    H262049   4.111   1.772  15.809 -0.8852 -2.5076  1.3940
13520TIP3   OH262050   2.914   2.000   3.664  0.3867 -0.0873  0.0642
13520TIP3    H162051   2.917   1.930   3.730  2.4990 -0.2666 -0.1637
13520TIP3    H262052   2.937   2.080   3.713  3.0502 -0.3831 -0.5669
13521TIP3   OH262053   3.717   0.674   5.488  0.1947  0.1312  0.1543
13521TIP3    H162054   3.730   0.751   5.543 -0.0183 -0.4183  0.9964
13521TIP3    H262055   3.624   0.653   5.499  0.2048 -0.1197 -0.2376
13522TIP3   OH262056   6.549   6.563  14.790  0.0233  0.1666 -0.5895
13522TIP3    H162057   6.580   6.507  14.861 -0.3630  0.5732 -0.0935
13522TIP3    H262058   6.479   6.513  14.748  1.2367 -0.7058 -1.6398
13523TIP3   OH262059   4.403   5.045   4.609  0.3858  0.3129  0.3243
13523TIP3    H162060   4.467   5.036   4.539 -1.4000 -2.3610 -1.1579
13523TIP3    H262061   4.418   4.970   4.666  0.5533  1.3896  1.7526
13524TIP3   OH262062   2.004   4.661   6.038  0.5934  0.3691  0.1200
13524TIP3    H162063   1.927   4.717   6.026  0.5203 -0.1185 -1.9022
13524TIP3    H262064   2.026   4.629   5.951  0.9676 -2.3373  1.0929
13525TIP3   OH262065   2.889   1.052   0.283  0.0068  0.0722  0.0457
13525TIP3    H162066   2.940   1.008   0.351 -0.6495  1.2820  1.3591
13525TIP3    H262067   2.823   0.988   0.257  0.4301 -0.4952  0.3239
13526TIP3   OH262068   4.149   0.643   0.538 -0.5743  0.0271 -0.0149
13526TIP3    H162069   4.195   0.693   0.471 -3.4217 -0.0113 -2.1831
13526TIP3    H262070   4.152   0.552   0.508  0.2962 -0.4116  1.3042
13527TIP3   OH262071   4.557   6.271   3.637 -0.0241  0.0676 -0.1141
13527TIP3    H162072   4.573   6.275   3.542  1.0624 -0.6284  0.0188
13527TIP3    H262073   4.628   6.216   3.670 -0.3399  0.3877  1.1227
13528TIP3   OH262074   6.170   4.462   1.831 -0.8364  0.4555 -0.3563
13528TIP3    H162075   6.147   4.506   1.750 -3.6911 -0.1046  0.0581
13528TIP3    H262076   6.191   4.533   1.892 -0.3230  0.9468 -1.0922
13529TIP3   OH262077   2.827   5.910  14.420  0.0547 -0.5185  0.0809
13529TIP3    H162078   2.887   5.874  14.486  0.1680 -2.0525 -0.8058
13529TIP3    H262079   2.793   5.833  14.374  0.0295  0.5027 -1.6970
13530TIP3   OH262080   3.226   0.807  14.429  0.3037  0.6772 -0.1171
13530TIP3    H162081   3.160   0.861  14.472 -1.2240 -0.6562 -0.6833
13530TIP3    H262082   3.187   0.719  14.426  2.3853 -0.3344  0.1359
13531TIP3   OH262083   2.737   1.256   3.391 -0.6466  0.2702 -0.5728
13531TIP3    H162084   2.773   1.274   3.304 -1.6838  1.0161 -0.8679
13531TIP3    H262085   2.730   1.161   3.395  2.9618 -0.1088  0.1904
13532TIP3   OH262086   3.728   0.338   3.036 -0.8301 -0.4654 -0.2146
13532TIP3    H162087   3.811   0.383   3.048 -0.5844  0.1289 -3.2601
13532TIP3    H262088   3.672   0.372   3.106  0.5541  1.5824 -0.0102
13533TIP3   OH262089   1.265   0.550   4.726 -0.1102 -0.6098  0.1171
13533TIP3    H162090   1.201   0.556   4.797 -0.5517 -0.5184 -0.2818
13533TIP3    H262091   1.216   0.574   4.647  0.7583  0.8366 -0.0136
13534TIP3   OH262092   1.429   5.904   1.307 -0.0772 -0.0223  0.1671
13534TIP3    H162093   1.476   5.830   1.344  0.1628  1.3934  3.0095
13534TIP3    H262094   1.337   5.881   1.315  0.0149 -0.6299 -0.4456
13535TIP3   OH262095   0.352   2.629   2.777 -0.1905  0.8687  0.0312
13535TIP3    H162096   0.321   2.711   2.739  0.0638  0.2800 -1.5183
13535TIP3    H262097   0.287   2.608   2.844  0.2711  2.8193  1.1853
13536TIP3   OH262098   0.169   3.600   3.284 -0.1947 -0.0690  0.2236
13536TIP3    H162099   0.093   3.658   3.291 -1.1567 -1.3210  0.4838
13536TIP3    H262100   0.244   3.657   3.301 -0.9417  1.4963 -1.3998
13537TIP3   OH262101   6.156   1.937   5.941  0.1085  0.0992 -0.4424
13537TIP3    H162102   6.102   1.932   6.020  2.7590 -0.4793  1.4579
13537TIP3    H262103   6.184   2.029   5.938 -1.6586  0.6639 -2.0245
13538TIP3   OH262104   5.227   1.579  14.099 -0.3872 -0.1952  0.3688
13538TIP3    H162105   5.143   1.543  14.071 -0.0583 -0.1235 -0.7285
13538TIP3    H262106   5.286   1.504  14.105 -0.0610 -0.0300 -0.6096
13539TIP3   OH262107   6.480   2.295   3.375  0.1273 -0.1598  0.4821
13539TIP3    H162108   6.512   2.220   3.326  1.9615  0.2444  0.9971
13539TIP3    H262109   6.463   2.261   3.463 -2.0060 -0.6092 -0.0322
13540TIP3   OH262110   0.464   6.201  11.214  0.2012 -0.1439  0.5520
13540TIP3    H162111   0.377   6.182  11.181  1.1324 -3.2846 -0.4115
13540TIP3    H262112   0.520   6.202  11.136  1.2942  0.1672  1.3162
13541TIP3   OH262113   2.840   1.506   2.003 -0.0823  0.3938 -0.6299
13541TIP3    H162114   2.814   1.416   1.983  1.3984 -0.1579 -0.2135
13541TIP3    H262115   2.855   1.546   1.917  1.2705 -0.4093 -0.7972
13542TIP3   OH262116   5.560   2.651   3.998  0.1237 -0.2639  0.0788
13542TIP3    H162117   5.546   2.746   4.001  2.1588  0.0844  0.4641
13542TIP3    H262118   5.523   2.623   3.915 -1.9874  0.5588  0.6749
13543TIP3   OH262119   5.090   4.419  10.813 -0.4519 -0.1698 -0.1763
13543TIP3    H162120   5.037   4.393  10.889 -0.7607  1.0594  0.0432
13543TIP3    H262121   5.033   4.405  10.738 -0.1063 -1.5050 -0.2279
13544TIP3   OH262122   1.015   0.031   0.836  0.3139 -0.2216 -0.3024
13544TIP3    H162123   0.930   0.073   0.823  0.7541  1.1279  0.9351
13544TIP3    H262124   1.007  -0.054   0.793 -2.0506 -0.5913  0.7354
13545TIP3   OH262125   4.804   2.486   1.223 -0.1493 -0.7229 -0.1224
13545TIP3    H162126   4.763   2.458   1.305 -2.3401  0.6392 -0.6533
13545TIP3    H262127   4.897   2.473   1.237 -0.3444  0.4615  2.9955
13546TIP3   OH262128   6.692   5.761  15.903 -0.0674  0.3796 -1.1411
13546TIP3    H162129   6.621   5.733  15.845 -2.6518  1.0046  1.4734
13546TIP3    H262130   6.693   5.856  15.894 -2.2121  0.7574  1.4532
13547TIP3   OH262131   1.508   1.276   0.917  0.2019  0.2970  0.0094
13547TIP3    H162132   1.427   1.233   0.945  1.0398 -1.1105  0.3735
13547TIP3    H262133   1.519   1.250   0.826 -0.9391  2.4146 -0.8036
13548TIP3   OH262134   0.512   2.752   0.420 -0.1683  0.2450  0.0387
13548TIP3    H162135   0.596   2.781   0.384  0.5463  0.2080  1.6090
13548TIP3    H262136   0.447   2.787   0.359  0.9944 -0.5266 -1.7610
13549TIP3   OH262137   3.694   1.510   1.526  0.0868  0.3518  0.4052
13549TIP3    H162138   3.642   1.461   1.462  2.8061  0.0574 -1.7981
13549TIP3    H262139   3.733   1.582   1.475  1.6131  0.6952  1.9540
13550TIP3   OH262140   3.019   6.535   5.942 -0.1574  0.3425 -0.1843
13550TIP3    H162141   3.014   6.622   5.981 -0.7968  0.0704  0.3632
13550TIP3    H262142   3.112   6.514   5.939 -0.1125  0.1346  1.7284
13551TIP3   OH262143   4.299   5.619  10.452  0.5254 -0.0442  0.4409
13551TIP3    H162144   4.394   5.630  10.449  0.4841  0.2004 -1.7353
13551TIP3    H262145   4.264   5.706  10.432 -0.1600 -0.1000  1.3728
13552TIP3   OH262146   3.475   4.278  12.836 -0.1396 -0.5650  0.1815
13552TIP3    H162147   3.413   4.235  12.776  0.9234  0.3522 -1.6770
13552TIP3    H262148   3.434   4.272  12.922 -1.2453 -2.9060 -0.4379
13553TIP3   OH262149   1.690   1.148   4.607  0.2300 -0.4875 -0.2811
13553TIP3    H162150   1.776   1.156   4.565 -1.0689 -0.2834 -3.1689
13553TIP3    H262151   1.653   1.067   4.572 -1.7326  0.7253 -1.2117
13554TIP3   OH262152   1.781   4.060  11.759  0.2687  0.1191 -0.3378
13554TIP3    H162153   1.825   4.082  11.677 -0.8398  0.5192 -0.8502
13554TIP3    H262154   1.691   4.091  11.747 -0.0510 -0.2920  0.8318
13555TIP3   OH262155   0.114   4.032   6.039  0.0655  0.2570 -0.3861
13555TIP3    H162156   0.117   4.128   6.040 -1.9735  0.3729  1.3969
13555TIP3    H262157   0.066   4.011   5.958 -2.4333  0.9883  0.7968
13556TIP3   OH262158   5.300   3.679   0.551 -0.6539  0.0236 -0.0200
13556TIP3    H162159   5.258   3.758   0.516 -2.2403 -0.5303  0.5396
13556TIP3    H262160   5.294   3.688   0.646  0.7542  0.0298  0.0912
13557TIP3   OH262161   2.928   3.657  11.196 -0.2366  0.2842 -0.1164
13557TIP3    H162162   2.998   3.605  11.157 -0.2581  0.2305 -0.0839
13557TIP3    H262163   2.878   3.691  11.122 -0.5376 -0.1742 -0.1229
13558TIP3   OH262164   4.723   4.754  15.964 -0.0785  0.7199  0.5346
13558TIP3    H162165   4.663   4.828  15.962  0.7398  1.3942  0.2315
13558TIP3    H262166   4.793   4.781  16.024  1.5142  1.2338 -1.4606
13559TIP3   OH262167   5.459   3.389  11.847 -0.1456  0.3428 -0.5678
13559TIP3    H162168   5.427   3.308  11.808  0.7309 -0.2901 -0.0053
13559TIP3    H262169   5.507   3.433  11.777 -1.2978  0.7817 -1.1071
13560TIP3   OH262170   6.256   5.686   2.048  0.4478 -0.2368  0.1804
13560TIP3    H162171   6.254   5.609   2.105  0.6769  0.6592  1.4343
13560TIP3    H262172   6.171   5.728   2.061  1.1951  0.9877  1.3441
13561TIP3   OH262173   1.259   0.147  16.776  0.3178  0.2224 -0.3610
13561TIP3    H162174   1.227   0.232  16.808  0.8108  0.0144  0.7049
13561TIP3    H262175   1.354   0.155  16.779  0.3668 -0.1909 -0.7662
13562TIP3   OH262176   1.369   0.422  11.327  0.6681  0.6742 -0.2524
13562TIP3    H162177   1.457   0.416  11.290  0.9482  0.0159  0.4922
13562TIP3    H262178   1.356   0.338  11.372  0.2710  1.3633  0.9655
13563TIP3   OH262179   0.731   0.316  11.196  0.6123  1.1570  0.1636
13563TIP3    H162180   0.761   0.296  11.107 -2.0681  0.3496 -0.6474
13563TIP3    H262181   0.694   0.404  11.190 -2.3143  0.0029 -0.3929
13564TIP3   OH262182   4.350   2.019  12.974  0.3771  0.0147  0.0114
13564TIP3    H162183   4.272   1.976  13.008 -0.0471 -0.8474 -1.9000
13564TIP3    H262184   4.401   1.949  12.935  1.2610  0.8094 -0.2960
13565TIP3   OH262185   6.140   6.376  14.543 -0.0132 -0.1184  0.1211
13565TIP3    H162186   6.139   6.282  14.524 -2.4977  0.0032 -0.6947
13565TIP3    H262187   6.171   6.416  14.461  1.8063 -0.2173  0.7210
13566TIP3   OH262188   5.807   6.749   5.424 -0.0315  0.4169 -0.1836
13566TIP3    H162189   5.803   6.813   5.354 -0.7309  0.5434 -0.0423
13566TIP3    H262190   5.755   6.788   5.495 -1.1564 -0.6478 -0.3940
13567TIP3   OH262191   5.386   3.724   2.475  1.0294  0.3027  0.1759
13567TIP3    H162192   5.413   3.801   2.524 -1.5458  1.4940 -0.1096
13567TIP3    H262193   5.323   3.680   2.531  1.7798 -1.1433 -0.0547
13568TIP3   OH262194   5.032   5.612  14.443 -0.3844  0.0988  0.3147
13568TIP3    H162195   5.043   5.692  14.495  3.3880 -1.1588  1.7912
13568TIP3    H262196   5.096   5.620  14.373  0.4947 -1.8213  0.8374
13569TIP3   OH262197   5.274   6.590  12.762 -0.3345  0.2192 -0.9818
13569TIP3    H162198   5.178   6.590  12.753 -0.4021 -1.8655 -0.6736
13569TIP3    H262199   5.298   6.498  12.761  1.4267  0.5611  1.5105
13570TIP3   OH262200   5.387   3.692   4.265 -0.0975 -0.1042  0.2833
13570TIP3    H162201   5.379   3.596   4.271 -0.9432 -0.0155  0.5599
13570TIP3    H262202   5.316   3.726   4.318 -0.9464  0.6789 -1.2867
13571TIP3   OH262203   0.137   6.695  10.637 -0.2855 -0.6104 -0.1320
13571TIP3    H162204   0.223   6.721  10.669 -1.5154  0.3441  2.7680
13571TIP3    H262205   0.112   6.763  10.574  0.8979 -0.7078 -0.7239
13572TIP3   OH262206   4.999   5.707   2.568  0.3548 -0.1796  0.0064
13572TIP3    H162207   5.028   5.743   2.652 -1.8576  0.1218  0.7164
13572TIP3    H262208   5.002   5.612   2.580  1.1652 -0.1652 -0.0149
13573TIP3   OH262209   5.552   6.362  13.910 -0.3899  0.4229  0.7410
13573TIP3    H162210   5.619   6.417  13.870 -0.2875 -0.4827 -0.3946
13573TIP3    H262211   5.592   6.275  13.916 -1.4472 -0.1368  0.0191
13574TIP3   OH262212   3.838   1.765  14.729 -0.0814 -0.5026  0.9791
13574TIP3    H162213   3.778   1.839  14.725  2.0576  1.3243  0.7713
13574TIP3    H262214   3.820   1.723  14.813 -0.2977  1.2269  1.8375
13575TIP3   OH262215   2.737   2.711  15.340  0.2355  1.0006  0.3161
13575TIP3    H162216   2.687   2.630  15.335  0.6999  0.6085  1.6928
13575TIP3    H262217   2.829   2.683  15.337  0.4172  1.3618  1.7902
13576TIP3   OH262218   4.686   4.494  12.122 -0.0689 -0.3472  0.1626
13576TIP3    H162219   4.637   4.467  12.045  0.9524 -0.7491 -0.3636
13576TIP3    H262220   4.708   4.586  12.105 -0.1205 -0.3436  0.1144
13577TIP3   OH262221   0.328   0.373   1.881 -0.6322  0.2512 -0.1653
13577TIP3    H162222   0.290   0.299   1.833 -0.0694  0.2055 -0.5565
13577TIP3    H262223   0.363   0.430   1.813 -0.4613  0.5445  0.1656
13578TIP3   OH262224   1.076   1.966   2.689 -0.2518 -0.5462 -0.9070
13578TIP3    H162225   1.039   1.976   2.601 -2.0529 -2.9381 -0.5289
13578TIP3    H262226   1.099   1.873   2.694  0.1735 -0.3714  1.0256
13579TIP3   OH262227   1.351   6.238   1.831 -0.5047 -0.5967  0.4875
13579TIP3    H162228   1.352   6.283   1.746 -0.4338  0.4394  1.0258
13579TIP3    H262229   1.325   6.148   1.810  2.6369 -1.2792 -1.0874
13580TIP3   OH262230   1.162   3.227  15.059 -0.2100 -0.2684 -0.1168
13580TIP3    H162231   1.165   3.315  15.022  1.5668 -0.8795 -1.5647
13580TIP3    H262232   1.188   3.239  15.150  0.8088  0.6383 -0.5036
13581TIP3   OH262233   3.775   0.960   3.240 -0.2079 -0.0880 -0.2282
13581TIP3    H162234   3.684   0.933   3.244  0.1167 -1.1229  1.0264
13581TIP3    H262235   3.814   0.925   3.321  1.2882  0.3283 -0.7327
13582TIP3   OH262236   6.340   6.533   4.727 -0.4052  0.0948 -0.2498
13582TIP3    H162237   6.247   6.511   4.727 -0.3165 -0.3487  1.1262
13582TIP3    H262238   6.373   6.498   4.810  0.7221  1.3809 -0.1335
13583TIP3   OH262239   2.348   0.290  14.995  0.3289 -0.1813  0.5561
13583TIP3    H162240   2.294   0.264  15.070 -0.9678  1.2111  0.1454
13583TIP3    H262241   2.391   0.370  15.024 -1.1158  1.0470 -0.5531
13584TIP3   OH262242   5.078   5.706  17.123 -0.2007 -0.0150 -0.5195
13584TIP3    H162243   5.049   5.773  17.185  0.0847  0.8013 -1.2356
13584TIP3    H262244   5.102   5.756  17.045 -1.3133 -1.0791 -1.5763
13585TIP3   OH262245   0.268   2.329  13.998 -0.0979 -0.1430 -0.5172
13585TIP3    H162246   0.272   2.269  14.073 -1.3133  0.9344  0.4601
13585TIP3    H262247   0.323   2.288  13.931  1.7362 -0.7432  1.2518
13586TIP3   OH262248   0.800   0.062  11.648 -0.4572  0.8091 -0.2250
13586TIP3    H162249   0.779   0.077  11.556 -1.4412 -0.5497 -0.2471
13586TIP3    H262250   0.717   0.075  11.695  0.0616  1.6240  0.4954
13587TIP3   OH262251   4.458   2.631  16.194 -0.1630  0.2850  0.2754
13587TIP3    H162252   4.495   2.719  16.189  0.9538 -0.1336  0.9724
13587TIP3    H262253   4.470   2.604  16.285 -1.1654 -0.3148  0.2530
13588TIP3   OH262254   0.556   4.651  12.361  0.1138  0.6624 -0.6313
13588TIP3    H162255   0.564   4.582  12.427  0.9749  1.1765 -0.1870
13588TIP3    H262256   0.599   4.615  12.284  2.0861  1.3126  0.1038
13589TIP3   OH262257   2.265   0.162  15.250  0.0562  0.2267 -0.4612
13589TIP3    H162258   2.242   0.217  15.324  1.5407  0.6865 -0.3078
13589TIP3    H262259   2.348   0.122  15.275 -0.3979 -1.1601 -1.0681
13590TIP3   OH262260   0.712   0.631   0.241 -0.8153  0.0943 -0.4607
13590TIP3    H162261   0.662   0.677   0.173  0.9910 -0.5514 -2.3072
13590TIP3    H262262   0.779   0.694   0.269 -0.8087 -0.0600 -0.1164
13591TIP3   OH262263   4.520   3.552   0.596  0.0484 -0.0597 -0.8207
13591TIP3    H162264   4.441   3.592   0.560  0.3215 -0.3857 -1.8309
13591TIP3    H262265   4.579   3.544   0.520  0.9356 -0.0839 -0.1409
13592TIP3   OH262266   4.666   6.016  16.919 -0.3897 -0.0007 -0.4256
13592TIP3    H162267   4.594   5.958  16.946 -0.4566  0.0458 -0.5042
13592TIP3    H262268   4.635   6.104  16.939 -0.0223 -0.0278  0.3109
13593TIP3   OH262269   1.496   6.551  11.956 -0.9968 -0.3205 -0.3531
13593TIP3    H162270   1.511   6.553  12.050 -0.9547  3.9207 -0.2498
13593TIP3    H262271   1.544   6.475  11.925  0.9163 -0.5491  2.8035
13594TIP3   OH262272   6.153   5.958   1.607 -0.3251 -0.3102 -0.2204
13594TIP3    H162273   6.184   6.039   1.648 -1.4410 -0.2230  0.4992
13594TIP3    H262274   6.168   5.891   1.674 -0.9852 -0.3923 -0.1516
13595TIP3   OH262275   5.166   5.696  12.920  0.0439  0.0838  0.0547
13595TIP3    H162276   5.095   5.755  12.892 -0.8459 -0.6028  0.8147
13595TIP3    H262277   5.244   5.751  12.918 -0.7147  1.2243  0.4482
13596TIP3   OH262278   0.408   4.320   0.434  0.0847 -0.1442  0.1337
13596TIP3    H162279   0.377   4.408   0.454 -1.3612  0.0806 -2.5425
13596TIP3    H262280   0.407   4.315   0.338  0.8249 -2.8310  0.1697
13597TIP3   OH262281   2.731   3.558   4.352 -0.1066 -0.5863  0.3557
13597TIP3    H162282   2.718   3.470   4.317 -2.0011  0.0933 -0.7363
13597TIP3    H262283   2.667   3.565   4.422 -1.4360  0.6079 -0.9259
13598TIP3   OH262284   5.152   3.755   0.827 -0.5504 -0.4566 -0.0813
13598TIP3    H162285   5.092   3.696   0.781 -0.3876  0.2238 -1.2154
13598TIP3    H262286   5.107   3.839   0.826  0.8479  0.3182 -1.9083
13599TIP3   OH262287   0.083   2.694  15.272 -0.1205 -0.2078  0.0816
13599TIP3    H162288   0.174   2.710  15.248  0.0312 -1.9267 -0.6349
13599TIP3    H262289   0.088   2.648  15.356 -0.2063 -1.8146 -0.7593
13600TIP3   OH262290   1.573   5.533  14.861  0.5220  0.4692 -0.2974
13600TIP3    H162291   1.595   5.626  14.853  2.1550  0.0568 -1.2849
13600TIP3    H262292   1.522   5.514  14.782  0.8530  0.3694 -0.4894
13601TIP3   OH262293   1.181   1.020   6.393 -0.0892  0.2944  0.0144
13601TIP3    H162294   1.163   1.109   6.362  0.2878  0.5631  0.5371
13601TIP3    H262295   1.264   1.028   6.440  0.4301 -0.5302 -0.7467
13602TIP3   OH262296   2.428   3.254   4.007 -0.7433 -0.1278  0.0378
13602TIP3    H162297   2.351   3.229   4.058 -0.7861  0.7492  0.4214
13602TIP3    H262298   2.426   3.196   3.931 -2.6985  0.9640 -0.7981
13603TIP3   OH262299   1.762   6.497   0.583 -0.6264  0.0671 -0.1761
13603TIP3    H162300   1.797   6.507   0.494 -0.1959 -1.2492 -0.1629
13603TIP3    H262301   1.713   6.579   0.598 -1.0172  0.1629 -1.7604
13604TIP3   OH262302   1.839   1.208  16.129 -0.6380 -0.0779  0.1112
13604TIP3    H162303   1.931   1.201  16.105 -0.2547  1.7698  0.8978
13604TIP3    H262304   1.806   1.118  16.123  1.5057 -0.9876  0.9431
13605TIP3   OH262305   4.900   0.065  13.770  0.0742 -0.0065 -1.0143
13605TIP3    H162306   4.993   0.086  13.772  0.0187  0.3515 -1.7952
13605TIP3    H262307   4.891   0.001  13.700 -0.2361 -0.2299 -0.7752
13606TIP3   OH262308   2.363   4.550  13.674  0.0667 -0.1532 -0.4497
13606TIP3    H162309   2.382   4.618  13.738 -1.8817  0.2179 -0.2160
13606TIP3    H262310   2.345   4.472  13.727 -0.1777 -0.2080 -0.6125
13607TIP3   OH262311   6.776   0.540   5.877 -0.1367 -0.2587 -0.2092
13607TIP3    H162312   6.740   0.557   5.964 -0.4790 -1.1368 -0.1675
13607TIP3    H262313   6.856   0.490   5.894  0.8565  1.2126 -0.3261
13608TIP3   OH262314   6.558   5.416   4.531  0.0848 -0.3853 -0.3908
13608TIP3    H162315   6.496   5.398   4.461  0.0156 -1.1336 -0.1464
13608TIP3    H262316   6.633   5.360   4.513  0.7020  0.5239 -0.6891
13609TIP3   OH262317   0.469   4.738   5.744  0.2436  0.4048  0.4098
13609TIP3    H162318   0.483   4.729   5.649  1.0640  1.8659  0.3695
13609TIP3    H262319   0.374   4.737   5.754  0.1290  0.9942 -0.5223
13610TIP3   OH262320   2.106   1.784   3.570 -0.9447 -0.3879  0.3383
13610TIP3    H162321   2.172   1.755   3.507 -0.5417 -1.0084  1.0378
13610TIP3    H262322   2.052   1.707   3.586 -1.4010 -0.0779  0.3292
13611TIP3   OH262323   6.057   3.386  13.774 -0.0160 -0.1762  0.0359
13611TIP3    H162324   5.990   3.455  13.778 -1.4408 -1.4809 -0.4384
13611TIP3    H262325   6.044   3.336  13.855 -0.3980 -1.1095 -0.5859
13612TIP3   OH262326   0.736   3.592   4.884  0.3499 -0.3947  0.4943
13612TIP3    H162327   0.661   3.608   4.942  0.5357 -0.3307  0.7172
13612TIP3    H262328   0.705   3.524   4.824  0.3267 -0.8305  0.9933
13613TIP3   OH262329   1.579   5.789   0.121 -0.0064 -0.1145 -0.1148
13613TIP3    H162330   1.620   5.761   0.203 -1.2470  2.2673  1.4195
13613TIP3    H262331   1.524   5.715   0.094  0.3863 -0.9087  1.2049
13614TIP3   OH262332   0.799   3.648  16.911  0.3293 -0.2125 -0.2706
13614TIP3    H162333   0.834   3.706  16.978 -1.4984 -0.4746  0.9589
13614TIP3    H262334   0.724   3.695  16.874 -0.3099 -1.1863 -0.2450
13615TIP3   OH262335   1.570   2.504   5.141 -0.4784 -0.3046 -0.0330
13615TIP3    H162336   1.507   2.573   5.120 -0.4286 -0.1724  0.2485
13615TIP3    H262337   1.533   2.461   5.218 -0.8581 -1.0384 -0.6199
13616TIP3   OH262338   4.390   2.154  12.681  0.4524  0.0332 -0.6976
13616TIP3    H162339   4.431   2.075  12.645  0.9874  0.0236 -0.0839
13616TIP3    H262340   4.437   2.226  12.640  0.1861  0.0347 -1.0049
13617TIP3   OH262341   1.537   2.739   2.516  0.6722 -0.4119 -0.0755
13617TIP3    H162342   1.552   2.652   2.481 -0.3667 -0.0556 -1.4700
13617TIP3    H262343   1.459   2.771   2.471  1.4754  1.5429 -0.1899
13618TIP3   OH262344   6.580   0.827   0.846  0.4752 -1.0154 -0.5435
13618TIP3    H162345   6.511   0.779   0.893  0.6079 -1.3333 -0.6696
13618TIP3    H262346   6.659   0.814   0.898  0.5784 -1.1946 -0.7427
13619TIP3   OH262347   3.879   3.806   3.941  0.9832 -0.9234  0.6310
13619TIP3    H162348   3.921   3.782   3.859  1.1357 -1.4534  0.8570
13619TIP3    H262349   3.825   3.882   3.920  1.0673 -1.0225  0.0559
13620TIP3   OH262350   4.190   5.425  13.091  0.1504 -0.3758 -0.0515
13620TIP3    H162351   4.248   5.470  13.153  0.3580  1.6868 -1.6305
13620TIP3    H262352   4.216   5.333  13.096  0.3199 -0.2775  2.6831
13621TIP3   OH262353   4.421   0.360  16.588 -0.2389 -0.2975 -0.1373
13621TIP3    H162354   4.367   0.365  16.667 -1.9220  1.2254 -1.3086
13621TIP3    H262355   4.509   0.382  16.617 -0.8193  0.1821  1.3115
13622TIP3   OH262356   5.286   5.582   1.440 -0.1354  0.5597  0.4651
13622TIP3    H162357   5.322   5.645   1.377  0.5264 -0.1297  0.1279
13622TIP3    H262358   5.207   5.547   1.397  0.7157 -0.4546 -0.3498
13623TIP3   OH262359   6.667   3.701  11.785  0.6998 -0.4783 -0.1617
13623TIP3    H162360   6.701   3.748  11.709  1.4960  0.1081  0.5363
13623TIP3    H262361   6.665   3.767  11.855 -1.9672 -0.4543 -0.1661
13624TIP3   OH262362   4.851   4.804   0.327  0.0706  0.1897 -0.2202
13624TIP3    H162363   4.827   4.783   0.237  1.3862 -0.6975 -0.4052
13624TIP3    H262364   4.905   4.730   0.354 -1.0127  0.0136  1.6060
13625TIP3   OH262365   1.232   0.632   1.992 -0.1821  0.0331 -0.0023
13625TIP3    H162366   1.230   0.540   2.016  1.6858 -0.2695 -0.8892
13625TIP3    H262367   1.251   0.633   1.898  0.0553  1.3124  0.0365
13626TIP3   OH262368   5.052   1.861  15.253 -0.0853  0.2737  0.0531
13626TIP3    H162369   5.033   1.903  15.337  0.2912 -0.0781  0.3168
13626TIP3    H262370   5.147   1.868  15.244 -0.2092  1.0450 -0.7340
13627TIP3   OH262371   0.825   5.456  14.746  0.4436  0.2938  0.4879
13627TIP3    H162372   0.868   5.371  14.737 -0.7155 -0.2372 -0.3707
13627TIP3    H262373   0.731   5.435  14.740  0.1268  1.5652  0.8609
13628TIP3   OH262374   5.014   3.956   4.979  0.1032  0.4408 -0.1456
13628TIP3    H162375   5.041   3.865   4.990 -0.4389  0.2570 -0.2954
13628TIP3    H262376   4.977   3.981   5.064 -2.4138 -0.4066 -0.9237
13629TIP3   OH262377   0.486   0.515  15.507  0.2191  0.0119  0.0645
13629TIP3    H162378   0.513   0.500  15.416 -0.0641  0.8226 -0.1610
13629TIP3    H262379   0.396   0.485  15.511 -0.3766  1.6317 -0.4096
13630TIP3   OH262380   0.919   0.859  12.477  0.1083  1.0010  0.5061
13630TIP3    H162381   0.825   0.869  12.460  0.0567 -0.9282 -0.7638
13630TIP3    H262382   0.960   0.866  12.390  0.7618 -1.1939  0.5679
13631TIP3   OH262383   2.842   5.776  12.777 -0.5211 -0.2657 -0.5615
13631TIP3    H162384   2.781   5.739  12.712 -0.1169  1.8332 -2.2609
13631TIP3    H262385   2.926   5.733  12.758 -0.0573  1.3543 -2.5057
13632TIP3   OH262386   4.917   1.629   4.394 -0.2264  0.4838  0.3625
13632TIP3    H162387   4.834   1.613   4.439 -0.8295  3.0918  0.3246
13632TIP3    H262388   4.892   1.662   4.308  0.6438  4.4877  1.4566
13633TIP3   OH262389   0.603   5.293   3.394  0.3640 -0.0447 -0.8358
13633TIP3    H162390   0.573   5.342   3.471 -0.5840  1.4848 -2.1325
13633TIP3    H262391   0.522   5.267   3.350  0.8258 -2.8906 -0.1851
13634TIP3   OH262392   4.329   2.889   5.341  0.1124 -0.7002 -0.3875
13634TIP3    H162393   4.245   2.928   5.362 -0.5434 -2.1000 -0.3120
13634TIP3    H262394   4.393   2.944   5.387 -0.6624  0.7784 -0.9868
13635TIP3   OH262395   3.681   5.111  12.897 -0.2992 -0.1193  0.1595
13635TIP3    H162396   3.627   5.066  12.962  0.3610 -0.6434  0.3505
13635TIP3    H262397   3.641   5.087  12.813  0.0201 -1.0251  0.2639
13636TIP3   OH262398   3.050   5.795  11.195 -0.3932  0.0356 -0.5851
13636TIP3    H162399   3.128   5.810  11.249 -1.7791 -0.0746  1.5445
13636TIP3    H262400   3.047   5.700  11.183 -0.1838  0.0432 -0.7005
13637TIP3   OH262401   2.528   2.763  15.128 -0.2239 -0.5950 -0.0454
13637TIP3    H162402   2.488   2.688  15.083  1.0854 -1.0825 -0.4331
13637TIP3    H262403   2.602   2.725  15.176 -1.3373 -0.0291  2.2558
13638TIP3   OH262404   6.627   0.764   3.554  0.5402  0.3149 -0.0390
13638TIP3    H162405   6.629   0.855   3.584  1.4921  0.2804  0.0238
13638TIP3    H262406   6.686   0.762   3.479  0.9181 -0.3552  0.2674
13639TIP3   OH262407   5.487   5.202  17.304 -0.4822 -0.0970 -0.2041
13639TIP3    H162408   5.398   5.172  17.323 -0.9141  1.5411  0.5132
13639TIP3    H262409   5.490   5.209  17.208 -1.0411 -0.3860 -0.2469
13640TIP3   OH262410   6.703   0.168  17.246  0.4479  0.1529  0.5041
13640TIP3    H162411   6.722   0.154  17.153 -1.9446  0.7888 -0.1457
13640TIP3    H262412   6.728   0.086  17.288 -0.7073 -1.0935 -1.1161
13641TIP3   OH262413   3.349   0.723   5.939 -0.2612  0.6403  0.2710
13641TIP3    H162414   3.277   0.760   5.991  0.3405  1.4268  0.5739
13641TIP3    H262415   3.416   0.701   6.004 -0.0546  0.3296 -0.0461
13642TIP3   OH262416   6.581   3.133  16.162  0.2901  0.1137 -0.4482
13642TIP3    H162417   6.652   3.167  16.108  0.3403  0.0622 -0.4159
13642TIP3    H262418   6.542   3.063  16.109  0.6165 -0.2274 -0.2406
13643TIP3   OH262419   3.012   0.336  14.953  0.6693  0.2549  0.0195
13643TIP3    H162420   3.065   0.410  14.980  1.0812 -0.0768  0.1308
13643TIP3    H262421   3.020   0.273  15.025  0.5757 -0.0243 -0.2116
13644TIP3   OH262422   0.843   5.593   1.544 -0.5998  0.1479  0.0203
13644TIP3    H162423   0.748   5.582   1.535 -0.7199  0.4836  0.7902
13644TIP3    H262424   0.855   5.629   1.631  0.3038 -0.6682  0.2586
13645TIP3   OH262425   4.381   6.513   0.647 -0.1038 -0.4595 -0.2331
13645TIP3    H162426   4.436   6.546   0.576  0.5157  1.6516  1.1456
13645TIP3    H262427   4.325   6.448   0.605 -0.5056  1.4483 -2.9231
13646TIP3   OH262428   5.831   1.230  14.909  0.5011  0.2349  0.5563
13646TIP3    H162429   5.737   1.245  14.922  0.7185  2.5733 -0.1317
13646TIP3    H262430   5.867   1.231  14.998  0.0698  0.8632  0.7334
13647TIP3   OH262431   6.146   6.191   5.495 -0.3175 -0.0366 -0.1986
13647TIP3    H162432   6.142   6.278   5.457 -0.8849  0.1642  0.3070
13647TIP3    H262433   6.203   6.200   5.571 -0.0007 -0.2156 -0.4093
13648TIP3   OH262434   1.273   3.970   2.033  0.1687 -0.0396  0.6110
13648TIP3    H162435   1.280   3.889   1.983  0.9563  0.5140 -0.2103
13648TIP3    H262436   1.357   3.977   2.080  0.4923  0.7455 -0.0473
13649TIP3   OH262437   3.887   4.247  13.274  0.5015  0.3323  0.1662
13649TIP3    H162438   3.975   4.283  13.264  0.5010  0.4124  0.4549
13649TIP3    H262439   3.900   4.163  13.319  0.3086  1.0107  1.5279
13650TIP3   OH262440   0.233   2.423   1.473 -0.0818 -0.5420  0.0073
13650TIP3    H162441   0.219   2.510   1.434  1.3588 -0.2748  0.0384
13650TIP3    H262442   0.249   2.441   1.565  0.0001 -0.8639  0.0546
13651TIP3   OH262443   0.783   1.248  16.760  0.1092  0.1778  0.1555
13651TIP3    H162444   0.729   1.216  16.687 -0.5732  0.2828  0.6012
13651TIP3    H262445   0.796   1.171  16.815 -0.1616  0.3018  0.3961
13652TIP3   OH262446   3.129   3.603   1.009  0.1216  0.0204  0.3844
13652TIP3    H162447   3.157   3.677   0.954  0.0660  0.2653  0.6858
13652TIP3    H262448   3.100   3.537   0.946  1.9892 -0.5049  0.0159
13653TIP3   OH262449   5.753   0.010   1.060 -0.0403 -0.5532 -0.0126
13653TIP3    H162450   5.677   0.063   1.083 -0.7172 -1.1580 -0.8148
13653TIP3    H262451   5.724  -0.045   0.987  1.4949 -0.0193 -1.0828
13654TIP3   OH262452   1.148   6.406   0.535 -0.0889  0.2169  0.0240
13654TIP3    H162453   1.146   6.474   0.467  0.7193  1.1794  0.9218
13654TIP3    H262454   1.058   6.374   0.540 -0.5218  1.3385 -0.3180
13655TIP3   OH262455   1.222   1.561  11.475 -0.3245 -0.5040  0.0082
13655TIP3    H162456   1.255   1.650  11.484 -1.1347 -0.1576 -0.3320
13655TIP3    H262457   1.187   1.557  11.386  0.5560 -1.4622 -0.3195
13656TIP3   OH262458   2.003   5.905  16.509  0.5483 -0.7433 -0.1095
13656TIP3    H162459   1.948   5.898  16.431  0.8462  1.7403 -0.6249
13656TIP3    H262460   2.091   5.920  16.475  0.4472  2.0237  0.5666
13657TIP3   OH262461   4.218   5.264  16.362  0.1816 -0.2555  0.7750
13657TIP3    H162462   4.273   5.194  16.396  0.5714  0.5799  1.9348
13657TIP3    H262463   4.244   5.341  16.413 -2.6545 -0.0120  2.0471
13658TIP3   OH262464   2.298   3.616  15.927 -0.1473  0.3085 -0.0902
13658TIP3    H162465   2.207   3.629  15.954 -0.7084  0.1895 -1.8361
13658TIP3    H262466   2.314   3.523  15.941  0.1816  0.5782  1.5293
13659TIP3   OH262467   0.963   1.375  13.135 -0.0069 -0.5479  0.2354
13659TIP3    H162468   0.877   1.332  13.132  0.7619 -2.0406 -1.5034
13659TIP3    H262469   1.013   1.323  13.198  0.5448 -1.5107 -0.9777
13660TIP3   OH262470   0.798   6.540   3.130  0.0420  0.0163  0.6036
13660TIP3    H162471   0.863   6.493   3.183 -1.6881 -2.2235  0.9237
13660TIP3    H262472   0.768   6.611   3.187  1.9638  0.9319  0.5400
13661TIP3   OH262473   0.566   2.524   3.615  0.0113 -0.4205  0.3040
13661TIP3    H162474   0.514   2.449   3.584 -0.3500  0.4980 -1.4032
13661TIP3    H262475   0.564   2.516   3.710 -0.7333 -2.1017  0.1847
13662TIP3   OH262476   2.720   0.606   4.686  0.5957 -0.4450  0.3703
13662TIP3    H162477   2.649   0.652   4.642  1.5612  1.8035  1.0091
13662TIP3    H262478   2.763   0.556   4.617  0.3655  0.7777 -0.6880
13663TIP3   OH262479   3.523   2.892  15.152 -0.1545 -0.1035  0.1525
13663TIP3    H162480   3.450   2.925  15.204  0.7942  1.2577  0.6524
13663TIP3    H262481   3.552   2.813  15.198 -1.6788 -1.0353 -0.4054
13664TIP3   OH262482   4.874   3.688  13.252 -0.3053 -0.1527  0.4002
13664TIP3    H162483   4.886   3.593  13.242  3.8559  0.1595  0.5543
13664TIP3    H262484   4.873   3.702  13.347 -0.4332 -0.0098  0.3775
13665TIP3   OH262485   4.944   1.464  12.665  0.0986  0.5123 -0.1896
13665TIP3    H162486   4.856   1.459  12.628 -0.3940 -0.0817  0.9804
13665TIP3    H262487   4.933   1.517  12.745  0.1954 -1.8409  1.4910
13666TIP3   OH262488   1.400   6.141  16.359 -1.1287  0.1097  0.9262
13666TIP3    H162489   1.441   6.216  16.315 -1.2677 -0.9156 -1.0568
13666TIP3    H262490   1.383   6.078  16.289  0.2797 -2.4184  2.6883
13667TIP3   OH262491   6.396   3.768   0.282 -0.1336 -0.3861 -0.1228
13667TIP3    H162492   6.414   3.834   0.350  1.3773 -0.6464 -0.2428
13667TIP3    H262493   6.372   3.690   0.331 -2.3174  0.2947  0.0190
13668TIP3   OH262494   2.043   6.192   4.065 -0.4436 -0.4082  0.3713
13668TIP3    H162495   1.974   6.133   4.095  0.5445 -1.2669  1.0199
13668TIP3    H262496   2.054   6.171   3.972 -1.6469  0.3710  0.0208
13669TIP3   OH262497   4.399   3.290   3.585  0.1650 -0.1375  0.0279
13669TIP3    H162498   4.491   3.267   3.575  0.3142 -1.0807  2.6908
13669TIP3    H262499   4.351   3.217   3.546  0.5575 -0.4163  0.0683
13670TIP3   OH262500   5.084   4.802   3.086 -0.6004  0.2872 -0.2868
13670TIP3    H162501   5.132   4.719   3.080 -0.4927  0.3550 -0.3658
13670TIP3    H262502   5.093   4.841   2.999  1.0418  1.3164  0.2812
13671TIP3   OH262503   0.366   0.744  15.233  0.5387  0.3563  0.1789
13671TIP3    H162504   0.431   0.795  15.282  1.0945  0.1600 -0.3449
13671TIP3    H262505   0.290   0.801  15.227  1.3150  1.3213 -0.8081
13672TIP3   OH262506   0.900   1.697  14.360  0.1154 -0.3274  0.5983
13672TIP3    H162507   0.993   1.680  14.371  0.3211  1.2402  1.6767
13672TIP3    H262508   0.866   1.619  14.316  2.3096 -0.0274 -1.8465
13673TIP3   OH262509   0.315   3.409  14.058 -0.1383 -0.3510 -0.0657
13673TIP3    H162510   0.326   3.431  13.966 -0.2893  1.2382  0.2615
13673TIP3    H262511   0.375   3.336  14.073  1.1742  0.4736 -1.0455
13674TIP3   OH262512   5.847   4.757  11.193 -0.2937 -0.1688 -1.0227
13674TIP3    H162513   5.789   4.777  11.266  0.8867 -0.7240  0.1135
13674TIP3    H262514   5.841   4.662  11.182  0.9840 -0.3573 -0.3298
13675TIP3   OH262515   3.478   4.259  16.872  0.6833  0.8017 -0.1759
13675TIP3    H162516   3.438   4.176  16.845 -0.1303  1.3327 -0.6354
13675TIP3    H262517   3.416   4.326  16.843  0.7634  1.5119  1.2222
13676TIP3   OH262518   0.721   0.060  16.116  0.4135  0.0064  0.2721
13676TIP3    H162519   0.666   0.138  16.121 -0.6500 -0.7062 -0.0687
13676TIP3    H262520   0.680  -0.003  16.174  0.4768 -0.7676 -0.5003
13677TIP3   OH262521   2.826   6.814   5.834  0.1227  0.0700 -0.0904
13677TIP3    H162522   2.772   6.737   5.855 -0.1195  0.3788  0.4618
13677TIP3    H262523   2.795   6.842   5.748 -0.5536  0.1927  0.1856
13678TIP3   OH262524   0.941   1.039   1.028  0.2542  0.0746 -0.6337
13678TIP3    H162525   0.950   0.977   0.955 -1.2918 -1.4013  0.3555
13678TIP3    H262526   0.982   0.995   1.102  0.4171  0.8695 -0.2415
13679TIP3   OH262527   5.469   1.645  12.804 -0.6371  0.0706  0.0412
13679TIP3    H162528   5.373   1.649  12.809 -0.5757  3.1064  0.7888
13679TIP3    H262529   5.489   1.664  12.712 -0.7165 -1.5475 -0.3407
13680TIP3   OH262530   0.313   5.548   5.263  0.3449  0.2462 -0.2835
13680TIP3    H162531   0.224   5.584   5.267  1.1848  2.3080  0.9510
13680TIP3    H262532   0.336   5.532   5.354  2.8688  4.1660 -0.0078
13681TIP3   OH262533   6.544   1.572   4.456 -0.2597 -0.2140 -0.4822
13681TIP3    H162534   6.564   1.542   4.367 -1.2069  0.6819 -1.0256
13681TIP3    H262535   6.585   1.658   4.462 -1.2402  0.2722 -0.5095
13682TIP3   OH262536   6.344   0.398  14.187 -0.2088  0.2771 -0.1530
13682TIP3    H162537   6.351   0.492  14.175  1.1671  0.0106 -1.7717
13682TIP3    H262538   6.253   0.378  14.165 -0.3640  1.1549 -0.3497
13683TIP3   OH262539   0.624   3.103   4.500 -0.1808  0.3046  0.1551
13683TIP3    H162540   0.671   3.020   4.497  1.5889  1.2835 -1.3157
13683TIP3    H262541   0.639   3.142   4.414 -4.1363  0.5071 -0.6340
13684TIP3   OH262542   0.286   0.566   3.288 -0.2161 -0.3585 -0.8802
13684TIP3    H162543   0.320   0.522   3.366 -1.1245 -1.9057 -1.3175
13684TIP3    H262544   0.364   0.605   3.247  0.2700  0.4469  0.7481
13685TIP3   OH262545   1.159   5.355   2.433 -0.1142 -0.2552 -0.4475
13685TIP3    H162546   1.158   5.261   2.414  0.4826 -0.0848 -1.3687
13685TIP3    H262547   1.204   5.394   2.358  1.9216  0.5067  1.0954
13686TIP3   OH262548   4.143   3.067  11.335  0.2015 -0.0151 -0.2263
13686TIP3    H162549   4.237   3.066  11.319  0.1738 -1.3965 -0.4130
13686TIP3    H262550   4.106   3.009  11.268 -0.4235 -1.9608  1.6691
13687TIP3   OH262551   0.543   1.837   1.735 -0.2472  0.2117 -0.9859
13687TIP3    H162552   0.605   1.909   1.726 -1.1552  1.8963  3.4641
13687TIP3    H262553   0.471   1.860   1.675  0.4520  1.8431 -1.2563
13688TIP3   OH262554   0.923   5.980  14.573  0.0934  0.0657  0.1502
13688TIP3    H162555   0.844   6.024  14.604 -0.1811  0.3813 -0.9553
13688TIP3    H262556   0.978   5.972  14.651 -0.1340  1.7720  0.5263
13689TIP3   OH262557   2.546   3.848   1.245  0.3054 -0.4989  0.4905
13689TIP3    H162558   2.584   3.819   1.163  0.7374 -0.9830  0.8624
13689TIP3    H262559   2.452   3.858   1.226  0.1434 -2.0957  0.3406
13690TIP3   OH262560   0.631   0.313   3.173  0.4421  0.2707 -0.0888
13690TIP3    H162561   0.692   0.344   3.105  0.5063 -0.8116 -0.5429
13690TIP3    H262562   0.570   0.255   3.126 -0.2737  0.4764  0.5609
13691TIP3   OH262563   2.074   1.421  15.424  0.2646 -0.0141 -0.1801
13691TIP3    H162564   2.074   1.512  15.392  0.7074  0.0611  0.0279
13691TIP3    H262565   2.012   1.376  15.367 -0.6192  0.6143  0.2541
13692TIP3   OH262566   5.319   3.918  15.928 -0.0304 -0.1613  0.5256
13692TIP3    H162567   5.371   3.839  15.942  0.0596 -0.2002 -0.0060
13692TIP3    H262568   5.357   3.983  15.987 -0.4035 -0.6432  1.3132
13693TIP3   OH262569   4.075   1.814  15.561 -0.2655  0.1323 -0.1779
13693TIP3    H162570   4.137   1.741  15.573 -0.8614 -0.6347 -1.5092
13693TIP3    H262571   4.023   1.814  15.641  0.9733  0.3363  0.6625
13694TIP3   OH262572   3.032   1.408   0.869  0.1456  0.1603 -0.2421
13694TIP3    H162573   3.012   1.454   0.951  0.9787 -1.4632  0.9412
13694TIP3    H262574   2.948   1.403   0.823 -0.5650  0.2628  0.9816
13695TIP3   OH262575   6.020   5.298  11.721  0.0392 -0.5018 -0.3781
13695TIP3    H162576   5.955   5.333  11.661 -1.0858 -3.2018 -0.8521
13695TIP3    H262577   6.087   5.367  11.727 -1.7007  1.3992 -1.6609
13696TIP3   OH262578   4.967   2.898  11.805 -0.0739  0.2376  0.2178
13696TIP3    H162579   5.058   2.908  11.777 -0.9207  1.8475 -2.2665
13696TIP3    H262580   4.956   2.964  11.874  0.1080  1.5621 -0.9776
13697TIP3   OH262581   2.444   6.383  14.444 -0.0635  0.0748 -0.3499
13697TIP3    H162582   2.486   6.464  14.473 -0.5181  1.2146 -2.6560
13697TIP3    H262583   2.515   6.332  14.406  0.1189 -0.3387  0.5422
13698TIP3   OH262584   1.866   2.081  14.996  0.2971 -0.3238  0.7669
13698TIP3    H162585   1.803   2.075  15.068  0.6222  1.4452  1.2397
13698TIP3    H262586   1.829   2.145  14.936  0.8480 -0.5210  0.2008
13699TIP3   OH262587   2.334   5.678  12.152 -0.4042  0.0115  0.0172
13699TIP3    H162588   2.348   5.685  12.246  3.0819  1.3643 -0.4492
13699TIP3    H262589   2.357   5.587  12.131 -1.0351 -0.2472  0.4455
13700TIP3   OH262590   3.898   5.331  15.122 -0.2576 -0.3542  0.4796
13700TIP3    H162591   3.854   5.332  15.036 -1.2321  2.4613  0.9026
13700TIP3    H262592   3.969   5.394  15.113 -0.2472 -0.1738  1.6766
13701TIP3   OH262593   2.710   4.617  17.133  0.2170  0.2666 -0.2290
13701TIP3    H162594   2.638   4.675  17.158  0.0631 -0.0556  0.0860
13701TIP3    H262595   2.789   4.666  17.155  0.0927  0.5439 -0.3977
13702TIP3   OH262596   2.403   3.579  15.047 -0.0540  0.5469  0.2854
13702TIP3    H162597   2.488   3.586  15.002  0.2190 -2.1573  0.2288
13702TIP3    H262598   2.386   3.667  15.080  2.0330  1.5143 -1.0260
13703TIP3   OH262599   4.515   5.780   0.840  0.1128  0.0534  0.2970
13703TIP3    H162600   4.533   5.699   0.793  1.4060  0.6878 -0.3531
13703TIP3    H262601   4.419   5.784   0.845  0.0196 -1.3376  0.0660
13704TIP3   OH262602   4.164   2.189  15.070  0.6044 -0.1838 -0.4135
13704TIP3    H162603   4.103   2.261  15.081 -0.3845 -1.1433  0.7230
13704TIP3    H262604   4.205   2.179  15.156  0.7971 -0.8917 -0.5791
13705TIP3   OH262605   5.428   3.381   3.016  1.1469  0.3421  0.2084
13705TIP3    H162606   5.379   3.456   3.049 -1.8225 -1.6973  0.8520
13705TIP3    H262607   5.496   3.366   3.081 -0.3527  0.4860  1.9048
13706TIP3   OH262608   6.063   4.407   2.755  0.3329 -0.5447  0.0839
13706TIP3    H162609   6.119   4.350   2.703 -1.5605 -1.5256 -0.9860
13706TIP3    H262610   6.085   4.496   2.726  2.1680 -0.7847  0.6132
13707TIP3   OH262611   5.660   5.352  16.706 -0.5249  0.2613  0.1729
13707TIP3    H162612   5.679   5.258  16.698  1.3180  0.6726 -1.0021
13707TIP3    H262613   5.716   5.381  16.777 -0.4277  0.6274 -0.0539
13708TIP3   OH262614   6.547   5.319  14.339  0.1067 -0.2891  1.0833
13708TIP3    H162615   6.494   5.240  14.340 -1.2256  0.5249 -0.4357
13708TIP3    H262616   6.622   5.298  14.284 -1.9408  0.4339 -2.2118
13709TIP3   OH262617   2.668   6.363  14.118  0.4938  0.3147  0.0735
13709TIP3    H162618   2.582   6.349  14.078 -0.3800  3.1013  0.7755
13709TIP3    H262619   2.650   6.367  14.212  1.2093  1.7908  0.1752
13710TIP3   OH262620   5.557   3.214  14.959 -0.0449  0.0239 -0.4424
13710TIP3    H162621   5.646   3.233  14.930 -0.3357  2.9344  0.3018
13710TIP3    H262622   5.504   3.220  14.879  0.1892 -0.0361 -0.6052
13711TIP3   OH262623   1.915   0.817  15.497  0.5095 -0.5421  0.5644
13711TIP3    H162624   1.889   0.793  15.408  1.1144  0.5794  0.0631
13711TIP3    H262625   1.904   0.912  15.500 -0.2548 -0.6610  1.9448
13712TIP3   OH262626   5.706   3.176   4.780 -0.2748  0.4623 -0.1013
13712TIP3    H162627   5.668   3.232   4.713 -2.3791 -1.7868 -0.9628
13712TIP3    H262628   5.801   3.182   4.766 -0.5280  2.2592 -1.3587
13713TIP3   OH262629   3.463   1.223   6.172 -0.1274 -0.5712  0.3207
13713TIP3    H162630   3.387   1.203   6.119  0.5708  0.3312 -1.0803
13713TIP3    H262631   3.432   1.215   6.263 -1.2694 -2.3871 -0.1853
13714TIP3   OH262632   3.175   0.649  11.188  0.1194 -0.0155 -0.0031
13714TIP3    H162633   3.166   0.654  11.093  0.1339 -0.2344 -0.0156
13714TIP3    H262634   3.258   0.605  11.202  0.9019  1.4621  0.1153
13715TIP3   OH262635   1.474   4.842   1.153  0.2955 -0.4198 -0.0237
13715TIP3    H162636   1.390   4.796   1.148 -0.1497  0.1679  1.5331
13715TIP3    H262637   1.536   4.785   1.108 -0.5832 -1.7101  0.3706
13716TIP3   OH262638   5.755   1.148   1.907  0.5998 -0.3712 -0.1689
13716TIP3    H162639   5.707   1.066   1.900  0.2787 -0.1036 -1.1646
13716TIP3    H262640   5.808   1.152   1.827 -0.3322  0.9833 -0.7363
13717TIP3   OH262641   2.590   1.618  16.539 -0.3182  0.4973  0.2589
13717TIP3    H162642   2.566   1.616  16.446 -1.6967  0.9046  0.5978
13717TIP3    H262643   2.668   1.674  16.542 -0.3689  0.6352 -0.6223
13718TIP3   OH262644   5.604   3.331   1.683  0.1630  0.7024 -0.1308
13718TIP3    H162645   5.516   3.357   1.656 -0.9955 -2.3875  0.2084
13718TIP3    H262646   5.609   3.354   1.775  0.1737  1.8913 -0.4118
13719TIP3   OH262647   0.253   3.271   0.962  0.3998  0.1025 -0.1759
13719TIP3    H162648   0.170   3.316   0.979 -0.2083 -0.6752 -1.0352
13719TIP3    H262649   0.282   3.241   1.048 -2.1465 -2.9529 -0.2263
13720TIP3   OH262650   0.641   2.664   4.666 -0.0137  0.8014  0.2183
13720TIP3    H162651   0.729   2.627   4.672  0.0794  0.9184 -0.4017
13720TIP3    H262652   0.622   2.693   4.755  0.0721 -0.3579  0.6365
13721TIP3   OH262653   5.014   2.423  16.760 -0.4527 -0.2191 -0.0304
13721TIP3    H162654   5.016   2.345  16.704  1.3039 -0.1216 -0.1471
13721TIP3    H262655   4.920   2.439  16.774 -0.8773 -1.7208 -0.8639
13722TIP3   OH262656   0.448   4.432   3.480 -0.0793 -0.3416  0.0118
13722TIP3    H162657   0.384   4.375   3.437  0.0420 -0.3335 -0.1768
13722TIP3    H262658   0.395   4.483   3.542 -0.2423 -0.3969 -0.0796
13723TIP3   OH262659   3.831   2.788  15.402 -0.3894 -0.4411  0.2263
13723TIP3    H162660   3.789   2.874  15.389  0.9867  0.3223  0.5749
13723TIP3    H262661   3.909   2.791  15.346 -1.8037 -2.6464 -2.0601
13724TIP3   OH262662   3.240   1.794   5.487  0.0894  0.2486 -0.3131
13724TIP3    H162663   3.299   1.858   5.528 -0.3197  0.3552  0.1226
13724TIP3    H262664   3.264   1.796   5.394  1.3219 -0.3059 -0.0257
13725TIP3   OH262665   4.302   1.849  13.495  0.4928 -0.0155  0.5991
13725TIP3    H162666   4.327   1.924  13.549  1.8178  0.2103 -0.2678
13725TIP3    H262667   4.303   1.774  13.555  1.8444  0.2443  0.9345
13726TIP3   OH262668   0.534   0.115   2.415 -0.4397  0.4028 -1.0793
13726TIP3    H162669   0.489   0.044   2.368  0.0302 -0.1992 -0.6287
13726TIP3    H262670   0.599   0.146   2.352 -0.0124 -0.2026 -0.9464
13727TIP3   OH262671   0.284   5.473   1.592  0.5763 -0.4271  0.2340
13727TIP3    H162672   0.274   5.379   1.602 -0.1596 -0.3978 -0.1278
13727TIP3    H262673   0.359   5.483   1.533  1.1864 -0.7541  0.9428
13728TIP3   OH262674   5.387   1.829  12.217 -0.6240  0.2841 -0.6603
13728TIP3    H162675   5.419   1.740  12.205 -0.2636  0.3026  0.1174
13728TIP3    H262676   5.391   1.868  12.129  1.5247  0.2951 -0.5990
13729TIP3   OH262677   3.505   5.650  11.986  0.1723 -0.0294  0.3205
13729TIP3    H162678   3.534   5.638  12.077 -2.2534  0.0949  1.1850
13729TIP3    H262679   3.511   5.744  11.972 -1.6383  0.2830  1.2408
13730TIP3   OH262680   5.644   3.535  14.269 -0.1241 -0.2755 -0.2853
13730TIP3    H162681   5.576   3.547  14.335 -1.9389 -0.4917 -2.0302
13730TIP3    H262682   5.656   3.622  14.230 -0.4152 -0.5078 -0.9092
13731TIP3   OH262683   3.940   5.144  11.241 -0.4471  0.1340 -0.1552
13731TIP3    H162684   3.985   5.128  11.324 -0.7998 -1.2311 -0.1971
13731TIP3    H262685   4.009   5.137  11.174  0.0428  2.2843  0.0534
13732TIP3   OH262686   3.918   2.874   2.356  0.5130  0.1136  0.3673
13732TIP3    H162687   3.860   2.817   2.406 -0.4088  2.5835  2.3065
13732TIP3    H262688   3.907   2.961   2.395  2.1358  1.5959 -2.1631
13733TIP3   OH262689   4.560   3.687   4.540  0.3966 -0.5863 -0.6370
13733TIP3    H162690   4.532   3.668   4.451 -1.3680 -1.4997  0.0803
13733TIP3    H262691   4.482   3.719   4.584  0.1125 -3.9339  1.6644
13734TIP3   OH262692   0.218   4.439  13.940 -0.9507  0.7655  0.0825
13734TIP3    H162693   0.245   4.529  13.957 -0.2236  0.7641 -0.9402
13734TIP3    H262694   0.300   4.391  13.929 -1.2013 -0.6356  3.2323
13735TIP3   OH262695   5.658   5.830  12.026 -0.4241 -0.2311  0.2032
13735TIP3    H162696   5.641   5.884  11.948  1.2204 -1.4443 -1.0675
13735TIP3    H262697   5.622   5.881  12.098 -0.5503  1.7158 -1.1466
13736TIP3   OH262698   4.408   4.001   3.562 -0.2703  0.4845 -0.3353
13736TIP3    H162699   4.362   3.919   3.544 -0.5397  0.3705  0.8218
13736TIP3    H262700   4.481   4.001   3.500 -0.6899 -0.2746 -0.8480
13737TIP3   OH262701   4.658   1.041  14.783 -0.0857  0.5145 -0.2124
13737TIP3    H162702   4.579   1.017  14.735 -0.7242  0.4231  0.8710
13737TIP3    H262703   4.627   1.078  14.865  1.0025  0.2833  0.3237
13738TIP3   OH262704   4.678   2.638  15.486  0.1367 -0.3709 -0.0902
13738TIP3    H162705   4.623   2.717  15.490  1.3763  0.5402 -0.5418
13738TIP3    H262706   4.655   2.590  15.566 -1.0313  0.1607 -0.0747
13739TIP3   OH262707   2.967   2.570   3.454 -0.2426 -0.3460  0.2156
13739TIP3    H162708   2.932   2.650   3.415  1.2075 -0.3063 -1.1337
13739TIP3    H262709   2.934   2.571   3.544 -0.4574  1.6542  0.1774
13740TIP3   OH262710   0.124   0.035   1.888 -0.2937  0.1000  0.1585
13740TIP3    H162711   0.119  -0.061   1.891 -0.3034  0.1218  1.5763
13740TIP3    H262712   0.202   0.053   1.836 -1.6452 -0.6028 -2.2902
13741TIP3   OH262713   0.628   0.545   4.276 -0.2337 -0.0891  0.1280
13741TIP3    H162714   0.620   0.639   4.290  2.2814  0.2554 -0.2895
13741TIP3    H262715   0.671   0.512   4.355  1.5884 -0.3558 -0.9204
13742TIP3   OH262716   6.077   0.362   1.814 -0.4927 -0.7377 -0.2265
13742TIP3    H162717   6.163   0.370   1.855 -0.2147 -2.4005 -0.4296
13742TIP3    H262718   6.080   0.421   1.739 -0.9242  2.2137  1.9038
13743TIP3   OH262719   1.553   6.143  17.271 -0.0935  0.0871  0.2311
13743TIP3    H162720   1.545   6.119  17.364  1.2095 -0.2600  0.2733
13743TIP3    H262721   1.505   6.075  17.224  0.7217 -0.7392  0.5604
13744TIP3   OH262722   0.944   4.524   3.345 -0.0151  0.1536  0.1454
13744TIP3    H162723   0.851   4.505   3.337  0.0507  0.4541 -2.0798
13744TIP3    H262724   0.979   4.451   3.396 -0.9478 -1.8824 -1.9231
13745TIP3   OH262725   0.141   2.254   2.218  0.7843  0.3136 -0.3997
13745TIP3    H162726   0.065   2.301   2.253 -0.0767 -1.8241  0.8002
13745TIP3    H262727   0.216   2.294   2.261  0.0850  0.5833  0.5985
13746TIP3   OH262728   6.204   3.146  13.594  0.5526  0.3437  0.1220
13746TIP3    H162729   6.149   3.101  13.659 -1.2896  0.1778 -1.4534
13746TIP3    H262730   6.147   3.214  13.558  1.5992  0.5908 -1.1226
13747TIP3   OH262731   3.944   1.847  16.521  0.6971  0.0824 -0.5015
13747TIP3    H162732   3.967   1.763  16.481 -0.7437 -0.7930  0.3784
13747TIP3    H262733   3.881   1.886  16.460 -2.5914 -1.8905  1.3210
13748TIP3   OH262734   3.595   6.607  10.807  0.7311  0.2642 -0.8165
13748TIP3    H162735   3.618   6.583  10.717 -0.3157  0.9014 -1.2807
13748TIP3    H262736   3.625   6.698  10.815  1.4613 -0.0252 -0.2832
13749TIP3   OH262737   4.737   4.450   1.476  0.0487 -0.1956 -0.0685
13749TIP3    H162738   4.649   4.484   1.493 -0.3262 -1.1032 -0.1287
13749TIP3    H262739   4.724   4.357   1.460  0.9583 -0.2435 -0.6249
13750TIP3   OH262740   2.144   2.814  13.491  0.4891  0.0020  0.1839
13750TIP3    H162741   2.081   2.841  13.424 -0.5199 -1.8594  0.3165
13750TIP3    H262742   2.144   2.885  13.555 -0.5327  0.5970 -0.4561
13751TIP3   OH262743   6.492   6.388   5.313 -0.1551 -0.1580 -0.3712
13751TIP3    H162744   6.570   6.350   5.275 -0.5546 -1.0482 -0.3208
13751TIP3    H262745   6.427   6.318   5.311 -0.6267  0.2317  0.5877
13752TIP3   OH262746   0.206   5.074  16.658 -0.0601 -0.1750  0.3937
13752TIP3    H162747   0.150   5.065  16.735 -0.9606 -0.2450 -0.2582
13752TIP3    H262748   0.234   5.166  16.660  0.3273 -0.3005  1.0701
13753TIP3   OH262749   0.903   2.598  14.511  0.6861 -0.0498  0.0556
13753TIP3    H162750   0.910   2.554  14.426 -3.0428 -1.5901  0.3711
13753TIP3    H262751   0.852   2.676  14.493 -1.2870 -1.0581  0.9692
13754TIP3   OH262752   1.309   4.347  16.403  0.1819  0.1361  0.2440
13754TIP3    H162753   1.227   4.386  16.432  0.6776  0.8702  0.6989
13754TIP3    H262754   1.374   4.380  16.465  1.4514  2.4762 -2.1104
13755TIP3   OH262755   1.959   6.537  12.446  0.0805 -0.8522 -0.0107
13755TIP3    H162756   1.978   6.537  12.352  1.1188  0.1997  0.1761
13755TIP3    H262757   2.028   6.591  12.484  0.1323 -1.9145  1.4690
13756TIP3   OH262758   3.575   4.385  11.368  0.3957 -0.8203 -0.3724
13756TIP3    H162759   3.597   4.437  11.291  0.6880 -0.8731 -0.3249
13756TIP3    H262760   3.625   4.304  11.358  1.9963 -0.0520  0.8373
13757TIP3   OH262761   4.723   6.701  16.107  0.5043  0.0506  0.0370
13757TIP3    H162762   4.693   6.610  16.112 -1.6964  0.8070  2.7526
13757TIP3    H262763   4.655   6.747  16.058 -0.6432  0.9411  2.3331
13758TIP3   OH262764   4.842   1.676   3.547 -1.3166 -0.0562 -0.8593
13758TIP3    H162765   4.839   1.768   3.573  1.0860  0.5074 -2.2501
13758TIP3    H262766   4.846   1.628   3.630 -2.1890  1.0917 -0.1220
13759TIP3   OH262767   6.178   4.684   0.910  0.2623 -0.2174  0.4735
13759TIP3    H162768   6.196   4.765   0.958  0.3857  0.3620 -0.5227
13759TIP3    H262769   6.095   4.653   0.945 -0.4278  1.0261 -0.0108
13760TIP3   OH262770   3.782   0.530   6.147  0.2042 -0.5593  0.2439
13760TIP3    H162771   3.744   0.618   6.137  0.3441 -0.4023  1.0423
13760TIP3    H262772   3.877   0.544   6.139  0.1828 -0.7737 -0.5046
13761TIP3   OH262773   1.902   1.868  13.703  0.2436 -0.3418 -0.1767
13761TIP3    H162774   1.923   1.799  13.767  0.8919  1.5469  1.7669
13761TIP3    H262775   1.815   1.898  13.729 -0.2965 -0.7937 -1.3961
13762TIP3   OH262776   1.308   3.828  16.604  0.3732 -0.0167 -0.3765
13762TIP3    H162777   1.339   3.738  16.616 -0.8672 -0.4556 -0.3456
13762TIP3    H262778   1.371   3.882  16.652  2.3350 -0.6417 -2.1008
13763TIP3   OH262779   2.501   1.706  11.047  0.5959 -0.3687  0.3490
13763TIP3    H162780   2.487   1.720  10.953  1.1488 -0.2772  0.2771
13763TIP3    H262781   2.563   1.633  11.051 -0.6706 -1.4751  0.6838
13764TIP3   OH262782   1.483   0.314   4.070  0.3287 -0.0507 -0.4010
13764TIP3    H162783   1.471   0.249   4.139  0.9784 -0.2834 -0.4958
13764TIP3    H262784   1.403   0.310   4.018 -0.5261  0.7211  0.8192
13765TIP3   OH262785   2.077   4.580   0.833 -0.6660 -0.2312 -0.5666
13765TIP3    H162786   2.045   4.557   0.920  1.3243 -1.4853 -0.1109
13765TIP3    H262787   2.119   4.665   0.845 -0.9680 -0.0955 -0.4609
13766TIP3   OH262788   4.636   1.698   0.960  0.0219 -0.1023 -0.1649
13766TIP3    H162789   4.675   1.780   0.928 -0.0776  0.2360  0.5760
13766TIP3    H262790   4.562   1.726   1.013 -1.1094 -0.7320 -1.3691
13767TIP3   OH262791   5.567   4.689  12.623 -0.6313 -0.0470  0.6051
13767TIP3    H162792   5.490   4.695  12.679 -0.9727 -0.3630  0.1752
13767TIP3    H262793   5.627   4.755  12.657 -1.5002  0.9094  0.3096
13768TIP3   OH262794   2.356   0.363  16.259  0.6250 -0.3939 -0.4241
13768TIP3    H162795   2.375   0.346  16.167  0.9638 -1.0531 -0.2348
13768TIP3    H262796   2.428   0.420  16.288  0.3934  0.0050 -0.6210
13769TIP3   OH262797   2.392   5.271  11.727 -0.2917  0.0258  0.1404
13769TIP3    H162798   2.411   5.365  11.732 -0.1779 -0.0422  1.7469
13769TIP3    H262799   2.413   5.239  11.815 -1.9977 -1.1792  0.1462
13770TIP3   OH262800   3.423   6.120  14.603 -0.0042  0.0979 -0.0995
13770TIP3    H162801   3.486   6.183  14.570 -0.2136  0.9246  1.0366
13770TIP3    H262802   3.473   6.038  14.609  1.3176  0.9670  1.7960
13771TIP3   OH262803   3.445   4.542   4.522 -0.2146  0.6403  0.1416
13771TIP3    H162804   3.534   4.518   4.549  0.1405  1.0284 -0.6525
13771TIP3    H262805   3.446   4.638   4.519 -0.1639  0.6067 -1.4616
13772TIP3   OH262806   5.718   3.440   2.498 -0.1524  0.0038  0.1698
13772TIP3    H162807   5.718   3.500   2.572 -0.7863 -1.5740  1.5299
13772TIP3    H262808   5.809   3.437   2.469 -0.3033  2.6177 -0.8664
13773TIP3   OH262809   1.418   4.835  15.336  0.7500  1.4966  0.0611
13773TIP3    H162810   1.409   4.780  15.258  2.6481 -1.1256  1.5450
13773TIP3    H262811   1.334   4.825  15.382  0.0539  2.1568 -0.9907
13774TIP3   OH262812   3.815   3.992   3.396  0.2957  0.1200 -0.0246
13774TIP3    H162813   3.891   4.043   3.366  0.5270 -0.4745 -0.4857
13774TIP3    H262814   3.746   4.057   3.410  0.0740  0.4265 -2.1743
13775TIP3   OH262815   1.311   0.422  14.571  0.5335 -0.0729 -0.0119
13775TIP3    H162816   1.273   0.376  14.497 -0.3761 -2.0271  1.5960
13775TIP3    H262817   1.241   0.481  14.602 -0.0387 -1.1745  0.8546
13776TIP3   OH262818   6.499   2.658  10.469  0.2294  0.1854  0.2402
13776TIP3    H162819   6.470   2.736  10.421  1.1978  0.6289  0.3489
13776TIP3    H262820   6.593   2.653  10.452  0.4820 -0.0213  1.5626
13777TIP3   OH262821   5.608   6.202   1.354 -0.0907  0.6074  0.5707
13777TIP3    H162822   5.591   6.119   1.399  0.6801 -0.7040 -1.4361
13777TIP3    H262823   5.523   6.247   1.353 -1.2050 -1.3836 -0.6530
13778TIP3   OH262824   2.676   0.062  13.983  0.1393 -0.2320 -0.0627
13778TIP3    H162825   2.601   0.039  14.038 -0.6384  1.4125 -0.3861
13778TIP3    H262826   2.695   0.153  14.005  0.6988  0.0323 -1.5232
13779TIP3   OH262827   4.137   1.443   4.013 -0.0979 -0.1402  0.8562
13779TIP3    H162828   4.217   1.408   3.974  2.0087  1.5050  3.3172
13779TIP3    H262829   4.114   1.519   3.958 -0.4228 -1.0089 -0.2469
13780TIP3   OH262830   3.451   2.989  15.696  0.3693 -1.1058 -0.0516
13780TIP3    H162831   3.364   3.018  15.669  0.5406 -0.1216  0.4097
13780TIP3    H262832   3.473   3.044  15.771  1.0517 -1.9049  0.3563
13781TIP3   OH262833   3.832   1.255   0.451  0.3329  0.5588  0.3173
13781TIP3    H162834   3.792   1.297   0.374 -0.9648  0.0794  0.7059
13781TIP3    H262835   3.762   1.203   0.489  2.1238 -3.0445 -0.8237
13782TIP3   OH262836   4.579   2.482  15.228  0.3792 -0.5598 -0.3037
13782TIP3    H162837   4.622   2.545  15.170  0.9137 -0.7504 -0.1274
13782TIP3    H262838   4.597   2.514  15.316 -0.6392 -0.1394 -0.2416
13783TIP3   OH262839   4.031   2.795  10.230 -0.0790  0.6134  0.4174
13783TIP3    H162840   3.965   2.776  10.163 -0.3388  0.5987  0.6786
13783TIP3    H262841   4.010   2.736  10.302  0.4860  0.2960  0.3304
13784TIP3   OH262842   2.878   2.644   4.185 -0.3158 -0.0710  0.2080
13784TIP3    H162843   2.960   2.600   4.206  1.0664  1.2148 -2.0342
13784TIP3    H262844   2.819   2.623   4.257  1.4135 -2.5035  1.0101
13785TIP3   OH262845   1.846   0.682   6.052 -0.0654 -0.2462  0.1730
13785TIP3    H162846   1.790   0.756   6.074  0.8241  0.2716  0.7177
13785TIP3    H262847   1.882   0.653   6.136  1.4703  0.2371 -0.2859
13786TIP3   OH262848   6.557   2.067   3.270  0.5599  0.9589  0.1390
13786TIP3    H162849   6.643   2.033   3.295 -0.3398  0.6690  3.3300
13786TIP3    H262850   6.537   2.022   3.188  3.5895  1.4161 -1.0043
13787TIP3   OH262851   4.349   0.582   2.344  0.8592  0.6508 -0.0733
13787TIP3    H162852   4.403   0.520   2.393 -0.4098  0.0267  0.5871
13787TIP3    H262853   4.307   0.636   2.411  0.7679  1.2298 -0.5801
13788TIP3   OH262854   5.921   2.106  16.672  0.6574 -0.0859 -0.1161
13788TIP3    H162855   5.965   2.189  16.688  1.4738 -0.5153 -0.0725
13788TIP3    H262856   5.840   2.129  16.627  1.2448  0.6698 -0.8000
13789TIP3   OH262857   4.120   4.087  15.023 -0.0293  0.1910  0.1284
13789TIP3    H162858   4.161   4.166  15.059 -0.7946 -0.0506  1.6075
13789TIP3    H262859   4.099   4.034  15.100 -2.0390 -0.2003 -0.6189
13790TIP3   OH262860   0.029   2.901  13.875  0.3263  0.1222 -0.2654
13790TIP3    H162861   0.067   2.965  13.935  1.3148 -0.7120  0.0267
13790TIP3    H262862   0.088   2.902  13.799 -0.2481  0.3038 -0.7176
13791TIP3   OH262863   5.242   4.055  12.204  0.1592  0.1943  0.1770
13791TIP3    H162864   5.195   4.009  12.272 -0.3018 -0.0218 -0.2799
13791TIP3    H262865   5.316   3.998  12.182 -0.4467 -0.3780 -0.4359
13792TIP3   OH262866   4.623   1.288   2.961 -0.0423  0.4518  0.1052
13792TIP3    H162867   4.642   1.305   3.053 -0.2024  0.4767  0.1351
13792TIP3    H262868   4.639   1.194   2.950  2.5247  0.8937 -0.4835
13793TIP3   OH262869   1.955   5.251  15.796  0.2788  0.6643  0.1375
13793TIP3    H162870   1.999   5.166  15.793 -1.3463 -0.2794  1.2174
13793TIP3    H262871   2.013   5.306  15.848  1.0670  0.0442 -0.0644
13794TIP3   OH262872   5.237   6.477  13.175  0.4971 -0.0921  0.0517
13794TIP3    H162873   5.205   6.508  13.260  0.6711  0.3104 -0.0252
13794TIP3    H262874   5.253   6.384  13.188 -2.7920 -0.8443 -0.5479
13795TIP3   OH262875   3.392   6.670  17.071  0.3070  0.1050 -0.1331
13795TIP3    H162876   3.420   6.615  16.998  0.2570  0.6418 -0.5631
13795TIP3    H262877   3.302   6.695  17.050 -0.2022 -0.8381  0.7861
13796TIP3   OH262878   4.207   6.532   1.177  0.2481 -0.2143 -0.2246
13796TIP3    H162879   4.267   6.463   1.149 -0.2054 -0.3947 -0.7793
13796TIP3    H262880   4.122   6.487   1.185 -0.2128  0.4303 -1.3444
13797TIP3   OH262881   0.308   3.153   1.894  0.3067 -0.1561  0.1962
13797TIP3    H162882   0.361   3.188   1.966  1.1691  1.1112 -0.9948
13797TIP3    H262883   0.270   3.231   1.852  0.9670 -0.7267 -1.5665
13798TIP3   OH262884   2.818   0.229  12.509  0.2623 -0.4495 -0.5967
13798TIP3    H162885   2.889   0.219  12.573  0.0295  0.0258 -0.2578
13798TIP3    H262886   2.809   0.143  12.470 -0.1836 -0.9809  0.6293
13799TIP3   OH262887   0.945   0.634  16.103 -0.3011  0.1164 -0.1340
13799TIP3    H162888   1.040   0.625  16.115  0.5425 -2.6769 -5.5669
13799TIP3    H262889   0.908   0.560  16.152  0.3278  0.7522  1.3613
13800TIP3   OH262890   3.141   3.630  11.452 -0.0750 -0.5186  0.0550
13800TIP3    H162891   3.189   3.677  11.384  1.3220 -2.3646 -0.3429
13800TIP3    H262892   3.156   3.680  11.532  1.0069 -0.0542 -0.4210
13801TIP3   OH262893   4.803   5.034   4.594 -0.2396  0.1197  0.3623
13801TIP3    H162894   4.779   4.954   4.547 -0.7089  0.0718  0.6787
13801TIP3    H262895   4.766   5.022   4.682  1.6577 -0.3273  1.1442
13802TIP3   OH262896   2.465   1.921  14.321 -0.3211 -0.5526 -0.1784
13802TIP3    H162897   2.460   1.864  14.244  0.6843 -1.9642  0.7411
13802TIP3    H262898   2.409   1.996  14.300  1.6413  0.2385 -3.2197
13803TIP3   OH262899   3.683   6.339   1.718 -0.3330 -0.0441  0.6724
13803TIP3    H162900   3.689   6.296   1.804 -2.2317 -0.8133  0.4682
13803TIP3    H262901   3.589   6.344   1.700  0.0173 -1.3551 -2.0574
13804TIP3   OH262902   3.647   1.876  15.334  0.3915  0.4867  0.3142
13804TIP3    H162903   3.736   1.851  15.308  0.0323  0.1381 -0.6441
13804TIP3    H262904   3.602   1.794  15.352 -0.0874  0.5710 -0.4325
13805TIP3   OH262905   1.595   3.203  13.294  0.4388  0.5039  0.1464
13805TIP3    H162906   1.508   3.242  13.291  0.1489 -0.0027  1.2171
13805TIP3    H262907   1.624   3.200  13.203 -1.1061 -0.2656 -0.3496
13806TIP3   OH262908   0.487   3.222   3.638  0.6975  0.3646  0.1613
13806TIP3    H162909   0.433   3.251   3.711  1.5617  1.1470  0.5184
13806TIP3    H262910   0.425   3.197   3.570 -0.1325  2.3868  0.1059
13807TIP3   OH262911   4.548   3.909   4.952  0.5345 -0.2869 -0.0008
13807TIP3    H162912   4.640   3.911   4.926  0.8503 -1.6837  0.8872
13807TIP3    H262913   4.531   3.817   4.971 -0.9329  0.0161  0.2737
13808TIP3   OH262914   5.860   6.116  15.291 -0.1587 -0.0455 -0.3157
13808TIP3    H162915   5.798   6.077  15.229  0.7502 -1.8150 -0.1860
13808TIP3    H262916   5.940   6.064  15.280  0.2994  0.1633  1.7228
13809TIP3   OH262917   2.056   5.149  11.363 -0.5367  0.1075  0.3519
13809TIP3    H162918   2.036   5.104  11.280 -1.7073 -0.3475  0.8655
13809TIP3    H262919   2.129   5.099  11.399 -0.3916 -0.0429 -0.1346
13810TIP3   OH262920   5.610   1.995   0.613 -0.4050  0.1277  0.6947
13810TIP3    H162921   5.641   1.911   0.646 -3.0500  0.0131  3.3301
13810TIP3    H262922   5.641   2.059   0.677 -0.5839  0.8362  0.0934
13811TIP3   OH262923   2.409   4.516  14.710 -0.1077 -0.3780  0.1098
13811TIP3    H162924   2.414   4.437  14.764 -0.4007  0.7880  1.9195
13811TIP3    H262925   2.383   4.585  14.770  0.0148  1.1013 -1.4482
13812TIP3   OH262926   2.673   3.709  12.703 -0.5684  0.9582 -0.6429
13812TIP3    H162927   2.601   3.724  12.642 -0.9620 -1.7566 -0.9789
13812TIP3    H262928   2.635   3.721  12.790 -1.2637  0.2458 -0.8401
13813TIP3   OH262929   0.662   1.489   2.495  0.4361 -0.0964  0.2125
13813TIP3    H162930   0.569   1.479   2.517  0.5664 -1.8423  0.1196
13813TIP3    H262931   0.697   1.542   2.567 -0.2189 -1.2632  1.4588
13814TIP3   OH262932   5.452   4.197   5.169  0.2672  0.1203 -0.7101
13814TIP3    H162933   5.531   4.247   5.150 -0.3049  1.7123  0.8092
13814TIP3    H262934   5.409   4.246   5.239 -0.9076 -1.9371  0.1025
13815TIP3   OH262935   3.342   2.144  14.813  0.3187 -0.1506  0.0130
13815TIP3    H162936   3.304   2.162  14.727  2.3552 -0.5500 -1.0167
13815TIP3    H262937   3.345   2.229  14.857  1.3670  0.4819 -1.2252
13816TIP3   OH262938   6.175   1.350   5.426 -0.5948 -0.2622 -0.0399
13816TIP3    H162939   6.249   1.339   5.486 -0.9462 -1.2044  0.2369
13816TIP3    H262940   6.194   1.291   5.353 -0.4037  0.5273 -0.6440
13817TIP3   OH262941   1.535   3.146   5.622  0.2504 -0.7302 -0.0806
13817TIP3    H162942   1.526   3.086   5.548  0.3856 -0.0963 -0.6189
13817TIP3    H262943   1.449   3.187   5.629  0.7784  0.6742 -1.1835
13818TIP3   OH262944   2.326   3.273   4.999 -0.6460  0.2645 -0.2867
13818TIP3    H162945   2.362   3.347   5.048 -0.9587  1.0219 -1.1559
13818TIP3    H262946   2.398   3.243   4.944 -0.6855  0.2979 -0.3566
13819TIP3   OH262947   4.409   6.732  12.150  0.1820 -0.7211  0.1300
13819TIP3    H162948   4.334   6.676  12.135 -0.8426  0.0645  1.9438
13819TIP3    H262949   4.371   6.818  12.171  1.5192 -0.5060  1.9054
13820TIP3   OH262950   4.865   6.497   2.025 -0.3711  0.1808  0.5942
13820TIP3    H162951   4.829   6.581   2.053  0.5313  0.8703 -0.2490
13820TIP3    H262952   4.939   6.520   1.969  1.8658 -1.1515  2.7870
13821TIP3   OH262953   4.948   3.249   2.251  0.1790  0.2745  0.1871
13821TIP3    H162954   4.938   3.226   2.159  0.7740 -0.9170  0.3968
13821TIP3    H262955   4.882   3.317   2.266  0.7211  1.2036 -1.3461
13822TIP3   OH262956   1.531   0.670   4.612 -0.5058 -0.1078 -0.0121
13822TIP3    H162957   1.449   0.658   4.661 -0.6804  0.6629 -0.1004
13822TIP3    H262958   1.524   0.608   4.539 -1.6109  0.8264 -0.7531
13823TIP3   OH262959   3.145   6.207   3.135 -0.6820 -0.2345  0.4977
13823TIP3    H162960   3.079   6.150   3.096 -1.2914  1.4145 -1.0276
13823TIP3    H262961   3.098   6.251   3.207 -0.9263  0.1140  0.1286
13824TIP3   OH262962   3.664   2.827  11.999  0.2370  0.1228 -0.2713
13824TIP3    H162963   3.656   2.860  12.089 -2.4686  0.8703 -0.7049
13824TIP3    H262964   3.701   2.900  11.950 -3.0221  1.6807 -0.6565
13825TIP3   OH262965   6.611   4.027   3.362 -0.0683 -0.0438 -0.4154
13825TIP3    H162966   6.596   3.980   3.280  0.7355  0.8741 -1.1173
13825TIP3    H262967   6.528   4.020   3.409 -0.6605 -0.2868 -1.4621
13826TIP3   OH262968   3.907   2.500   0.165  0.0342 -0.1048  0.0639
13826TIP3    H162969   3.917   2.405   0.172  0.1467 -0.3108 -2.2391
13826TIP3    H262970   3.877   2.515   0.075  0.9042  2.1129  0.0797
13827TIP3   OH262971   0.764   0.998   1.427 -1.0188  0.1562  0.0932
13827TIP3    H162972   0.745   1.077   1.477  1.6201  3.0872 -2.9658
13827TIP3    H262973   0.808   0.940   1.489  1.3678  3.1969  1.5094
13828TIP3   OH262974   2.790   6.454  13.267  0.4471 -0.2230  0.2372
13828TIP3    H162975   2.736   6.498  13.333  0.7818 -0.6681  0.8090
13828TIP3    H262976   2.734   6.452  13.188  1.5246  4.2209 -0.9207
13829TIP3   OH262977   2.999   0.026  14.854  0.2074  0.2116  0.1662
13829TIP3    H162978   2.927   0.020  14.791 -0.5973  0.6952  1.0264
13829TIP3    H262979   2.995   0.115  14.888  1.6662  0.4812 -0.2760
13830TIP3   OH262980   4.000   2.337  14.101 -0.0825 -0.2732 -0.6146
13830TIP3    H162981   4.000   2.259  14.156 -0.7605  1.5187  2.1401
13830TIP3    H262982   3.907   2.359  14.090  0.0967  0.1458 -1.3515
13831TIP3   OH262983   3.748   1.326   1.145  0.3840 -0.3578  0.2220
13831TIP3    H162984   3.802   1.312   1.067  0.9454  1.1037  0.3119
13831TIP3    H262985   3.659   1.339   1.111  0.2249 -1.8229  0.0040
13832TIP3   OH262986   5.950   1.283  11.988  0.2953 -0.4708 -0.1126
13832TIP3    H162987   5.989   1.201  12.020  1.7055 -0.5599 -1.8875
13832TIP3    H262988   5.988   1.350  12.044  0.9272 -0.8345 -0.0874
13833TIP3   OH262989   6.530   4.818   4.101  0.1505  0.1918 -0.3371
13833TIP3    H162990   6.618   4.848   4.121 -0.3729  1.8389 -0.3282
13833TIP3    H262991   6.473   4.889   4.132 -0.9680  0.8282 -3.4705
13834TIP3   OH262992   4.757   0.328   0.565 -0.1463  0.1790 -0.1667
13834TIP3    H162993   4.669   0.296   0.586 -0.6501  0.4571 -1.7064
13834TIP3    H262994   4.753   0.349   0.472  1.6238 -0.0179 -0.3267
13835TIP3   OH262995   3.783   4.323  14.947  0.1255 -0.2864 -0.6583
13835TIP3    H162996   3.870   4.305  14.911  1.4649  0.8369  1.8010
13835TIP3    H262997   3.752   4.399  14.897  1.6894  0.8775  0.0603
13836TIP3   OH262998   3.339   1.807   2.268 -0.2207 -0.0311  0.6897
13836TIP3    H162999   3.329   1.718   2.233  0.8943  0.0407  0.1227
13836TIP3    H263000   3.429   1.832   2.244 -0.4573  1.1829  0.9938
13837TIP3   OH263001   3.980   4.065  16.984 -0.0693  0.4502  0.4812
13837TIP3    H163002   4.071   4.056  17.013  0.6458  0.4416 -1.5862
13837TIP3    H263003   3.964   3.987  16.932 -0.7288  1.1702 -0.4290
13838TIP3   OH263004   6.020   5.765   2.864 -0.4028  0.0680  0.3648
13838TIP3    H163005   5.947   5.707   2.886 -1.0756  1.1629  1.1328
13838TIP3    H263006   6.060   5.786   2.948  1.8349 -1.7662 -0.1535
13839TIP3   OH263007   2.960   0.205  16.322 -0.1562 -0.1063 -0.7470
13839TIP3    H163008   3.006   0.286  16.304  0.5102  0.6641  3.3935
13839TIP3    H263009   3.027   0.145  16.354 -0.9236 -1.7564 -2.0361
13840TIP3   OH263010   3.129   3.096   4.083  0.6005  0.2558 -0.3596
13840TIP3    H163011   3.065   3.027   4.062 -1.7294  1.5906  1.7488
13840TIP3    H263012   3.099   3.172   4.034 -1.3989  1.7358  2.8450
13841TIP3   OH263013   4.559   4.221  17.115  0.1068 -0.2024  0.1076
13841TIP3    H163014   4.518   4.270  17.043 -1.3487 -1.7359 -0.1665
13841TIP3    H263015   4.557   4.281  17.189  0.7278  1.0525 -0.8452
13842TIP3   OH263016   2.429   0.995  12.169 -0.1964 -0.1277 -0.4311
13842TIP3    H163017   2.384   0.920  12.208 -0.9009  0.4887 -0.0423
13842TIP3    H263018   2.479   0.958  12.096 -1.5622 -0.7956 -1.0590
13843TIP3   OH263019   5.995   5.564   1.852 -0.5590 -0.2520 -0.0195
13843TIP3    H163020   6.036   5.478   1.855 -0.8538 -0.4642 -1.5072
13843TIP3    H263021   5.989   5.591   1.944  0.6325 -1.2793  0.3817
13844TIP3   OH263022   5.829   6.240  14.402  0.4457 -0.0907  0.4503
13844TIP3    H163023   5.873   6.311  14.357  1.8812 -1.7626 -0.9340
13844TIP3    H263024   5.775   6.283  14.469 -1.1787  2.4744 -2.2814
13845TIP3   OH263025   5.646   0.442  12.873  0.4698 -0.5817 -0.5002
13845TIP3    H163026   5.707   0.375  12.843 -0.7915 -1.0814 -2.1477
13845TIP3    H263027   5.561   0.397  12.876 -0.1677  0.5913 -0.2673
13846TIP3   OH263028   1.418   6.385   1.144  0.0589 -0.5709  0.2703
13846TIP3    H163029   1.475   6.450   1.185  0.5930 -1.5753  1.1877
13846TIP3    H263030   1.416   6.410   1.052  0.7550  0.3770  0.4938
13847TIP3   OH263031   2.897   3.042   2.876 -0.0416 -0.5487 -0.2486
13847TIP3    H163032   2.847   3.036   2.795 -1.3559  0.7172  0.4044
13847TIP3    H263033   2.902   3.136   2.894  0.6716 -0.7783  0.8644
13848TIP3   OH263034   5.710   4.287   2.695 -0.7605 -0.4269 -0.7923
13848TIP3    H163035   5.783   4.237   2.657 -0.0843  1.8767 -2.7076
13848TIP3    H263036   5.742   4.311   2.782  0.5148 -0.0392 -1.3350
13849TIP3   OH263037   6.744   1.158  12.345 -0.2276 -0.4272  0.2734
13849TIP3    H163038   6.655   1.123  12.354 -0.2357 -0.3808  0.3725
13849TIP3    H263039   6.741   1.242  12.391 -0.3204 -0.0997 -0.3122
13850TIP3   OH263040   1.447   1.016  12.030 -0.3222  0.2836 -0.6882
13850TIP3    H163041   1.402   1.074  12.092 -1.1750 -1.1097  0.0373
13850TIP3    H263042   1.455   1.069  11.951 -0.5424  1.6007  0.1254
13851TIP3   OH263043   0.283   6.762   5.681  0.0600  0.3754 -0.8978
13851TIP3    H163044   0.238   6.775   5.764  0.7682  1.5839 -0.6798
13851TIP3    H263045   0.231   6.811   5.617 -0.1438 -0.0443 -1.0557
13852TIP3   OH263046   3.991   0.941   2.186 -0.2129  0.5586 -0.0798
13852TIP3    H163047   3.929   0.939   2.259  1.5009 -0.6004  1.4468
13852TIP3    H263048   4.043   0.861   2.197  0.7627  0.8645 -2.0170
13853TIP3   OH263049   0.400   3.692   1.993  0.2729  0.1707 -0.0677
13853TIP3    H163050   0.309   3.665   1.979  0.5135 -1.0310  0.5277
13853TIP3    H263051   0.399   3.787   1.981 -1.0356  0.1623 -0.1822
13854TIP3   OH263052   3.287   5.622  12.507 -0.2008  0.3323  0.3554
13854TIP3    H163053   3.376   5.630  12.473  0.5368  1.1151  2.2941
13854TIP3    H263054   3.251   5.544  12.465  1.5323 -0.2018 -0.1990
13855TIP3   OH263055   6.535   3.480   0.371 -0.6526 -0.4481 -0.3086
13855TIP3    H163056   6.584   3.549   0.327  0.5990 -0.8683  0.3628
13855TIP3    H263057   6.464   3.526   0.415 -2.5838 -0.1209 -3.4942
13856TIP3   OH263058   4.205   0.496   2.668  0.0280  0.1460 -0.6671
13856TIP3    H163059   4.219   0.576   2.719 -0.4902  0.7456 -1.4458
13856TIP3    H263060   4.258   0.430   2.712 -1.1657  0.3946  1.2607
13857TIP3   OH263061   1.705   5.307  15.713  0.3176  0.0324 -0.7032
13857TIP3    H163062   1.671   5.311  15.624 -1.0764 -0.0874 -0.2052
13857TIP3    H263063   1.789   5.263  15.705 -0.4050 -1.2163 -1.8014
13858TIP3   OH263064   2.292   0.311   1.899  0.0029 -0.4325  0.4233
13858TIP3    H163065   2.210   0.317   1.947 -0.6678 -0.7372 -0.6467
13858TIP3    H263066   2.325   0.224   1.918 -0.2660 -0.5588  0.3092
13859TIP3   OH263067   6.701   6.035  15.837 -0.2838  0.2156 -0.1859
13859TIP3    H163068   6.780   6.020  15.785  1.1221 -1.7176  2.2888
13859TIP3    H263069   6.692   6.130  15.841  1.9531  0.4924 -0.4909
13860TIP3   OH263070   2.893   4.298  15.771  0.5149  0.2390  0.2435
13860TIP3    H163071   2.905   4.356  15.696 -0.0901  0.0840  0.0190
13860TIP3    H263072   2.962   4.233  15.762  0.6586  0.4235  0.0120
13861TIP3   OH263073   5.934   5.235   2.301  0.2752  0.3274 -0.1889
13861TIP3    H163074   5.981   5.301   2.352 -0.6292  2.0457 -1.4822
13861TIP3    H263075   5.988   5.222   2.223  0.1341 -0.0217 -0.2320
13862TIP3   OH263076   2.856   4.180  10.726 -0.3673  0.5602  0.2346
13862TIP3    H163077   2.808   4.098  10.738  1.4707 -0.4996  0.6941
13862TIP3    H263078   2.836   4.207  10.636 -1.7888  0.1834  0.4088
13863TIP3   OH263079   1.992   5.195   0.181  0.0543 -0.2776  0.3557
13863TIP3    H163080   2.062   5.159   0.127  1.4027 -0.4555  2.1337
13863TIP3    H263081   1.921   5.213   0.120  1.7558  0.2366 -1.5775
13864TIP3   OH263082   0.968   5.541  11.746  0.0331 -0.1370 -0.0625
13864TIP3    H163083   0.979   5.483  11.670  0.1435  0.6009 -0.6188
13864TIP3    H263084   0.953   5.628  11.708 -0.6791  0.1133  0.7528
13865TIP3   OH263085   6.779   4.600  12.043 -0.0626 -0.2326  0.4347
13865TIP3    H163086   6.805   4.524  11.991 -0.0862  0.8625 -1.2624
13865TIP3    H263087   6.686   4.612  12.022  0.0800  0.5817  0.2295
13866TIP3   OH263088   2.920   4.345  13.832  0.6333  0.4215 -0.2225
13866TIP3    H163089   2.916   4.287  13.907 -1.5209 -0.1372 -0.7245
13866TIP3    H263090   2.954   4.428  13.867 -2.6436  0.9868  1.9715
13867TIP3   OH263091   6.397   6.823   6.006  0.1098 -0.0926  0.2644
13867TIP3    H163092   6.486   6.853   6.024  0.5913 -2.0441  1.4027
13867TIP3    H263093   6.383   6.844   5.913  1.5340  0.7636  0.2183
13868TIP3   OH263094   0.530   2.267   6.659  0.1308  0.3620  0.3446
13868TIP3    H163095   0.450   2.256   6.711 -1.0153  1.0428 -1.1890
13868TIP3    H263096   0.587   2.321   6.713 -1.3060  1.6425  0.6476
13869TIP3   OH263097   2.894   3.878   0.955 -0.3483  0.3558  0.0133
13869TIP3    H163098   2.915   3.966   0.987  0.8794  0.2267 -0.3910
13869TIP3    H263099   2.966   3.857   0.896  1.8444 -2.6786  3.3438
13870TIP3   OH263100   5.561   6.301  16.434  0.1258 -0.1370  0.1618
13870TIP3    H163101   5.498   6.368  16.409 -0.1410 -0.5124 -0.1871
13870TIP3    H263102   5.581   6.320  16.526 -0.4957 -0.0128  0.2761
13871TIP3   OH263103   4.436   0.716  16.427  0.2126 -0.5634  0.3102
13871TIP3    H163104   4.386   0.711  16.508 -0.4882  1.2006  0.0107
13871TIP3    H263105   4.498   0.787  16.441 -1.0316  0.9061 -1.2559
13872TIP3   OH263106   6.047   4.539  16.296 -0.0691  0.3593 -0.2659
13872TIP3    H163107   6.071   4.465  16.240 -0.1062 -0.3798  0.6457
13872TIP3    H263108   5.955   4.555  16.277  0.0776  0.5250 -0.8533
13873TIP3   OH263109   4.556   3.931  13.784 -0.5090  0.4523 -0.1516
13873TIP3    H163110   4.562   4.007  13.842  0.0266  0.0222  0.3742
13873TIP3    H263111   4.462   3.914  13.776 -0.6233  1.0291 -0.0869
13874TIP3   OH263112   1.644   6.554   5.595 -0.0421 -0.0065 -0.1000
13874TIP3    H163113   1.591   6.569   5.517  2.6994  0.6835 -1.9812
13874TIP3    H263114   1.658   6.459   5.597 -2.6294 -0.4456  1.4376
13875TIP3   OH263115   6.034   4.430  13.315  0.0665 -0.6572 -0.3090
13875TIP3    H163116   6.014   4.519  13.342  2.7309 -0.0544  0.0103
13875TIP3    H263117   5.953   4.381  13.330 -0.9131  1.3086  1.2612
13876TIP3   OH263118   6.626   6.344   0.628 -0.0167  0.1378  0.2197
13876TIP3    H163119   6.605   6.414   0.566 -2.8427 -0.3203  0.4975
13876TIP3    H263120   6.663   6.389   0.704  0.6339  1.0269 -0.6079
13877TIP3   OH263121   4.628   0.693  15.143  0.2331  0.2237  0.1079
13877TIP3    H163122   4.575   0.731  15.073 -0.8064 -2.2210 -0.5415
13877TIP3    H263123   4.689   0.635  15.097  0.1633 -0.7122  1.1479
13878TIP3   OH263124   5.782   2.866  16.797  0.0819  0.0742  0.0411
13878TIP3    H163125   5.710   2.873  16.860 -0.9708  0.4536 -1.1830
13878TIP3    H263126   5.814   2.776  16.808 -0.3462  0.0110  0.8368
13879TIP3   OH263127   0.935   5.223  13.332  0.0739 -0.1539  0.3281
13879TIP3    H163128   0.911   5.187  13.246 -0.5401  1.8923 -0.4328
13879TIP3    H263129   1.024   5.256  13.320  0.5715 -1.2335  0.9647
13880TIP3   OH263130   3.609   4.837   5.454  0.6353  0.3236  0.4623
13880TIP3    H163131   3.551   4.843   5.530 -0.6712  0.2627 -0.4945
13880TIP3    H263132   3.639   4.746   5.454  1.0027  0.4351  1.1423
13881TIP3   OH263133   4.766   4.300   1.184 -0.2702  0.1336 -0.2615
13881TIP3    H163134   4.687   4.298   1.237  0.1313  0.3416  0.3553
13881TIP3    H263135   4.769   4.389   1.148 -1.1228 -0.3320 -1.5453
13882TIP3   OH263136   3.145   1.634  10.790  0.4264  0.1354 -0.2767
13882TIP3    H163137   3.053   1.608  10.797  0.5757 -0.2894  0.1420
13882TIP3    H263138   3.171   1.608  10.702  0.4670 -0.8023  0.0006
13883TIP3   OH263139   4.781   0.879   3.340 -0.1384  0.2913  0.2339
13883TIP3    H163140   4.742   0.940   3.402 -2.3659 -0.6781 -0.1389
13883TIP3    H263141   4.860   0.848   3.384 -1.1834  0.2760  2.2146
13884TIP3   OH263142   5.596   2.721  15.481  0.0918 -0.0368  0.5423
13884TIP3    H163143   5.513   2.764  15.502 -0.1897 -1.2591  2.1238
13884TIP3    H263144   5.571   2.637  15.444  0.6475  0.2681 -0.5885
13885TIP3   OH263145   1.545   3.412  15.539  0.5986  0.0144  0.0254
13885TIP3    H163146   1.581   3.341  15.591  1.5141 -1.3018 -2.2768
13885TIP3    H263147   1.619   3.471  15.523 -0.1797  1.6688  2.0350
13886TIP3   OH263148   3.456   6.214  12.390 -0.2147 -0.2711 -0.3744
13886TIP3    H163149   3.473   6.308  12.394  0.6367 -0.4450  0.7525
13886TIP3    H263150   3.375   6.202  12.439 -0.8267 -0.0375 -1.2996
13887TIP3   OH263151   1.090   5.159  12.104  0.5215  0.1561 -0.0483
13887TIP3    H163152   1.058   5.234  12.054 -0.2773  1.0997  1.7993
13887TIP3    H263153   1.047   5.083  12.063  1.9235  0.5355 -2.4270
13888TIP3   OH263154   6.380   1.039   3.345  0.3221 -0.1778 -0.6226
13888TIP3    H163155   6.362   1.071   3.257  1.2454  1.7378 -0.1583
13888TIP3    H263156   6.469   1.069   3.364  0.5329 -1.4728  0.5825
13889TIP3   OH263157   1.613   6.260   0.668  0.3543  0.3182  0.5881
13889TIP3    H163158   1.643   6.211   0.744 -0.1593  0.3382  0.8058
13889TIP3    H263159   1.687   6.317   0.645  0.7990 -0.2445  0.5934
13890TIP3   OH263160   2.116   3.800  10.830 -0.9073 -0.2018 -0.3104
13890TIP3    H163161   2.057   3.874  10.844 -0.3856 -0.1854  2.4896
13890TIP3    H263162   2.060   3.723  10.831 -1.0315 -0.1281  1.5376
13891TIP3   OH263163   0.437   5.956  14.087 -0.4128 -0.4076 -0.4634
13891TIP3    H163164   0.493   5.950  14.164 -2.5137  0.3169  1.2515
13891TIP3    H263165   0.458   6.042  14.049 -1.2197  0.4621  0.9478
13892TIP3   OH263166   2.579   4.731   5.542 -0.2626 -0.6776 -0.5327
13892TIP3    H163167   2.531   4.673   5.483 -0.5182  0.1686 -1.1716
13892TIP3    H263168   2.653   4.678   5.571  0.2276 -0.9315 -2.1204
13893TIP3   OH263169   0.221   0.246  13.668  0.1499  0.3265 -0.2446
13893TIP3    H163170   0.161   0.182  13.628  0.2134 -0.6851  1.2067
13893TIP3    H263171   0.177   0.330  13.657  0.3630  0.1961 -2.7893
13894TIP3   OH263172   5.085   6.100   1.178 -0.2466 -0.3258 -0.4126
13894TIP3    H163173   5.062   6.008   1.194 -0.6080 -0.0058  1.0342
13894TIP3    H263174   5.031   6.149   1.240  1.1564  0.7456  0.0051
13895TIP3   OH263175   0.478   1.338   1.646 -0.4404  0.2717  0.3715
13895TIP3    H163176   0.557   1.322   1.595  0.0175 -0.1787  1.2106
13895TIP3    H263177   0.459   1.254   1.687 -2.7236 -0.3417 -1.6701
13896TIP3   OH263178   5.450   4.334  11.813  0.5612 -0.6116 -0.1707
13896TIP3    H163179   5.536   4.358  11.846  0.3008  1.1011 -0.6185
13896TIP3    H263180   5.428   4.403  11.751 -1.2731 -0.8328  0.1649
13897TIP3   OH263181   1.872   2.850  16.005 -0.3246  0.4610 -0.6459
13897TIP3    H163182   1.876   2.755  16.012  2.1703  0.5810  0.3527
13897TIP3    H263183   1.922   2.882  16.079 -1.2695  2.5821 -0.8633
13898TIP3   OH263184   5.946   0.668   0.733 -0.1727 -0.3772  0.3757
13898TIP3    H163185   5.908   0.755   0.725  0.9913  0.1821  0.6864
13898TIP3    H263186   6.041   0.683   0.736  0.1358 -1.7640 -1.0731
13899TIP3   OH263187   3.681   4.320  13.520 -0.1795 -0.6003 -0.6466
13899TIP3    H163188   3.757   4.336  13.463 -0.9359 -0.0678 -1.5447
13899TIP3    H263189   3.711   4.254  13.582  1.1844 -0.0160 -0.6471
13900TIP3   OH263190   4.070   1.704  11.087 -0.6408  0.8581 -0.1233
13900TIP3    H163191   4.030   1.643  11.025 -0.2975  0.2333  0.2577
13900TIP3    H263192   4.074   1.787  11.040 -0.7072  0.4786 -0.8154
13901TIP3   OH263193   0.417   1.727   3.517 -0.3844  0.0433  0.1565
13901TIP3    H163194   0.424   1.821   3.497 -0.0474 -0.3752 -1.8592
13901TIP3    H263195   0.496   1.708   3.566  0.8999  0.3091 -1.7181
13902TIP3   OH263196   4.916   4.975   0.019  0.1655  0.1338 -0.3219
13902TIP3    H163197   4.997   4.967  -0.030  1.1820 -0.1768  1.3208
13902TIP3    H263198   4.872   4.891   0.007  1.2810 -0.6329  0.7378
13903TIP3   OH263199   4.658   2.429  17.060  0.5298 -0.4161  0.0404
13903TIP3    H163200   4.619   2.497  17.115 -1.1215 -0.7595 -0.6511
13903TIP3    H263201   4.742   2.410  17.101 -0.4524 -0.3560  2.1869
13904TIP3   OH263202   5.098   5.557   2.165  0.5936  0.1772 -0.2106
13904TIP3    H163203   5.074   5.627   2.104  3.5280  2.8587  1.4555
13904TIP3    H263204   5.121   5.484   2.107 -0.4135  1.2775 -2.1353
13905TIP3   OH263205   5.363   2.344  14.241 -0.0530 -0.2145 -0.0374
13905TIP3    H163206   5.402   2.382  14.319  0.8869  0.0604 -0.6263
13905TIP3    H263207   5.395   2.254  14.239  1.7852  0.4042 -1.2755
13906TIP3   OH263208   6.769   6.290  13.809  0.9046  0.3380  0.8472
13906TIP3    H163209   6.790   6.383  13.808 -1.7491  1.0127  1.2203
13906TIP3    H263210   6.727   6.275  13.894 -1.6138 -0.4135 -0.4227
13907TIP3   OH263211   0.495   0.916   4.956  0.0608  0.0469  0.0714
13907TIP3    H163212   0.512   0.864   5.035 -0.1167 -0.0449  0.0486
13907TIP3    H263213   0.579   0.918   4.910  0.4142  0.9003  0.7338
13908TIP3   OH263214   0.750   0.085  13.390  0.4410 -0.2102 -0.6824
13908TIP3    H163215   0.729   0.043  13.307  0.0271  0.6480 -1.0184
13908TIP3    H263216   0.724   0.176  13.379  1.7800  0.2599 -0.1287
13909TIP3   OH263217   6.396   4.198   2.177  0.5289 -0.3888  0.1672
13909TIP3    H163218   6.434   4.278   2.214  0.4177  0.0925 -0.7167
13909TIP3    H263219   6.428   4.196   2.087  0.1810 -1.1216  0.0534
13910TIP3   OH263220   5.888   0.740   1.832 -0.1488  0.1018 -0.5519
13910TIP3    H163221   5.842   0.808   1.782 -0.7771 -0.2476 -0.4626
13910TIP3    H263222   5.841   0.660   1.812 -0.0088 -0.1503  0.0961
13911TIP3   OH263223   0.532   2.328   1.451 -0.2369  0.4125 -0.1027
13911TIP3    H163224   0.465   2.397   1.448 -0.5371  0.1594  0.5854
13911TIP3    H263225   0.493   2.258   1.502  0.0554 -0.3021 -0.8375
13912TIP3   OH263226   5.026   2.466  11.237  0.3477 -0.4701  0.1319
13912TIP3    H163227   5.028   2.553  11.278  2.5714  0.9943 -2.6731
13912TIP3    H263228   5.096   2.417  11.282 -0.0414 -0.3776  0.8568
13913TIP3   OH263229   0.630   2.098  16.409  0.5311 -0.0350  0.0541
13913TIP3    H163230   0.572   2.074  16.480  1.8855 -1.3016  0.7820
13913TIP3    H263231   0.713   2.120  16.451  0.8841  0.8464 -1.0219
13914TIP3   OH263232   3.397   5.376  15.716  0.5843  0.5449  0.4607
13914TIP3    H163233   3.462   5.398  15.783  0.9712 -1.2258  0.7029
13914TIP3    H263234   3.441   5.393  15.633  1.3222 -0.5014  0.6219
13915TIP3   OH263235   5.696   0.567  13.421 -0.2043 -0.1834 -0.2111
13915TIP3    H163236   5.753   0.643  13.412 -0.3856  0.1817  1.4746
13915TIP3    H263237   5.609   0.600  13.401 -0.6833  0.7466  2.9608
13916TIP3   OH263238   6.086   5.064  11.302  0.8452  0.0764 -0.7133
13916TIP3    H163239   6.041   4.998  11.355  0.2744 -0.5446 -1.9404
13916TIP3    H263240   6.115   5.129  11.366  0.5529 -0.8552  0.4131
13917TIP3   OH263241   5.064   5.336  12.578  0.0135  0.1776  0.7321
13917TIP3    H163242   4.989   5.315  12.634 -0.0565  0.6971  0.8385
13917TIP3    H263243   5.057   5.274  12.505  0.6460 -1.1686  1.7492
13918TIP3   OH263244   3.502   1.858   0.788 -0.5512 -0.3372 -0.3718
13918TIP3    H163245   3.461   1.916   0.724 -1.3154  0.5045  0.8347
13918TIP3    H263246   3.455   1.876   0.870  1.7595  0.1513  0.9250
13919TIP3   OH263247   2.905   1.092  15.189  0.4783 -0.3542 -0.5134
13919TIP3    H163248   2.838   1.042  15.236  0.3910 -0.3510 -0.6332
13919TIP3    H263249   2.949   1.027  15.135  0.9819 -0.4698  0.0227
13920TIP3   OH263250   4.555   2.118   5.536  0.1325  0.2462 -0.0089
13920TIP3    H163251   4.644   2.090   5.556  1.3661  2.5120 -1.7560
13920TIP3    H263252   4.536   2.079   5.451 -0.5024 -0.1122  0.2929
13921TIP3   OH263253   6.682   3.367  13.663 -0.3330  0.0311 -0.1183
13921TIP3    H163254   6.686   3.410  13.748  0.6851 -1.3428  0.5737
13921TIP3    H263255   6.617   3.297  13.674  1.6153 -1.8191  0.4178
13922TIP3   OH263256   6.421   0.114   0.671 -0.4513  0.1917 -0.1677
13922TIP3    H163257   6.345   0.132   0.726  0.1896  0.4297  0.6543
13922TIP3    H263258   6.487   0.078   0.731 -0.3943 -1.3597 -1.1212
13923TIP3   OH263259   6.060   2.846  16.964  0.0529  0.1922  0.5576
13923TIP3    H163260   6.151   2.817  16.975  0.2440  0.6693  0.2522
13923TIP3    H263261   6.017   2.772  16.920  0.2710 -0.0694  0.7756
13924TIP3   OH263262   1.893   5.117   3.613  0.1093 -0.5797  0.6533
13924TIP3    H163263   1.848   5.050   3.665  2.2396 -3.3181 -0.7781
13924TIP3    H263264   1.982   5.083   3.602  1.0973  2.1793 -0.8353
13925TIP3   OH263265   3.489   6.564  11.582  0.2075  0.1230  0.0790
13925TIP3    H163266   3.438   6.492  11.620  2.6430 -1.4298  0.6699
13925TIP3    H263267   3.432   6.640  11.588 -2.1056 -1.5334  0.3880
13926TIP3   OH263268   3.737   1.427   3.932  0.1057  0.0151 -0.0070
13926TIP3    H163269   3.797   1.439   4.006 -0.0436 -1.3770  0.3852
13926TIP3    H263270   3.768   1.347   3.889 -1.1729 -0.4812 -0.0657
13927TIP3   OH263271   3.312   4.345  14.969 -0.2442 -0.5240 -0.1180
13927TIP3    H163272   3.237   4.404  14.963 -0.0528 -0.2247  0.4186
13927TIP3    H263273   3.281   4.272  15.022 -0.8186 -1.4524 -1.6413
13928TIP3   OH263274   1.477   3.167   3.489 -0.1765  0.3267 -0.4540
13928TIP3    H163275   1.436   3.241   3.443 -0.7974 -1.0516 -2.2701
13928TIP3    H263276   1.435   3.090   3.452  2.0303 -1.0536 -0.2915
13929TIP3   OH263277   4.853   2.249  12.041 -0.1050  0.0748  0.5071
13929TIP3    H163278   4.780   2.265  12.100  0.8613 -0.3115  1.8653
13929TIP3    H263279   4.859   2.153  12.036  0.0927  0.1045  0.1262
13930TIP3   OH263280   5.627   5.588  12.141  0.0232  0.1387  0.2301
13930TIP3    H163281   5.559   5.579  12.208  2.8161  0.6534  3.4065
13930TIP3    H263282   5.617   5.677  12.108 -2.1224 -0.5008 -1.0495
13931TIP3   OH263283   1.608   0.046  11.878  0.1892 -0.1247 -0.1916
13931TIP3    H163284   1.697   0.013  11.888  0.0925 -0.1415  0.6361
13931TIP3    H263285   1.619   0.134  11.840  0.6338  0.4021  1.1153
13932TIP3   OH263286   1.503   4.136  11.727  0.2369  0.3076  0.7151
13932TIP3    H163287   1.506   4.119  11.633 -3.1471 -2.3081  0.8774
13932TIP3    H263288   1.482   4.229  11.734  0.0027  0.4271 -1.1298
13933TIP3   OH263289   3.562   4.326  10.908  0.5100 -0.7374 -0.4408
13933TIP3    H163290   3.577   4.396  10.972  1.1903 -3.0390  2.1253
13933TIP3    H263291   3.469   4.333  10.887  0.8364  1.7635 -1.4158
13934TIP3   OH263292   5.207   1.345   3.466  0.7659  0.3297  0.4867
13934TIP3    H163293   5.297   1.316   3.481  1.7398  2.0647 -1.4747
13934TIP3    H263294   5.214   1.406   3.393 -1.9365  1.0461  0.7399
13935TIP3   OH263295   2.802   6.156  16.404 -0.1638 -0.7450  0.0389
13935TIP3    H163296   2.759   6.142  16.320  0.3961 -0.6969 -0.2618
13935TIP3    H263297   2.731   6.177  16.465 -0.7209 -2.0725 -0.1284
13936TIP3   OH263298   3.477   1.414  11.918  0.2994 -0.6533 -0.3060
13936TIP3    H163299   3.395   1.430  11.871 -0.8731 -1.5771  1.3001
13936TIP3    H263300   3.503   1.327  11.891 -0.4582 -1.2472  0.8092
13937TIP3   OH263301   5.568   1.926  16.293 -0.1581  0.1112  0.2130
13937TIP3    H163302   5.502   1.950  16.227 -0.7653 -2.3653 -0.1715
13937TIP3    H263303   5.645   1.903  16.242  0.6373  1.7395  0.6080
13938TIP3   OH263304   6.771   3.679  14.110  0.0913  0.1632 -0.3646
13938TIP3    H163305   6.769   3.632  14.193  1.9865 -1.6559 -1.2633
13938TIP3    H263306   6.799   3.768  14.133 -1.9329  0.4514  1.1860
13939TIP3   OH263307   4.506   1.566  14.679  0.3395  0.0259 -0.0839
13939TIP3    H163308   4.443   1.599  14.744  0.2132 -0.4837  0.0523
13939TIP3    H263309   4.523   1.641  14.622 -0.3979  0.1620 -0.1281
13940TIP3   OH263310   4.320   2.663  15.187 -0.6183 -0.4898 -0.2097
13940TIP3    H163311   4.301   2.676  15.094 -0.2642 -0.1636 -0.2387
13940TIP3    H263312   4.400   2.610  15.189  0.2987  0.8247 -0.1171
13941TIP3   OH263313   3.115   5.358  12.847 -0.0569  0.6735 -0.2473
13941TIP3    H163314   3.168   5.314  12.913 -0.8288 -2.3060 -1.4470
13941TIP3    H263315   3.045   5.400  12.896  0.1502 -0.3244  0.9514
13942TIP3   OH263316   0.392   6.463  14.432  0.4018  0.5762 -0.7440
13942TIP3    H163317   0.413   6.510  14.512 -0.5682  1.5728 -1.0625
13942TIP3    H263318   0.375   6.531  14.367 -2.3866 -0.1233 -0.8738
13943TIP3   OH263319   3.081   3.054  15.143 -0.0164  0.0866 -0.4346
13943TIP3    H163320   3.022   3.129  15.140 -1.0143 -0.6850 -0.6652
13943TIP3    H263321   3.051   2.998  15.071 -0.5034 -1.4056  0.8904
13944TIP3   OH263322   5.511   1.085  16.016 -0.1876 -0.0041  0.1292
13944TIP3    H163323   5.587   1.042  16.056  0.4609  1.6058  0.6812
13944TIP3    H263324   5.480   1.147  16.082 -0.9792  0.5338 -0.7200
13945TIP3   OH263325   5.742   4.868  14.968  0.3180  0.8908  0.1119
13945TIP3    H163326   5.724   4.884  15.060 -0.7212 -0.9147  0.2670
13945TIP3    H263327   5.800   4.792  14.968  0.2850  0.8518 -0.7261
13946TIP3   OH263328   4.426   6.432  17.029 -0.1755  0.4468  0.1038
13946TIP3    H163329   4.394   6.372  17.096 -1.1740 -0.2216 -0.9421
13946TIP3    H263330   4.463   6.376  16.961 -0.9276  1.0128 -0.7925
13947TIP3   OH263331   6.701   6.519   2.669  0.1083  0.1352  0.8461
13947TIP3    H163332   6.668   6.570   2.596  0.0547  0.3840  1.0441
13947TIP3    H263333   6.635   6.450   2.682  0.6324 -0.5471 -0.0097
13948TIP3   OH263334   1.845   6.152  12.627 -0.0680 -0.2256 -0.6243
13948TIP3    H163335   1.804   6.158  12.713  0.6314 -1.8514 -0.1367
13948TIP3    H263336   1.773   6.168  12.565 -1.1669 -1.5737  0.2359
13949TIP3   OH263337   5.035   6.190   0.159  0.2134 -0.2928  0.3646
13949TIP3    H163338   5.018   6.255   0.228  1.3199  2.1285 -1.4732
13949TIP3    H263339   5.117   6.148   0.185  1.2418  1.4070  0.0890
13950TIP3   OH263340   6.753   5.865  14.452  0.0362  0.0373  0.4202
13950TIP3    H163341   6.827   5.808  14.476 -0.4003 -0.4172  0.7169
13950TIP3    H263342   6.770   5.947  14.497  1.7102  0.8730 -1.5921
13951TIP3   OH263343   6.094   5.590   1.553  0.1865  0.3270  0.2668
13951TIP3    H163344   6.045   5.568   1.632 -0.0352  0.7659  0.2509
13951TIP3    H263345   6.069   5.680   1.532 -0.5893 -0.1261 -0.9022
13952TIP3   OH263346   2.856   5.509   6.163  0.0849 -0.0385  0.6128
13952TIP3    H163347   2.864   5.579   6.227  1.7666 -0.6469  1.1366
13952TIP3    H263348   2.888   5.431   6.208 -1.0588 -1.0126 -0.1868
13953TIP3   OH263349   1.891   2.038  14.029 -0.2118  0.0859 -0.5635
13953TIP3    H163350   1.813   1.988  14.003 -0.5444  0.0947  0.3815
13953TIP3    H263351   1.860   2.096  14.099  0.3364  1.0975 -1.1368
13954TIP3   OH263352   1.889   2.289   2.162  0.7677  0.1329 -0.4045
13954TIP3    H163353   1.968   2.335   2.134  0.4159 -0.1011 -1.8706
13954TIP3    H263354   1.844   2.352   2.218 -0.0944  1.9658 -2.9766
13955TIP3   OH263355   3.405   2.561   2.365  0.3925  0.2769  0.0509
13955TIP3    H163356   3.403   2.586   2.273  3.1376  0.8208  0.0406
13955TIP3    H263357   3.488   2.514   2.376 -1.2105 -2.4813  1.6631
13956TIP3   OH263358   4.300   5.580   5.918 -0.6799 -0.3489 -0.0822
13956TIP3    H163359   4.350   5.506   5.952 -0.5903  0.0628  0.7069
13956TIP3    H263360   4.228   5.540   5.869  1.7630 -1.0287 -3.5153
13957TIP3   OH263361   6.658   6.216  16.306  0.4279 -0.0238 -0.0904
13957TIP3    H163362   6.587   6.163  16.341  1.0008 -1.6756 -1.2706
13957TIP3    H263363   6.640   6.220  16.212  0.9169  1.1007 -0.1496
13958TIP3   OH263364   2.744   2.596   3.919 -0.0892  0.2301 -0.4507
13958TIP3    H163365   2.779   2.626   4.003  2.8531 -0.4315 -1.2898
13958TIP3    H263366   2.744   2.500   3.927 -0.8364  0.1963 -0.8405
13959TIP3   OH263367   0.167   3.552  14.958  0.3172  0.2151 -0.1206
13959TIP3    H163368   0.100   3.620  14.949 -2.0003 -2.0601 -1.4186
13959TIP3    H263369   0.145   3.507  15.039  1.3559  0.4466  0.3138
13960TIP3   OH263370   5.256   3.036  15.118  0.2409 -0.2878  0.1897
13960TIP3    H163371   5.318   3.055  15.189  0.3322 -1.9115  0.5818
13960TIP3    H263372   5.311   3.031  15.039  0.7441 -2.2485  0.6132
13961TIP3   OH263373   0.154   1.533   5.696 -0.0859  0.4345  0.2561
13961TIP3    H163374   0.113   1.588   5.763  1.2247  2.1545 -0.2572
13961TIP3    H263375   0.239   1.509   5.734  0.1593  0.4237 -0.2924
13962TIP3   OH263376   2.610   1.097  15.874  0.2196 -0.3722  0.3901
13962TIP3    H163377   2.629   1.040  15.799  1.9128  0.3275  0.2570
13962TIP3    H263378   2.515   1.089  15.885 -0.0087 -0.9186 -1.4768
13963TIP3   OH263379   0.356   3.902  14.137  0.0904 -0.1210 -0.1865
13963TIP3    H163380   0.414   3.967  14.177 -0.5195 -0.5369  1.4590
13963TIP3    H263381   0.413   3.851  14.079  1.8374 -1.5326  2.5230
13964TIP3   OH263382   5.070   6.257   1.664  0.3035  0.5260 -0.0142
13964TIP3    H163383   5.013   6.204   1.720 -0.7282  2.4848  0.8928
13964TIP3    H263384   5.139   6.288   1.723 -0.7472  2.5353  0.2429
13965TIP3   OH263385   4.383   2.568  11.469 -0.3574  0.4525 -0.4848
13965TIP3    H163386   4.385   2.567  11.373 -1.5979 -1.2982 -0.5434
13965TIP3    H263387   4.473   2.547  11.495 -0.1028  0.5110 -1.2726
13966TIP3   OH263388   0.007   1.218   6.062 -0.6582  0.2404 -0.6580
13966TIP3    H163389  -0.021   1.204   6.152 -1.2680 -1.0111 -1.0243
13966TIP3    H263390   0.004   1.313   6.051 -3.6364  0.3088 -0.2695
13967TIP3   OH263391   0.263   3.411   1.786  0.4489 -0.1152 -0.5437
13967TIP3    H163392   0.251   3.495   1.742  1.2861 -0.2856 -1.1248
13967TIP3    H263393   0.324   3.429   1.857  0.4832 -0.1951 -0.5522
13968TIP3   OH263394   4.211   3.314   4.944 -0.5249  0.3254 -0.5741
13968TIP3    H163395   4.203   3.303   5.039 -1.2561 -1.2668 -0.7931
13968TIP3    H263396   4.139   3.373   4.921 -0.7104  0.2460 -0.2119
13969TIP3   OH263397   5.153   5.705   4.635  0.0438 -0.4806 -0.4698
13969TIP3    H163398   5.122   5.657   4.558  1.1820 -0.2819 -1.0749
13969TIP3    H263399   5.117   5.793   4.625  0.6403 -0.2961 -1.0814
13970TIP3   OH263400   1.012   5.794  14.061  0.4110  0.5302  0.2042
13970TIP3    H163401   1.004   5.722  14.124 -2.3429  0.6089  0.0707
13970TIP3    H263402   0.963   5.866  14.101 -1.1857  0.6619 -1.8376
13971TIP3   OH263403   5.709   0.437   5.414 -0.3435  0.5041  0.4126
13971TIP3    H163404   5.800   0.465   5.418 -0.2452  0.0866  2.7591
13971TIP3    H263405   5.658   0.516   5.435 -0.5796  0.8214 -1.2372
13972TIP3   OH263406   6.516   5.961   6.610 -0.0345  0.0225  0.1376
13972TIP3    H163407   6.429   5.929   6.585  0.1010 -0.1084 -0.1540
13972TIP3    H263408   6.577   5.893   6.583  0.1946  0.2607  0.0465
13973TIP3   OH263409   6.583   0.536  16.045 -0.6613  0.0735 -0.2435
13973TIP3    H163410   6.498   0.562  16.082 -0.4447 -1.3784  1.4015
13973TIP3    H263411   6.584   0.441  16.052  1.8647  0.1225  1.6206
13974TIP3   OH263412   2.316   3.824  16.491  0.5452 -0.0738  0.3187
13974TIP3    H163413   2.358   3.826  16.576  1.8311  1.2317 -0.3030
13974TIP3    H263414   2.311   3.916  16.464 -1.6273 -0.2781 -0.1784
13975TIP3   OH263415   6.809   5.886   2.758  0.2299  0.0670 -0.8918
13975TIP3    H163416   6.819   5.977   2.787  0.9061 -1.0249  2.6658
13975TIP3    H263417   6.724   5.859   2.793  0.4169 -0.9349 -1.1777
13976TIP3   OH263418   2.203   0.665   4.986 -0.1388 -0.1368  0.1172
13976TIP3    H163419   2.110   0.645   4.976 -0.1847  0.0249  0.2175
13976TIP3    H263420   2.247   0.597   4.936 -0.3190 -0.0897 -0.1093
13977TIP3   OH263421   2.352   0.821  13.690 -0.1498 -0.5777 -0.1050
13977TIP3    H163422   2.395   0.890  13.639 -2.8329  0.0218 -1.7195
13977TIP3    H263423   2.326   0.864  13.772 -0.8795  0.0571 -0.6606
13978TIP3   OH263424   3.838   1.581   5.966 -0.4296  0.4775  0.3183
13978TIP3    H163425   3.901   1.650   5.946  2.3067 -2.0390 -0.5344
13978TIP3    H263426   3.845   1.568   6.061  0.3164  0.3131  0.2521
13979TIP3   OH263427   0.300   2.754  14.549 -0.5351 -0.1654 -0.4664
13979TIP3    H163428   0.363   2.749  14.620 -3.2093 -1.1614  2.0106
13979TIP3    H263429   0.334   2.694  14.482  0.7884 -1.1651  1.0425
13980TIP3   OH263430   4.214   5.716   1.157  0.4949 -0.3079  0.1532
13980TIP3    H163431   4.293   5.735   1.209  0.0788  0.8826  0.3648
13980TIP3    H263432   4.188   5.800   1.121  0.7237 -1.0903 -1.9762
13981TIP3   OH263433   6.605   0.156   5.399 -0.3328 -0.0635 -0.2491
13981TIP3    H163434   6.543   0.224   5.372  1.2020  0.7771 -1.8696
13981TIP3    H263435   6.558   0.074   5.387 -1.3709  0.5798 -0.7319
13982TIP3   OH263436   3.726   0.925   1.528  0.3193 -0.3229  0.0843
13982TIP3    H163437   3.701   0.996   1.469  0.2807  0.3570  0.9019
13982TIP3    H263438   3.685   0.948   1.611  2.3718 -0.0092  1.0440
13983TIP3   OH263439   4.900   3.832  12.691  0.3300 -0.2278  0.6782
13983TIP3    H163440   4.919   3.921  12.660 -0.2037 -0.0222  0.9115
13983TIP3    H263441   4.811   3.815  12.660 -0.0339 -0.2017  1.6523
13984TIP3   OH263442   4.218   3.373  15.196  0.1559  0.1112 -0.1900
13984TIP3    H163443   4.242   3.285  15.168 -0.6937  0.0726 -0.8544
13984TIP3    H263444   4.252   3.431  15.127  1.7390  0.4355  0.8221
13985TIP3   OH263445   0.335   4.530   0.805 -0.4019  0.1823  0.5982
13985TIP3    H163446   0.422   4.553   0.770 -0.6404  0.6837  0.3267
13985TIP3    H263447   0.354   4.484   0.887  0.1132  0.7848  0.8285
13986TIP3   OH263448   5.097   3.836   3.023  0.2930 -0.0445  0.3070
13986TIP3    H163449   5.022   3.837   3.082  1.5917 -0.1169  2.0215
13986TIP3    H263450   5.104   3.745   2.994 -0.2207 -0.0508  0.1843
13987TIP3   OH263451   3.820   6.613  17.235  0.5380 -0.4051  0.0361
13987TIP3    H163452   3.860   6.609  17.323  0.9062 -0.3549 -0.1256
13987TIP3    H263453   3.726   6.623  17.252  0.6426 -0.0277  0.4249
13988TIP3   OH263454   1.688   4.756  12.567 -0.0225 -0.3508  0.2681
13988TIP3    H163455   1.626   4.774  12.637 -2.5071  0.2392 -1.9230
13988TIP3    H263456   1.731   4.839  12.550 -0.2326 -0.2223  0.3613
13989TIP3   OH263457   6.446   1.273  15.820 -0.0675  0.1247 -0.6100
13989TIP3    H163458   6.450   1.344  15.884  2.0047  2.1717 -2.8025
13989TIP3    H263459   6.535   1.239  15.817 -0.2503 -0.2642 -1.9956
13990TIP3   OH263460   5.925   1.919   4.636  0.1025  0.3713 -0.3700
13990TIP3    H163461   5.928   2.000   4.586  1.4698 -0.6273 -2.0205
13990TIP3    H263462   5.865   1.863   4.587  0.2951 -0.1067 -0.0678
13991TIP3   OH263463   3.611   1.644  12.833 -0.0427  0.6459 -0.4768
13991TIP3    H163464   3.527   1.602  12.846  0.5510  0.2143  2.6503
13991TIP3    H263465   3.676   1.574  12.842  0.8584  1.7440  3.0244
13992TIP3   OH263466   5.412   0.234  14.029  0.4625  0.3373 -0.1383
13992TIP3    H163467   5.413   0.145  13.992  1.3763 -0.0921  0.8573
13992TIP3    H263468   5.486   0.278  13.986  0.4615  0.3821 -0.0937
13993TIP3   OH263469   3.186   2.129  15.952 -0.0346 -0.0486  0.3198
13993TIP3    H163470   3.136   2.192  16.004 -0.2011  1.6981 -1.7850
13993TIP3    H263471   3.120   2.078  15.906  0.0201  1.2301 -1.2832
13994TIP3   OH263472   6.273   6.150   4.805 -0.6753  0.1092 -0.0784
13994TIP3    H163473   6.300   6.195   4.725  1.2490  1.3937  1.2037
13994TIP3    H263474   6.333   6.077   4.813  0.4995  1.1621  1.1857
13995TIP3   OH263475   4.697   4.240  13.991  0.1203  0.2368 -0.0964
13995TIP3    H163476   4.743   4.157  13.981 -1.2206 -0.6448  0.8425
13995TIP3    H263477   4.741   4.299  13.929  3.6890  0.0056  1.9419
13996TIP3   OH263478   4.272   3.375  11.552  0.5847 -0.1293 -0.2915
13996TIP3    H163479   4.260   3.385  11.647 -1.9003 -0.0052 -0.5728
13996TIP3    H263480   4.325   3.296  11.543 -0.4227 -1.0194  1.1558
13997TIP3   OH263481   2.374   0.128  12.554 -0.6776  0.3053 -0.3163
13997TIP3    H163482   2.439   0.105  12.488 -1.2786  1.9929 -1.5621
13997TIP3    H263483   2.365   0.049  12.608  1.1695 -0.4951 -1.1140
13998TIP3   OH263484   0.434   1.690  15.407  0.1094 -0.2576  0.1452
13998TIP3    H163485   0.465   1.780  15.408 -0.3804 -0.0799 -0.3198
13998TIP3    H263486   0.484   1.648  15.338 -1.4057  0.3071 -1.3591
13999TIP3   OH263487   3.495   6.445   2.584 -0.6702  0.1527  0.1908
13999TIP3    H163488   3.568   6.403   2.538  0.6063  1.8842  0.5272
13999TIP3    H263489   3.537   6.510   2.641 -2.4878  1.8707 -0.3041
14000TIP3   OH263490   0.604   3.336  14.007 -0.4217  0.3005 -0.2358
14000TIP3    H163491   0.625   3.409  13.949  1.2856  0.3372  0.3820
14000TIP3    H263492   0.562   3.271  13.951  0.3231  0.7237 -1.3118
14001TIP3   OH263493   4.833   1.089   4.958  0.8210 -0.2282  0.3553
14001TIP3    H163494   4.765   1.154   4.980  1.3790  0.7313 -0.6443
14001TIP3    H263495   4.828   1.081   4.863  0.6446 -1.8141  0.4871
14002TIP3   OH263496   3.885   6.731  11.745  0.1957  0.2089  0.2636
14002TIP3    H163497   3.951   6.729  11.676 -0.8088  1.3912 -0.7657
14002TIP3    H263498   3.901   6.814  11.790  0.1558 -0.0547  0.7692
14003TIP3   OH263499   6.461   5.033  16.256  0.6872  0.6404  0.2468
14003TIP3    H163500   6.481   5.017  16.348 -1.0481  1.1759  0.7458
14003TIP3    H263501   6.402   4.963  16.231  0.5165  0.9486 -0.2287
14004TIP3   OH263502   4.170   0.744  12.626 -0.3182 -1.2904 -0.8061
14004TIP3    H163503   4.134   0.710  12.708  1.9616 -0.2134  0.7252
14004TIP3    H263504   4.115   0.820  12.607  1.7396  1.2485  2.3088
14005TIP3   OH263505   4.808   1.063  12.646 -0.1212  0.2013  0.4416
14005TIP3    H163506   4.760   1.144  12.661  1.2196  1.4748 -1.5356
14005TIP3    H263507   4.753   1.014  12.585 -0.0070  0.5741  0.0348
14006TIP3   OH263508   4.310   3.011  14.155 -0.9558  0.1513  0.0369
14006TIP3    H163509   4.348   3.048  14.076  4.2914 -2.4387  0.8669
14006TIP3    H263510   4.341   3.069  14.225 -2.3017  0.3239  0.5085
14007TIP3   OH263511   2.743   1.754   4.790 -0.0508  0.1894 -0.2895
14007TIP3    H163512   2.684   1.680   4.773 -2.0719  1.5812  0.3641
14007TIP3    H263513   2.779   1.775   4.704  0.9290 -1.7901 -0.4263
14008TIP3   OH263514   3.859   1.503   2.249  0.8034 -0.2691 -0.7595
14008TIP3    H163515   3.823   1.534   2.165 -0.0106  0.4187 -0.1765
14008TIP3    H263516   3.841   1.409   2.249 -0.2073 -0.0894 -0.8805
14009TIP3   OH263517   6.629   4.531   3.545 -0.5346 -0.0360 -0.4344
14009TIP3    H163518   6.686   4.464   3.581  0.5285  1.0106 -0.1081
14009TIP3    H263519   6.596   4.493   3.463 -1.4855 -1.6897  0.6587
14010TIP3   OH263520   6.523   1.880  14.035 -0.3818 -0.5177 -0.3653
14010TIP3    H163521   6.585   1.909  14.102 -0.9443  0.5558 -0.2904
14010TIP3    H263522   6.497   1.793  14.064 -0.6343 -0.0625  0.8376
14011TIP3   OH263523   4.092   3.719   5.918 -0.1991  0.2384 -0.1683
14011TIP3    H163524   4.185   3.703   5.909  0.0085  1.2642 -0.0441
14011TIP3    H263525   4.068   3.680   6.003  0.0566 -0.2465 -0.3180
14012TIP3   OH263526   2.884   0.019  17.146 -0.4119 -0.4214 -0.5015
14012TIP3    H163527   2.847   0.074  17.078  1.2911  0.4480 -0.7665
14012TIP3    H263528   2.840   0.047  17.226 -0.8313  0.0974 -0.9093
14013TIP3   OH263529   0.353   1.602   4.324 -0.1590  0.4885 -0.3501
14013TIP3    H163530   0.302   1.636   4.251 -0.1667  1.9197  0.2916
14013TIP3    H263531   0.288   1.565   4.384 -0.1571 -0.6310 -1.0113
14014TIP3   OH263532   0.774   0.285  17.089  0.5417 -0.6374  0.1914
14014TIP3    H163533   0.755   0.266  16.998 -0.3134  0.7527  0.0557
14014TIP3    H263534   0.867   0.308  17.090  0.2654  0.5841 -0.5558
14015TIP3   OH263535   2.856   1.020  12.468  0.2752  0.1878  0.2976
14015TIP3    H163536   2.786   0.964  12.435  1.0793  0.6465 -2.4683
14015TIP3    H263537   2.811   1.098  12.501 -0.6668 -0.8785  1.6092
14016TIP3   OH263538   5.042   2.555   3.931 -0.3448 -0.4205  0.3254
14016TIP3    H163539   5.064   2.642   3.966 -0.1501 -1.3915  2.8384
14016TIP3    H263540   4.952   2.540   3.959 -0.8983 -0.4683 -1.3894
14017TIP3   OH263541   3.438   0.358   0.310 -0.1989  0.2946 -0.3086
14017TIP3    H163542   3.445   0.444   0.269 -1.7297  0.2220 -0.7726
14017TIP3    H263543   3.355   0.360   0.357 -0.9481 -1.4039 -1.4793
14018TIP3   OH263544   0.765   0.681   6.378 -0.4964  0.0677  0.3178
14018TIP3    H163545   0.709   0.728   6.439 -2.2348  0.4846 -1.4806
14018TIP3    H263546   0.796   0.749   6.317 -1.0802 -0.6966 -0.8769
14019TIP3   OH263547   6.691   4.807  12.303  0.5978  0.0319  0.3867
14019TIP3    H163548   6.775   4.838  12.269  1.2355 -2.6538 -0.8165
14019TIP3    H263549   6.659   4.746  12.235 -1.7857  0.1209  1.3203
14020TIP3   OH263550   4.562   2.834  14.122 -0.1147  0.2670 -0.1620
14020TIP3    H163551   4.521   2.918  14.142 -1.3641 -0.5750  1.0596
14020TIP3    H263552   4.610   2.811  14.202  1.0491  0.2768 -0.8495
14021TIP3   OH263553   6.496   5.414  13.539  0.3232 -0.2850 -0.7863
14021TIP3    H163554   6.503   5.462  13.456 -2.0297  1.7013  0.0620
14021TIP3    H263555   6.407   5.379  13.539 -0.2315  0.9861  1.4869
14022TIP3   OH263556   1.074   4.111  13.437 -0.7122 -0.3357  0.0752
14022TIP3    H163557   1.099   4.131  13.347 -0.4204 -0.7376  0.0655
14022TIP3    H263558   0.982   4.083  13.431 -0.5429 -0.8508 -0.1691
14023TIP3   OH263559   2.978   4.955   3.162 -0.0367  0.1306 -0.1371
14023TIP3    H163560   2.886   4.977   3.153  0.3891  1.6903 -1.2243
14023TIP3    H263561   2.992   4.945   3.256 -1.3914 -0.6022  0.0119
14024TIP3   OH263562   0.704   3.807  15.168 -0.1926 -0.2146  0.2032
14024TIP3    H163563   0.786   3.762  15.188 -0.1526 -0.0152  0.5018
14024TIP3    H263564   0.723   3.899  15.186 -0.4690 -0.1613  0.2234
14025TIP3   OH263565   1.167   3.177  12.772  0.3664  0.4698  0.0019
14025TIP3    H163566   1.084   3.146  12.736  1.0375 -1.7910  0.2666
14025TIP3    H263567   1.200   3.238  12.706  0.9805 -2.5946 -2.7998
14026TIP3   OH263568   0.814   1.637  14.680 -0.3841 -0.4637  0.2168
14026TIP3    H163569   0.890   1.587  14.653 -0.7263 -0.9506  0.1452
14026TIP3    H263570   0.764   1.650  14.600  0.4168  1.2622 -0.0510
14027TIP3   OH263571   1.326   3.841  13.654  0.1126 -0.1783 -0.3956
14027TIP3    H163572   1.403   3.791  13.679  0.2268  0.0003 -0.3853
14027TIP3    H263573   1.309   3.815  13.563 -0.6665 -1.2789  0.0506
14028TIP3   OH263574   0.324   5.519   2.207  0.1130 -0.0081 -0.1464
14028TIP3    H163575   0.333   5.424   2.212 -0.3637 -0.1187 -1.1694
14028TIP3    H263576   0.321   5.548   2.299 -2.1315 -1.2237  0.2349
14029TIP3   OH263577   6.069   4.164   5.642  0.1830  0.1643  0.0873
14029TIP3    H163578   6.045   4.213   5.564  0.8147 -0.2135 -0.3572
14029TIP3    H263579   6.028   4.211   5.714 -2.6965 -0.9408 -0.6824
14030TIP3   OH263580   0.760   1.920   2.150  0.0809 -0.0695  0.1780
14030TIP3    H163581   0.818   1.980   2.105  0.8672  0.4225  1.7777
14030TIP3    H263582   0.817   1.850   2.182 -0.4941 -0.5573  0.1603
14031TIP3   OH263583   3.729   2.021   4.844 -0.1261 -0.3459  0.4205
14031TIP3    H163584   3.707   2.023   4.751 -0.9676  1.7359  0.6190
14031TIP3    H263585   3.761   1.932   4.859 -0.7863 -0.9886 -1.6626
14032TIP3   OH263586   6.753   3.153   4.203  0.4699 -0.0870  0.2692
14032TIP3    H163587   6.806   3.206   4.263  1.1861  0.1540 -0.5542
14032TIP3    H263588   6.711   3.217   4.146 -2.1447 -0.1252  1.9534
14033TIP3   OH263589   3.791   5.272   6.922 -0.3305  0.4036  0.0488
14033TIP3    H163590   3.854   5.340   6.901  0.4838 -0.7490 -1.4024
14033TIP3    H263591   3.712   5.297   6.874  0.5164 -0.5283 -1.9500
14034TIP3   OH263592   1.750   3.243   6.014 -0.4171  0.0757 -0.6461
14034TIP3    H163593   1.698   3.242   6.095  0.3639 -0.0922 -0.1326
14034TIP3    H263594   1.764   3.150   5.995  1.5967  0.0908  0.4965
14035TIP3   OH263595   6.457   0.965   5.195  0.6847 -0.0121  0.2368
14035TIP3    H163596   6.521   0.923   5.252 -0.1829  0.3140  1.4966
14035TIP3    H263597   6.374   0.925   5.219 -0.0945  2.0239  1.1572
14036TIP3   OH263598   2.286   6.323   6.090  0.1149 -0.2370  0.5534
14036TIP3    H163599   2.305   6.415   6.069 -1.3126 -0.5565 -2.8925
14036TIP3    H263600   2.354   6.274   6.045 -1.4104 -0.9213 -1.1154
14037TIP3   OH263601   2.890   4.204  15.048 -0.3489 -0.2366  0.1289
14037TIP3    H163602   2.929   4.184  14.963 -1.3496  1.3463 -0.7460
14037TIP3    H263603   2.835   4.128  15.067  1.3329 -1.4747  0.3299
14038TIP3   OH263604   3.361   5.738   2.479  0.0909  0.1268 -0.3091
14038TIP3    H163605   3.266   5.725   2.473 -0.3783  1.5081  2.2755
14038TIP3    H263606   3.396   5.706   2.396 -2.4870 -1.6690 -0.8183
14039TIP3   OH263607   4.107   3.249   2.101  0.2095 -0.2799 -0.1299
14039TIP3    H163608   4.015   3.254   2.128  0.2871 -0.4262  0.1743
14039TIP3    H263609   4.152   3.215   2.179  0.3241 -1.4880 -0.6937
14040TIP3   OH263610   5.389   6.285  10.513 -0.0759 -0.0212  0.7259
14040TIP3    H163611   5.473   6.251  10.544  0.8058  0.2855 -1.1599
14040TIP3    H263612   5.364   6.226  10.442  0.5773  2.0766 -1.3796
14041TIP3   OH263613   2.652   3.794   3.177  0.3284 -0.3175 -0.3084
14041TIP3    H163614   2.688   3.706   3.192 -1.3087 -0.8557  0.7630
14041TIP3    H263615   2.574   3.798   3.233 -3.0184 -0.2919 -4.4822
14042TIP3   OH263616   5.143   1.782  12.377 -0.1927  0.1094 -0.0632
14042TIP3    H163617   5.202   1.712  12.346  0.3560 -0.4212  2.0543
14042TIP3    H263618   5.102   1.746  12.455 -2.6422  0.8650 -0.9234
14043TIP3   OH263619   2.494   2.522   4.854 -0.0791 -0.1254 -0.0129
14043TIP3    H163620   2.484   2.523   4.758  2.4097 -1.8818 -0.3920
14043TIP3    H263621   2.561   2.588   4.871 -1.4765  1.1600  0.7457
14044TIP3   OH263622   1.574   0.182  15.820 -0.3115  1.2458 -0.3570
14044TIP3    H163623   1.630   0.127  15.765 -1.7963  0.6113 -1.2956
14044TIP3    H263624   1.594   0.272  15.793  2.0090  1.2371  1.0588
14045TIP3   OH263625   3.818   4.820  11.878 -0.2431 -0.1396 -0.3119
14045TIP3    H163626   3.812   4.900  11.930  0.3980 -0.1021 -0.2888
14045TIP3    H263627   3.769   4.840  11.798  0.5794  0.5643 -0.6489
14046TIP3   OH263628   1.947   0.059  14.526  0.5230  0.6434  0.8897
14046TIP3    H163629   1.913  -0.031  14.524  1.1421  0.3310  2.8692
14046TIP3    H263630   1.889   0.107  14.466 -0.0623 -0.9694  0.0911
14047TIP3   OH263631   5.028   3.831   2.392  0.4558  0.2574 -0.1963
14047TIP3    H163632   5.003   3.878   2.312 -2.4319  0.3162  0.6354
14047TIP3    H263633   5.049   3.901   2.455 -1.4886  0.4486  0.3145
14048TIP3   OH263634   6.825   5.167   3.233  0.3522 -0.1064  0.0268
14048TIP3    H163635   6.827   5.088   3.180  0.6317 -0.2690  0.2808
14048TIP3    H263636   6.736   5.168   3.270 -0.0218  0.2812 -0.8434
14049TIP3   OH263637   6.140   2.832  13.660 -0.3716 -0.1917 -0.4023
14049TIP3    H163638   6.126   2.900  13.726 -1.1462  1.1225 -1.8445
14049TIP3    H263639   6.059   2.781  13.659 -0.8295  0.5234 -1.1142
14050TIP3   OH263640   1.152   4.926  12.603 -0.5980  0.0185  0.5116
14050TIP3    H163641   1.082   4.864  12.621 -0.3311 -0.7517 -0.9675
14050TIP3    H263642   1.139   4.952  12.511  0.4637  0.6257  0.5136
14051TIP3   OH263643   4.617   6.093  11.119  0.2220 -0.0531  0.3356
14051TIP3    H163644   4.683   6.126  11.058 -0.2777 -0.3005 -0.3519
14051TIP3    H263645   4.623   5.997  11.112 -1.1520 -0.0821 -0.7935
14052TIP3   OH263646   5.624   5.727  15.285 -0.2177 -0.1445 -0.6722
14052TIP3    H163647   5.692   5.720  15.219 -0.4673 -0.4596 -0.8993
14052TIP3    H263648   5.648   5.804  15.337  2.1842 -2.1324  1.3791
14053TIP3   OH263649   5.730   4.021   4.097  0.0862  0.2466 -0.1036
14053TIP3    H163650   5.775   4.053   4.175  0.8141  0.6061 -0.6545
14053TIP3    H263651   5.659   3.967   4.130 -0.0648  0.9989  0.8156
14054TIP3   OH263652   0.977   2.632   3.487 -0.4772 -0.4725 -0.5282
14054TIP3    H163653   0.921   2.661   3.559 -3.1481 -0.0499 -2.6259
14054TIP3    H263654   0.928   2.561   3.446  0.1884  0.3113 -2.8261
14055TIP3   OH263655   3.850   0.659   4.034 -0.7042 -0.3958 -0.3253
14055TIP3    H163656   3.773   0.708   4.005 -1.3631 -0.6714  0.8784
14055TIP3    H263657   3.850   0.580   3.980 -0.9773 -0.1556 -0.6809
14056TIP3   OH263658   3.828   1.304  17.077 -0.2785 -0.2226 -0.5297
14056TIP3    H163659   3.745   1.259  17.089 -0.8304  1.2426  2.0212
14056TIP3    H263660   3.887   1.263  17.140 -0.3906  1.5285  0.8025
14057TIP3   OH263661   3.053   5.453  11.963 -0.3858  0.2163 -0.0071
14057TIP3    H163662   3.117   5.468  11.893 -0.4518  0.6771  0.0246
14057TIP3    H263663   3.076   5.368  11.999 -0.4890 -0.1231 -0.7374
14058TIP3   OH263664   2.758   4.933  14.115 -0.9165  0.1991 -0.6318
14058TIP3    H163665   2.731   4.929  14.207  0.7471  0.1946 -0.0981
14058TIP3    H263666   2.712   4.861  14.073 -1.2476 -0.1787  0.3460
14059TIP3   OH263667   3.035   5.145   0.553 -0.2747 -0.3309  0.1322
14059TIP3    H163668   3.018   5.050   0.559 -1.5179 -0.2207 -1.1846
14059TIP3    H263669   3.007   5.179   0.638  0.0116 -1.1152  0.5524
14060TIP3   OH263670   2.558   5.044  15.499 -0.4939 -0.0036  0.2942
14060TIP3    H163671   2.524   5.115  15.445  1.4058  2.8555  2.5774
14060TIP3    H263672   2.639   5.018  15.457 -0.9474 -0.5238 -0.2775
14061TIP3   OH263673   0.416   4.316  16.381  0.5153 -0.1025 -0.2612
14061TIP3    H163674   0.428   4.410  16.393  0.1125 -0.3526  2.6528
14061TIP3    H263675   0.504   4.280  16.378  0.6645  0.1434  0.9423
14062TIP3   OH263676   3.914   3.819  14.331  0.1560 -0.5734 -0.0129
14062TIP3    H163677   3.848   3.886  14.317 -0.5011 -1.2566 -0.2405
14062TIP3    H263678   3.885   3.745  14.278  0.4972 -1.2881  0.7729
14063TIP3   OH263679   0.844   3.804   0.990  0.0840 -0.5073  0.0724
14063TIP3    H163680   0.835   3.779   0.898  0.8877  1.1867 -0.5099
14063TIP3    H263681   0.939   3.812   1.003 -0.0194 -0.8390  1.0755
14064TIP3   OH263682   3.580   0.896   2.674  0.2272 -0.3009 -0.5269
14064TIP3    H163683   3.645   0.825   2.665 -0.3038 -0.8437 -0.1423
14064TIP3    H263684   3.573   0.910   2.768 -0.6828 -0.6836 -0.5354
14065TIP3   OH263685   4.576   3.192   5.893 -0.5391  0.0230 -0.2271
14065TIP3    H163686   4.672   3.194   5.888 -0.5045 -0.5245  0.1373
14065TIP3    H263687   4.547   3.211   5.804 -0.0778 -0.6390 -0.5224
14066TIP3   OH263688   0.939   2.080  15.725  0.5358 -0.0757 -0.0687
14066TIP3    H163689   0.853   2.123  15.714 -0.0102 -0.7383  1.3712
14066TIP3    H263690   0.977   2.080  15.637 -0.4201  1.3161 -0.5206
14067TIP3   OH263691   2.486   6.811  16.137 -0.1028  0.3104  0.0072
14067TIP3    H163692   2.472   6.890  16.084 -1.5430 -0.2997 -0.5600
14067TIP3    H263693   2.441   6.742  16.089  3.5514 -1.5959 -1.1153
14068TIP3   OH263694   5.127   2.878   5.570 -0.2108  0.0732 -0.0114
14068TIP3    H163695   5.148   2.791   5.603  2.6123  0.2404 -1.0777
14068TIP3    H263696   5.043   2.867   5.526 -0.2661 -1.9319  0.4798
14069TIP3   OH263697   4.418   1.538   0.381 -0.5150  0.0426  0.7123
14069TIP3    H163698   4.355   1.606   0.404 -0.5555 -0.3824  1.9414
14069TIP3    H263699   4.385   1.501   0.300 -1.5559  0.1802  1.0575
14070TIP3   OH263700   3.374   4.314  12.021  0.6278 -0.4571 -0.0609
14070TIP3    H163701   3.399   4.240  11.966  0.1717 -0.5898 -0.1001
14070TIP3    H263702   3.452   4.334  12.072  1.0020 -0.4453 -0.6335
14071TIP3   OH263703   4.588   3.393   3.158  0.0693 -0.0635 -0.2096
14071TIP3    H163704   4.636   3.358   3.232  1.0729  2.1710  0.2597
14071TIP3    H263705   4.639   3.468   3.129  0.2893 -1.4196 -3.8664
14072TIP3   OH263706   3.832   1.400  13.767 -0.5290 -0.1181  0.1090
14072TIP3    H163707   3.890   1.461  13.720 -1.5313  1.3977  0.7531
14072TIP3    H263708   3.756   1.390  13.709 -0.4226 -0.6685  0.0614
14073TIP3   OH263709   3.341   1.606  12.339  0.4091 -0.1517  0.8044
14073TIP3    H163710   3.363   1.608  12.246  0.1807 -3.5643  0.5784
14073TIP3    H263711   3.386   1.683  12.375  0.7422  1.1240 -2.0139
14074TIP3   OH263712   1.040   2.496  15.825 -0.3353  0.3914 -0.1087
14074TIP3    H163713   0.967   2.506  15.765 -1.1750  0.4585  0.8923
14074TIP3    H263714   1.012   2.428  15.886  1.1881 -0.9001 -0.7742
14075TIP3   OH263715   0.605   2.741  12.670  0.3192 -0.5972 -0.0260
14075TIP3    H163716   0.578   2.674  12.732 -0.3793 -1.3073 -1.0722
14075TIP3    H263717   0.625   2.818  12.724 -0.5384 -1.1075  1.0392
14076TIP3   OH263718   5.257   1.428  16.152 -0.0505 -0.3858  0.0566
14076TIP3    H163719   5.242   1.355  16.092 -0.1718 -1.4492  1.3515
14076TIP3    H263720   5.190   1.493  16.127  0.4974 -0.3923 -1.5482
14077TIP3   OH263721   2.531   4.237  16.721  0.5219 -0.4858  0.0781
14077TIP3    H163722   2.595   4.256  16.652  0.7983 -2.0775 -0.1347
14077TIP3    H263723   2.486   4.321  16.735  0.0101 -0.2201 -2.4862
14078TIP3   OH263724   6.112   3.715  13.436 -0.2573 -0.6402  0.1258
14078TIP3    H163725   6.089   3.639  13.490 -1.2624  0.5694  1.4735
14078TIP3    H263726   6.077   3.694  13.350 -2.3163 -0.8934  0.9662
14079TIP3   OH263727   4.415   3.063  15.282  1.0274  0.7604  0.2282
14079TIP3    H163728   4.393   2.978  15.321  1.0416  0.3234 -0.7047
14079TIP3    H263729   4.380   3.127  15.345  3.3305  0.1291  2.3210
14080TIP3   OH263730   2.521   5.655  13.703  0.2179 -0.2877  0.2343
14080TIP3    H163731   2.562   5.740  13.722  0.4577 -0.4020  0.2270
14080TIP3    H263732   2.510   5.615  13.789  0.4826 -0.4250  0.2031
14081TIP3   OH263733   6.579   3.412  16.022 -0.1153 -0.3551 -0.2408
14081TIP3    H163734   6.646   3.456  16.075 -0.1613 -0.3359 -0.2002
14081TIP3    H263735   6.522   3.483  15.991 -1.5128 -0.5816  1.6512
14082TIP3   OH263736   2.230   4.413   1.361 -0.2881 -0.7857 -0.4381
14082TIP3    H163737   2.297   4.458   1.413 -0.5051  0.0301 -0.8322
14082TIP3    H263738   2.262   4.324   1.352  0.3136 -0.6337  0.1238
14083TIP3   OH263739   5.239   3.414  16.809 -0.1035 -0.0624  0.5369
14083TIP3    H163740   5.279   3.356  16.744 -2.9436 -0.8822 -0.6416
14083TIP3    H263741   5.307   3.427  16.875  1.9362 -1.5547 -1.1342
14084TIP3   OH263742   1.937   1.373  14.978  0.2690  0.9743  0.0827
14084TIP3    H163743   1.906   1.308  14.915 -1.3032  1.1004  0.6536
14084TIP3    H263744   1.916   1.335  15.063  1.5840  1.1719  0.5168
14085TIP3   OH263745   6.333   6.616   2.821 -0.7440 -0.1951  0.3039
14085TIP3    H163746   6.315   6.522   2.812 -0.8357 -0.3041  1.4078
14085TIP3    H263747   6.327   6.632   2.915 -1.1686  1.0132  0.0876
14086TIP3   OH263748   2.688   6.313  11.755 -0.2146 -0.0594 -0.8196
14086TIP3    H163749   2.754   6.382  11.749  1.0048 -1.1213 -0.1475
14086TIP3    H263750   2.738   6.231  11.752 -1.0534 -0.9350  3.1147
14087TIP3   OH263751   2.712   3.535   6.651 -0.4035 -0.0980 -0.2105
14087TIP3    H163752   2.644   3.601   6.666 -0.8807 -0.8679  1.1264
14087TIP3    H263753   2.782   3.583   6.607 -0.8056  1.2746  0.5943
14088TIP3   OH263754   1.168   2.426   1.269  0.0525 -0.3326 -0.4372
14088TIP3    H163755   1.191   2.334   1.277 -1.7855 -0.7574  0.8771
14088TIP3    H263756   1.104   2.440   1.339  0.6227  2.0646 -0.3078
14089TIP3   OH263757   4.795   5.555  12.594 -0.0891 -0.3536 -0.0638
14089TIP3    H163758   4.793   5.573  12.688 -2.4424 -1.3883  0.1664
14089TIP3    H263759   4.795   5.642  12.553 -0.0598  0.1199  0.9035
14090TIP3   OH263760   6.618   1.271   2.778 -0.2783  0.4728  0.6503
14090TIP3    H163761   6.529   1.245   2.754 -0.5622  1.1145  1.0023
14090TIP3    H263762   6.668   1.258   2.697 -0.6764  0.0795  0.4566
14091TIP3   OH263763   3.110   5.100   3.413  0.4003 -0.1069 -0.4482
14091TIP3    H163764   3.122   5.006   3.428  1.9533 -0.1981 -1.9406
14091TIP3    H263765   3.151   5.116   3.328 -0.3355  1.8385 -0.4919
14092TIP3   OH263766   5.445   0.461  15.283  0.7340  0.2747 -1.0837
14092TIP3    H163767   5.518   0.423  15.234  0.1680 -0.6891 -1.2114
14092TIP3    H263768   5.378   0.477  15.218  1.1371  2.0153 -1.1091
14093TIP3   OH263769   3.746   3.098   4.164  0.4415 -0.2538  0.0902
14093TIP3    H163770   3.716   3.185   4.137  1.5797  0.1552  0.0910
14093TIP3    H263771   3.829   3.086   4.117  1.9164 -0.0110  2.4790
14094TIP3   OH263772   6.112   0.043   1.550 -0.0235  0.0445  0.1189
14094TIP3    H163773   6.046   0.015   1.487 -0.0418 -0.9475  0.5545
14094TIP3    H263774   6.148   0.124   1.514 -2.2800  1.2516  0.4488
14095TIP3   OH263775   3.563   0.314   3.452 -0.1253  0.2782  0.0771
14095TIP3    H163776   3.517   0.259   3.388  0.0149  1.4625 -1.0969
14095TIP3    H263777   3.651   0.275   3.457  0.1443  0.6719 -1.1491
14096TIP3   OH263778   0.240   3.575   1.076 -0.0383 -0.1901 -0.8087
14096TIP3    H163779   0.316   3.562   1.019  1.0783  1.0372  0.3158
14096TIP3    H263780   0.194   3.650   1.037  0.3163  0.1845 -0.5113
14097TIP3   OH263781   5.912   6.503  15.238  0.0487 -0.2820 -0.0593
14097TIP3    H163782   5.862   6.469  15.163  1.6775 -3.3969  0.0934
14097TIP3    H263783   5.978   6.436  15.255  1.0236  1.2561  2.9540
14098TIP3   OH263784   4.866   2.988  13.182  0.0541  0.0257 -0.4325
14098TIP3    H163785   4.902   3.060  13.234 -0.0429 -0.4026  0.2454
14098TIP3    H263786   4.913   2.993  13.099 -0.9870  1.7807 -0.9736
14099TIP3   OH263787   4.051   2.623   6.236 -0.6170 -0.8639  0.1560
14099TIP3    H163788   3.968   2.665   6.212 -0.3736 -0.0811  0.6230
14099TIP3    H263789   4.117   2.670   6.185 -0.2694 -0.1959  1.1818
14100TIP3   OH263790   0.108   6.649   3.183 -0.0459  0.1426  0.0901
14100TIP3    H163791   0.134   6.573   3.236  2.0962  0.0814 -0.9626
14100TIP3    H263792   0.110   6.617   3.093 -0.3162  1.1407 -0.2839
14101TIP3   OH263793   0.034   4.231  11.202  0.1164  0.0995 -0.0260
14101TIP3    H163794   0.056   4.316  11.164  0.3527 -0.1729 -0.5093
14101TIP3    H263795  -0.019   4.252  11.279  0.9027  0.7171  0.3651
14102TIP3   OH263796   5.763   4.918  13.416  0.3153 -0.3939  0.0699
14102TIP3    H163797   5.673   4.896  13.393  0.9919 -0.0866 -3.5023
14102TIP3    H263798   5.771   4.895  13.508 -3.4818 -0.1103  0.6178
14103TIP3   OH263799   2.698   3.026   2.681  0.5889 -0.4012 -0.0324
14103TIP3    H163800   2.669   3.027   2.590  0.9970  0.4477 -0.1559
14103TIP3    H263801   2.685   2.935   2.709 -1.6920 -0.1972 -0.2330
14104TIP3   OH263802   0.688   2.337  14.849  0.6371 -0.0462  0.2168
14104TIP3    H163803   0.732   2.279  14.785 -0.5011 -0.0969 -0.5531
14104TIP3    H263804   0.595   2.313  14.842  0.5017 -0.1586  2.0302
14105TIP3   OH263805   2.810   3.599   2.370  0.1544  0.7428 -0.4116
14105TIP3    H163806   2.894   3.610   2.325  1.6862 -1.0757  1.7732
14105TIP3    H263807   2.833   3.594   2.463 -2.2310 -1.1367  0.1692
14106TIP3   OH263808   1.681   5.811  15.298 -0.1285  0.0486 -0.1080
14106TIP3    H163809   1.757   5.827  15.241 -0.0816  0.5278  0.0825
14106TIP3    H263810   1.606   5.841  15.246  0.0090  1.4757  0.4542
14107TIP3   OH263811   1.644   4.504   3.918  0.2248 -0.2690  0.6257
14107TIP3    H163812   1.647   4.434   3.854 -2.0600  0.9704 -0.9836
14107TIP3    H263813   1.554   4.504   3.951 -0.3724  2.7933 -0.6201
14108TIP3   OH263814   5.421   4.626  14.216 -0.5535 -0.1375 -0.2237
14108TIP3    H163815   5.499   4.654  14.167 -0.4842 -1.5411 -0.9669
14108TIP3    H263816   5.403   4.699  14.275  1.0628  0.4074 -0.3404
14109TIP3   OH263817   1.519   6.381  11.156 -0.0502 -0.1903  0.2244
14109TIP3    H163818   1.577   6.403  11.228  1.0838 -0.4528 -0.5729
14109TIP3    H263819   1.575   6.386  11.078 -1.3917  0.7975 -0.7337
14110TIP3   OH263820   3.342   6.266   4.632  0.4134  0.5947 -0.1595
14110TIP3    H163821   3.279   6.226   4.573  0.4787  2.0997 -1.3336
14110TIP3    H263822   3.321   6.232   4.719  0.1299 -1.4628 -0.9942
14111TIP3   OH263823   5.100   6.078   6.635  0.7029  0.1195  0.5648
14111TIP3    H163824   5.040   6.003   6.635 -0.2225  0.8344  1.1657
14111TIP3    H263825   5.171   6.051   6.693  0.3439 -0.2684  0.8310
14112TIP3   OH263826   3.542   3.472   1.114  0.3630 -0.0495 -0.1465
14112TIP3    H163827   3.576   3.546   1.164  0.9451  0.3837 -1.1350
14112TIP3    H263828   3.573   3.395   1.161 -0.5242  0.3112  1.0793
14113TIP3   OH263829   1.550   1.765   3.016 -1.0006 -0.3172 -0.0159
14113TIP3    H163830   1.616   1.745   2.949  0.8487 -0.5845  1.7952
14113TIP3    H263831   1.553   1.860   3.025 -1.4335 -0.2548 -0.4426
14114TIP3   OH263832   6.732   1.198  15.592 -0.3549  0.0282 -0.5058
14114TIP3    H163833   6.738   1.148  15.674 -3.5629 -0.5280 -0.5005
14114TIP3    H263834   6.744   1.289  15.618 -3.7816  0.1406  1.1134
14115TIP3   OH263835   0.674   2.060   6.507 -0.1529 -0.2362 -0.1648
14115TIP3    H163836   0.662   1.999   6.580  0.4426  0.8251  0.8554
14115TIP3    H263837   0.633   2.141   6.535  0.4447  0.3197 -0.8329
14116TIP3   OH263838   5.460   0.300  16.588  0.1651  0.3698 -0.4470
14116TIP3    H163839   5.448   0.389  16.620 -0.3079  0.3848 -0.6604
14116TIP3    H263840   5.386   0.251  16.624  2.0360 -0.6690  2.2500
14117TIP3   OH263841   1.068   1.010   1.475  0.2782 -0.1151 -0.6103
14117TIP3    H163842   1.150   0.967   1.450  0.2544  0.0727 -1.0094
14117TIP3    H263843   1.004   0.982   1.410  0.0694 -0.1121 -0.4092
14118TIP3   OH263844   5.726   0.282  16.595  0.3070 -0.1880 -0.7131
14118TIP3    H163845   5.634   0.272  16.618 -0.0796  1.9109 -1.0845
14118TIP3    H263846   5.774   0.261  16.675 -0.5393 -0.5397 -0.2915
14119TIP3   OH263847   1.061   0.634  14.667 -0.2140 -0.5723  0.2073
14119TIP3    H163848   1.054   0.658  14.760 -1.1329 -1.7847  0.4767
14119TIP3    H263849   1.087   0.715  14.624  1.7091 -0.3087  1.6946
14120TIP3   OH263850   6.009   0.641  12.031  0.3935 -0.2310 -0.0745
14120TIP3    H163851   5.952   0.573  12.066 -0.4191  0.4011 -0.1232
14120TIP3    H263852   5.969   0.723  12.060  1.0313  0.2420 -0.4955
14121TIP3   OH263853   6.772   3.883   1.636 -0.2827 -0.3602 -0.3054
14121TIP3    H163854   6.840   3.913   1.576 -0.9814  1.9466 -0.0596
14121TIP3    H263855   6.695   3.870   1.581 -1.0124  2.0621  0.0263
14122TIP3   OH263856   1.061   0.179  12.684 -0.1985  0.1215 -0.3317
14122TIP3    H163857   1.117   0.240  12.636  0.0509  1.0609  1.0770
14122TIP3    H263858   1.016   0.234  12.749 -0.8533 -1.0131  0.2091
14123TIP3   OH263859   0.901   4.626   2.600  0.0890  0.8381 -0.0732
14123TIP3    H163860   0.928   4.588   2.516  0.0920  0.8826 -0.0918
14123TIP3    H263861   0.984   4.641   2.647  0.0380 -1.0124  0.7317
14124TIP3   OH263862   6.468   3.039  12.093 -0.2126  0.3152 -0.1920
14124TIP3    H163863   6.429   3.123  12.116  0.9405  0.8342 -0.0954
14124TIP3    H263864   6.490   3.047  12.000  1.4259  0.7604  0.2012
14125TIP3   OH263865   0.897   5.120   1.031  0.2614 -0.3194 -0.3281
14125TIP3    H163866   0.963   5.145   1.095  0.5314  0.1347 -0.7806
14125TIP3    H263867   0.852   5.202   1.010 -1.3577 -0.8191  0.9753
14126TIP3   OH263868   5.417   5.382  15.996 -0.2273  0.5382  0.1295
14126TIP3    H163869   5.457   5.330  16.066 -0.1897 -0.5785 -0.7071
14126TIP3    H263870   5.479   5.377  15.923 -0.7512  0.8318 -0.3457
14127TIP3   OH263871   6.624   2.908   5.504 -0.1762  0.1251 -0.5629
14127TIP3    H163872   6.607   2.814   5.497 -0.8668  0.0153  1.6045
14127TIP3    H263873   6.563   2.949   5.444  1.3674 -0.8366 -2.9143
14128TIP3   OH263874   0.155   5.335  17.141 -0.0262 -0.9251  0.0970
14128TIP3    H163875   0.093   5.391  17.187 -0.0367 -1.3573  0.6245
14128TIP3    H263876   0.237   5.344  17.191 -0.4237 -2.5320  1.1128
14129TIP3   OH263877   3.478   1.001  14.729 -0.1997 -0.5231 -0.2216
14129TIP3    H163878   3.572   1.012  14.744 -0.2195 -0.0253 -0.4460
14129TIP3    H263879   3.469   0.995  14.634 -0.4513 -0.0175 -0.2307
14130TIP3   OH263880   4.140   5.984   3.638  0.5895  0.1326 -0.0195
14130TIP3    H163881   4.152   6.079   3.639  0.8616  0.1281 -1.0652
14130TIP3    H263882   4.119   5.961   3.728  2.4729  0.9306  0.6723
14131TIP3   OH263883   5.286   5.920   5.864 -0.0763  0.5974 -0.5065
14131TIP3    H163884   5.205   5.870   5.876  0.5877 -0.8352 -1.6130
14131TIP3    H263885   5.284   5.947   5.773  0.5515  0.7940 -0.4658
14132TIP3   OH263886   0.619   4.675  15.854  0.0235  0.0251 -0.3658
14132TIP3    H163887   0.602   4.698  15.945  3.0663  2.1323 -0.1670
14132TIP3    H263888   0.687   4.607  15.859  2.9843  2.6858 -0.8388
14133TIP3   OH263889   5.850   0.304  11.865 -0.1123  0.2044  0.3137
14133TIP3    H163890   5.782   0.300  11.798  0.6706  1.3443 -0.5983
14133TIP3    H263891   5.886   0.216  11.867 -0.8115 -0.0982 -0.0487
14134TIP3   OH263892   6.720   5.938  17.040 -0.4779 -0.5348 -0.4528
14134TIP3    H163893   6.631   5.903  17.045 -1.1565  0.9538 -1.2589
14134TIP3    H263894   6.734   5.954  16.946  0.1299  0.4683 -0.2124
14135TIP3   OH263895   1.000   6.055  14.857  0.2400 -0.0037 -0.1342
14135TIP3    H163896   0.954   5.971  14.860  0.5962 -0.3132 -2.2113
14135TIP3    H263897   0.962   6.106  14.929 -0.9702 -1.4283  0.2795
14136TIP3   OH263898   4.824   2.341  11.066  0.0148  0.0447  0.0514
14136TIP3    H163899   4.808   2.398  10.991 -2.5861  0.5157  0.8657
14136TIP3    H263900   4.898   2.382  11.111  0.7570  0.5019 -1.4905
14137TIP3   OH263901   1.817   0.154   4.938  0.1951 -0.4497  0.0749
14137TIP3    H163902   1.841   0.121   5.024  2.1049  1.2874  0.3165
14137TIP3    H263903   1.891   0.211   4.914 -2.0245  2.2276 -0.9696
14138TIP3   OH263904   1.885   6.270  16.853 -0.4871 -0.3412  0.4835
14138TIP3    H163905   1.905   6.352  16.807  0.0667 -0.2753  0.8282
14138TIP3    H263906   1.962   6.254  16.907 -0.9326 -0.6687  1.0271
14139TIP3   OH263907   3.088   4.352  11.781  0.4598 -0.6499 -0.3392
14139TIP3    H163908   2.993   4.360  11.782  0.4585 -0.5978  0.8944
14139TIP3    H263909   3.111   4.350  11.688 -0.7934 -1.2684 -0.6674
14140TIP3   OH263910   2.829   3.451   1.863 -0.7308  0.5556 -0.0210
14140TIP3    H163911   2.760   3.430   1.926  0.4584  0.2868  1.2455
14140TIP3    H263912   2.880   3.521   1.906 -0.3198  0.8867 -1.0093
14141TIP3   OH263913   1.087   1.232  16.762  0.0118 -0.5875  0.0052
14141TIP3    H163914   1.098   1.181  16.682  1.1141 -0.9531  0.3743
14141TIP3    H263915   1.076   1.323  16.732 -0.7745 -0.8742 -0.5959
14142TIP3   OH263916   3.654   6.489  14.205 -0.5795 -0.3194  0.1007
14142TIP3    H163917   3.732   6.534  14.171  0.9552 -0.6694  2.9214
14142TIP3    H263918   3.596   6.560  14.234 -0.2408 -0.0905  0.2238
14143TIP3   OH263919   1.321   0.919  14.037  0.2580 -0.3394 -0.5166
14143TIP3    H163920   1.245   0.881  13.991  2.1057 -1.5152 -2.8088
14143TIP3    H263921   1.359   0.980  13.974  2.2285 -1.1184 -0.1279
14144TIP3   OH263922   5.722   0.445   5.726  0.1517 -0.2284 -0.1358
14144TIP3    H163923   5.720   0.443   5.630  0.9314  2.2415 -0.2733
14144TIP3    H263924   5.630   0.432   5.752 -0.2599  0.2504 -1.2826
14145TIP3   OH263925   3.621   2.321   1.438 -1.1879  0.4574  0.5325
14145TIP3    H163926   3.624   2.396   1.379  1.8070 -0.2158 -0.3231
14145TIP3    H263927   3.583   2.251   1.386 -1.5741  0.7031  0.4828
14146TIP3   OH263928   5.088   2.441  14.350 -0.1524 -0.1180 -0.0418
14146TIP3    H163929   5.135   2.468  14.429 -0.4331  0.4554 -0.0689
14146TIP3    H263930   5.045   2.359  14.375  0.1981 -0.2212  0.2331
14147TIP3   OH263931   6.247   6.697  14.833  0.3064  0.2440 -0.0176
14147TIP3    H163932   6.321   6.638  14.815  1.2740  1.9125 -1.9542
14147TIP3    H263933   6.225   6.680  14.924  4.0874  0.6944  1.1400
14148TIP3   OH263934   3.676   2.695  14.914  0.1269 -0.2809 -0.0371
14148TIP3    H163935   3.630   2.622  14.957 -0.7722 -0.0708 -0.6198
14148TIP3    H263936   3.642   2.695  14.825  0.7924  0.2994 -0.2952
14149TIP3   OH263937   4.305   5.999   0.376  0.4528  0.0708 -0.7510
14149TIP3    H163938   4.245   6.066   0.409 -0.9172 -0.7514 -1.4957
14149TIP3    H263939   4.337   5.955   0.455  0.5240  0.8755 -0.3177
14150TIP3   OH263940   4.253   5.291   2.101 -0.3338 -0.2214  0.4239
14150TIP3    H163941   4.161   5.270   2.081 -0.4549 -0.7848  1.5065
14150TIP3    H263942   4.250   5.334   2.186  0.4741 -0.9430  0.8329
14151TIP3   OH263943   0.662   0.947   1.184 -0.2316  0.0649 -0.2177
14151TIP3    H163944   0.692   0.958   1.274  0.5673  1.9997 -0.6729
14151TIP3    H263945   0.741   0.957   1.131 -1.1291  1.9438 -1.2763
14152TIP3   OH263946   2.229   6.497   0.780  0.3826 -0.0061 -0.0080
14152TIP3    H163947   2.220   6.536   0.693 -0.2472 -0.4463 -0.1499
14152TIP3    H263948   2.227   6.572   0.840  1.5485  0.3565 -0.4048
14153TIP3   OH263949   4.060   4.997   1.668 -0.9994 -0.7533 -0.2679
14153TIP3    H163950   3.964   4.994   1.664 -1.0395 -0.2635  0.2198
14153TIP3    H263951   4.089   4.923   1.615 -1.6717 -1.7574  0.7384
14154TIP3   OH263952   4.361   6.311   1.074  0.0337  0.4067  0.5330
14154TIP3    H163953   4.404   6.324   0.989  0.2268 -1.2181  0.3487
14154TIP3    H263954   4.433   6.308   1.137 -0.0272  0.4696  0.6055
14155TIP3   OH263955   2.010   4.852   0.263  0.2432 -0.2483  0.0024
14155TIP3    H163956   2.029   4.902   0.342  1.7330  0.2818 -0.6531
14155TIP3    H263957   2.057   4.769   0.274  2.5647  0.7855 -1.3151
14156TIP3   OH263958   0.652   3.042  14.698  0.3529 -0.7368  0.2277
14156TIP3    H163959   0.732   3.037  14.751  1.1878  0.1048 -0.8948
14156TIP3    H263960   0.682   3.073  14.613 -1.3982  1.5916  0.3533
14157TIP3   OH263961   5.901   0.774  15.564 -0.2592 -0.1460 -0.0130
14157TIP3    H163962   5.981   0.727  15.587  0.4623  1.2634  0.4766
14157TIP3    H263963   5.831   0.710  15.575  0.6459 -0.9886  1.0036
14158TIP3   OH263964   0.501   6.067   2.293 -0.2247 -0.5362 -0.5150
14158TIP3    H163965   0.594   6.072   2.314 -0.5479  0.7511  0.7359
14158TIP3    H263966   0.482   6.150   2.249 -0.8602 -0.6281 -0.4273
14159TIP3   OH263967   4.436   6.560   2.455 -0.2358 -0.2343  0.4398
14159TIP3    H163968   4.426   6.483   2.399  0.2610 -0.8219  1.1334
14159TIP3    H263969   4.510   6.608   2.417  0.9252 -1.2803  1.2734
14160TIP3   OH263970   0.595   2.755  13.807  0.4269 -0.0913 -0.1842
14160TIP3    H163971   0.619   2.819  13.873  1.8108  1.1220 -1.7698
14160TIP3    H263972   0.500   2.766  13.796  0.0784 -0.6993  1.9074
14161TIP3   OH263973   4.865   1.949  13.136  0.3714 -0.0970  0.3054
14161TIP3    H163974   4.776   1.956  13.103 -0.2570 -0.8385  1.7545
14161TIP3    H263975   4.868   2.010  13.210  1.5934  1.1860 -0.7582
14162TIP3   OH263976   5.692   1.301  16.179  0.2839  0.0807  0.0510
14162TIP3    H163977   5.757   1.230  16.178 -0.4322 -0.6073 -0.7944
14162TIP3    H263978   5.672   1.314  16.086 -0.6568  0.3876  0.2963
14163TIP3   OH263979   4.120   1.218  13.498  0.4481  0.1389  0.2015
14163TIP3    H163980   4.209   1.246  13.520  0.3238 -0.5122  1.6348
14163TIP3    H263981   4.074   1.215  13.582 -0.3246 -1.6008 -0.2348
14164TIP3   OH263982   6.020   6.242  16.171  0.3091  0.1230 -0.9244
14164TIP3    H163983   5.967   6.287  16.236  0.1708  1.0360 -1.6530
14164TIP3    H263984   6.089   6.304  16.148  0.9030 -0.5413 -0.9801
14165TIP3   OH263985   3.913   2.926  14.758  0.2586  0.1608 -0.1851
14165TIP3    H163986   3.870   2.983  14.695 -0.4737 -0.9222 -0.6957
14165TIP3    H263987   3.862   2.937  14.839 -0.5623 -0.5831 -0.5909
14166TIP3   OH263988   0.628   4.985  15.321 -0.5553 -0.2507 -0.2320
14166TIP3    H163989   0.578   5.038  15.382 -2.3001 -0.8487 -1.0795
14166TIP3    H263990   0.718   4.989  15.354 -0.7191  2.6339  0.1270
14167TIP3   OH263991   0.342   4.076  13.261  0.7041  0.0046 -0.4935
14167TIP3    H163992   0.310   3.999  13.215  1.7066 -0.2304 -0.8177
14167TIP3    H263993   0.276   4.093  13.329  0.6463 -1.3295 -0.1989
14168TIP3   OH263994   6.408   4.368  12.544 -0.5659 -0.3775  0.2833
14168TIP3    H163995   6.372   4.381  12.456 -0.5427 -0.3792  0.2735
14168TIP3    H263996   6.337   4.393  12.603 -0.3498  0.2930  0.2666
14169TIP3   OH263997   5.281   1.027   1.276  0.9610  0.5655 -0.3486
14169TIP3    H163998   5.262   1.075   1.195  0.6890 -0.6953 -1.0661
14169TIP3    H263999   5.196   1.018   1.319  1.0680  1.0332 -0.0425
14170TIP3   OH264000   4.492   0.332   0.612  0.7067  0.2251 -0.1353
14170TIP3    H164001   4.490   0.240   0.639 -0.7029  0.5259  0.8984
14170TIP3    H264002   4.499   0.381   0.694 -1.5829  1.1064 -0.3937
14171TIP3   OH264003   5.779   1.681  14.659  0.7867 -0.1134  0.1546
14171TIP3    H164004   5.846   1.631  14.613 -1.0982 -0.6011 -2.3056
14171TIP3    H264005   5.700   1.626  14.653 -0.0717  0.7632  2.2513
14172TIP3   OH264006   3.340   6.132  11.989  0.0427 -0.0002 -0.2806
14172TIP3    H164007   3.316   6.053  12.037 -0.2523  0.6494  0.6662
14172TIP3    H264008   3.345   6.200  12.056  1.6024  0.5153 -0.8910
14173TIP3   OH264009   0.154   4.039   3.174  0.0172 -0.0637  0.1043
14173TIP3    H164010   0.125   4.015   3.262 -2.0960 -0.2609 -0.6061
14173TIP3    H264011   0.111   4.122   3.155 -0.5571 -0.6311 -1.2103
14174TIP3   OH264012   6.075   0.577   1.630 -0.2210  0.0182 -0.3912
14174TIP3    H164013   6.142   0.565   1.563 -0.6429  0.7053 -0.9536
14174TIP3    H264014   5.992   0.572   1.582 -0.5113  1.3578 -0.0781
14175TIP3   OH264015   1.275   1.346   3.971 -0.5966  0.4479  0.6296
14175TIP3    H164016   1.265   1.315   3.881  3.3292 -1.8752  0.7457
14175TIP3    H264017   1.197   1.313   4.017 -0.8232 -1.7499 -1.1726
14176TIP3   OH264018   0.776   0.088   2.896  0.4739  0.1545  0.0869
14176TIP3    H164019   0.734   0.084   2.982 -0.0092  1.5561 -0.0473
14176TIP3    H264020   0.780   0.182   2.876 -0.0026 -0.1600 -1.6907
14177TIP3   OH264021   6.473   3.523   0.081  0.0329 -0.1579  0.0484
14177TIP3    H164022   6.483   3.604   0.130  0.6258 -0.0617 -0.2266
14177TIP3    H264023   6.515   3.456   0.136 -3.1448 -0.9245  1.8161
14178TIP3   OH264024   1.533   2.198   1.234 -0.2257 -0.0262  0.1653
14178TIP3    H164025   1.542   2.292   1.216  1.7781 -0.4534 -1.5116
14178TIP3    H264026   1.471   2.167   1.168 -1.4926  0.2222  1.2176
14179TIP3   OH264027   5.806   1.750  14.344 -0.3458  0.1364  0.0217
14179TIP3    H164028   5.872   1.806  14.384 -0.7248 -0.1628  1.1027
14179TIP3    H264029   5.819   1.664  14.385  1.0269 -0.9602 -2.4527
14180TIP3   OH264030   5.356   5.321   0.454 -0.1033  0.2312  0.2076
14180TIP3    H164031   5.361   5.416   0.452  0.6837  0.2460  1.4180
14180TIP3    H264032   5.447   5.292   0.447 -0.3800 -0.4562 -0.6750
14181TIP3   OH264033   6.467   6.454  12.963 -0.0942  0.3612  0.4572
14181TIP3    H164034   6.444   6.521  12.899  0.0845 -0.6432 -0.6820
14181TIP3    H264035   6.562   6.458  12.970  0.3533 -2.1877 -2.4278
14182TIP3   OH264036   4.776   5.002  15.364 -0.2105 -0.4055  0.2403
14182TIP3    H164037   4.828   4.941  15.312  0.1448 -0.3905  0.5728
14182TIP3    H264038   4.740   4.949  15.435 -2.5167 -0.9282 -1.1991
14183TIP3   OH264039   4.247   5.242   3.572  0.1526  0.2100 -0.3576
14183TIP3    H164040   4.282   5.266   3.658  0.8516  1.1776 -0.8884
14183TIP3    H264041   4.241   5.146   3.574  1.4037  0.1198  0.3152
14184TIP3   OH264042   0.367   6.791  10.624 -0.3894 -0.5715  0.5149
14184TIP3    H164043   0.404   6.876  10.650 -0.2257 -0.8514  1.2244
14184TIP3    H264044   0.437   6.749  10.574  0.8299 -1.6567  2.9823
14185TIP3   OH264045   5.294   1.423   1.090  0.2957 -0.6832  0.1351
14185TIP3    H164046   5.206   1.450   1.065  1.4426  3.7297 -0.0233
14185TIP3    H264047   5.331   1.385   1.010 -0.9594 -1.1712 -0.2355
14186TIP3   OH264048   5.117   4.434  15.471  0.3026 -0.1680  0.1136
14186TIP3    H164049   5.089   4.350  15.508  0.9951 -0.1123  0.7890
14186TIP3    H264050   5.037   4.473  15.436  0.3463 -2.3822 -2.8468
14187TIP3   OH264051   2.349   4.278   0.178 -0.2697 -0.3416  0.4288
14187TIP3    H164052   2.435   4.297   0.142 -0.0563 -0.2662  0.9662
14187TIP3    H264053   2.294   4.258   0.102 -0.8306  3.5247 -0.4327
14188TIP3   OH264054   2.530   3.711  11.222  0.5961  0.5466  0.1439
14188TIP3    H164055   2.566   3.623  11.234  1.7340  1.1271  1.3071
14188TIP3    H264056   2.437   3.702  11.240  0.3861 -0.6954 -1.3161
14189TIP3   OH264057   4.619   1.533  14.064 -0.1146 -0.5981  0.1932
14189TIP3    H164058   4.632   1.438  14.057 -0.6821 -0.7730  1.2131
14189TIP3    H264059   4.642   1.553  14.154 -1.5126 -0.0414  0.4554
14190TIP3   OH264060   3.663   2.910  12.709  0.3368 -0.1832 -0.2296
14190TIP3    H164061   3.639   2.882  12.797 -0.6409 -1.8032 -0.9603
14190TIP3    H264062   3.748   2.870  12.693  0.7434  0.5196  0.1462
14191TIP3   OH264063   4.396   1.791   1.433  0.1332  0.4146 -0.0724
14191TIP3    H164064   4.337   1.866   1.438 -1.3120 -0.7297  0.5587
14191TIP3    H264065   4.370   1.735   1.506 -0.4335 -1.8503 -1.9288
14192TIP3   OH264066   0.861   5.941  17.124 -0.0927  0.0796  0.3115
14192TIP3    H164067   0.889   5.986  17.204 -0.5573  0.6113  0.1856
14192TIP3    H264068   0.896   5.853  17.133  2.3578  0.9309 -0.2515
14193TIP3   OH264069   6.038   1.563  13.783  0.6509  0.0179 -0.4157
14193TIP3    H164070   6.091   1.618  13.840  0.8179 -1.0073  0.4555
14193TIP3    H264071   6.097   1.539  13.711  1.4007 -1.0856  0.5293
14194TIP3   OH264072   2.951   6.053  14.675 -0.0128  0.0199 -0.1188
14194TIP3    H164073   3.025   6.066  14.616  0.6460 -1.8814  0.2313
14194TIP3    H264074   2.944   5.958  14.684 -2.5967  0.1214 -0.2441
14195TIP3   OH264075   1.619   5.818  11.640  0.0137 -0.2907 -0.6731
14195TIP3    H164076   1.536   5.793  11.599  0.7677 -0.7012 -1.9954
14195TIP3    H264077   1.619   5.773  11.724 -2.5633  2.2994  0.8879
14196TIP3   OH264078   3.802   6.423   3.426  0.0368  0.1498 -0.1970
14196TIP3    H164079   3.776   6.478   3.500  1.7176 -2.4312  2.5415
14196TIP3    H264080   3.723   6.373   3.405 -0.5945  1.2546 -0.5772
14197TIP3   OH264081   3.640   5.048   0.200  0.1386 -0.4025  0.1498
14197TIP3    H164082   3.735   5.053   0.207  0.1921 -0.8296 -0.2890
14197TIP3    H264083   3.619   4.957   0.222 -0.4245  0.3130  3.1026
14198TIP3   OH264084   3.101   0.383   1.065 -0.1952 -0.0266  0.2084
14198TIP3    H164085   3.165   0.312   1.075 -0.6544 -0.1292  3.4169
14198TIP3    H264086   3.023   0.340   1.031  0.4011 -0.5270 -0.5437
14199TIP3   OH264087   5.889   1.583   1.143  0.2328 -0.7002 -0.0351
14199TIP3    H164088   5.797   1.565   1.164 -0.3731  1.4805 -0.5395
14199TIP3    H264089   5.928   1.610   1.226  0.6930 -2.4415  0.3597
14200TIP3   OH264090   6.117   4.561  11.516  0.3302 -0.8368  0.1495
14200TIP3    H164091   6.025   4.539  11.528 -0.1984  1.0746 -0.1165
14200TIP3    H264092   6.117   4.633  11.453  2.1242 -1.7274 -0.9740
14201TIP3   OH264093   1.560   6.161   3.861 -0.0370 -0.6441  0.2788
14201TIP3    H164094   1.648   6.154   3.824  0.1843 -0.1812  0.6888
14201TIP3    H264095   1.576   6.179   3.954 -0.5606 -0.0430  0.2556
14202TIP3   OH264096   4.047   6.502   3.481 -0.8558 -0.1226  0.2535
14202TIP3    H164097   3.967   6.466   3.443 -0.3746 -1.2832  0.2896
14202TIP3    H264098   4.072   6.439   3.549 -0.4158  0.7108  0.8864
14203TIP3   OH264099   4.073   0.133  16.670 -0.9505  0.5816  0.0646
14203TIP3    H164100   4.004   0.194  16.698 -0.6855  0.1570  1.7376
14203TIP3    H264101   4.059   0.055  16.723  0.4115  0.2409 -0.0531
14204TIP3   OH264102   0.641   0.048  12.596 -0.0718 -0.1204 -0.0104
14204TIP3    H164103   0.602   0.110  12.533  0.9213  0.0896 -0.4458
14204TIP3    H264104   0.604  -0.037  12.572 -0.7946  0.1731  0.0429
14205TIP3   OH264105   3.638   3.036   3.441  0.0968 -0.3224  0.3779
14205TIP3    H164106   3.608   3.127   3.445 -2.1703 -1.0096  0.3044
14205TIP3    H264107   3.653   3.020   3.347  1.7092  0.2767  0.4891
14206TIP3   OH264108   5.299   0.487  13.405  0.9079  0.6456 -0.4410
14206TIP3    H164109   5.345   0.568  13.383  1.1448  0.3297 -1.1385
14206TIP3    H264110   5.349   0.418  13.361  0.4846  0.1632 -0.1749
14207TIP3   OH264111   0.673   2.728   3.442 -0.1658  0.1098  0.2274
14207TIP3    H164112   0.673   2.691   3.353  0.0784 -0.0438  0.2926
14207TIP3    H264113   0.616   2.669   3.492  0.1946 -0.1654  0.3226
14208TIP3   OH264114   4.543   3.024   6.192 -0.1970 -0.3001  0.2350
14208TIP3    H164115   4.548   3.000   6.285 -1.4653 -0.9551  0.1516
14208TIP3    H264116   4.452   3.007   6.168 -0.0201  0.4057 -0.9913
14209TIP3   OH264117   5.807   5.094  14.825 -0.0890  0.6201  0.1292
14209TIP3    H164118   5.770   5.162  14.882  1.7078  1.1842  0.6944
14209TIP3    H264119   5.788   5.012  14.871  0.8273  1.0249  1.2805
14210TIP3   OH264120   2.450   2.744  17.107  0.2590 -0.1445 -0.8230
14210TIP3    H164121   2.401   2.735  17.025 -0.8244 -0.1059 -0.1970
14210TIP3    H264122   2.470   2.837  17.113  0.6234 -0.1958 -1.1972
14211TIP3   OH264123   3.823   5.176   5.489 -0.2148  0.9915  0.5049
14211TIP3    H164124   3.850   5.268   5.477 -0.9864  1.1772  0.1117
14211TIP3    H264125   3.732   5.182   5.518 -1.2864  0.3130 -2.3672
14212TIP3   OH264126   2.290   1.206   3.494  0.2595 -0.2431  0.5919
14212TIP3    H164127   2.352   1.278   3.488  0.3735 -0.3830  0.1017
14212TIP3    H264128   2.333   1.142   3.551  0.7467 -0.5242 -0.0844
14213TIP3   OH264129   4.206   2.623   2.883 -0.2252 -0.3517 -0.2015
14213TIP3    H164130   4.191   2.675   2.804  1.6868  0.2146 -0.2456
14213TIP3    H264131   4.226   2.687   2.951 -1.8713 -0.8346  0.7782
14214TIP3   OH264132   2.339   6.549  13.807  0.5557  0.6999 -0.0031
14214TIP3    H164133   2.306   6.633  13.840 -1.1190 -1.1413  3.4587
14214TIP3    H264134   2.280   6.527  13.735 -0.0597  1.6511  0.1919
14215TIP3   OH264135   1.531   1.770   6.683 -0.0714 -0.0121 -0.9166
14215TIP3    H164136   1.563   1.707   6.747  2.1199  0.3048 -1.6238
14215TIP3    H264137   1.603   1.780   6.621 -0.0785  3.5401 -0.5640
14216TIP3   OH264138   2.417   0.981  16.554  0.0368 -0.1786  0.0708
14216TIP3    H164139   2.488   0.945  16.502 -0.6636  0.5657 -1.4870
14216TIP3    H264140   2.363   0.905  16.578  0.6695 -0.5921  0.1947
14217TIP3   OH264141   0.424   0.387   2.230 -0.4520 -0.1563  0.3586
14217TIP3    H164142   0.424   0.293   2.214 -0.2578 -0.3347  1.3656
14217TIP3    H264143   0.350   0.402   2.289 -1.4554  0.5586 -1.0098
14218TIP3   OH264144   1.029   1.551  16.057 -0.0787 -1.0337  0.0865
14218TIP3    H164145   1.024   1.557  15.962  3.2626 -1.9133 -0.2518
14218TIP3    H264146   0.995   1.636  16.088  1.5369  0.4930 -2.0358
14219TIP3   OH264147   1.246   4.369   3.635  0.3530  0.7758  0.1421
14219TIP3    H164148   1.258   4.450   3.685  2.5507  0.2192  0.6162
14219TIP3    H264149   1.292   4.385   3.553 -1.4275  0.8978 -0.8884
14220TIP3   OH264150   3.928   2.870   2.772  0.3772 -0.6414 -1.0962
14220TIP3    H164151   3.897   2.901   2.857  0.3372  3.4832 -2.4004
14220TIP3    H264152   3.929   2.775   2.780 -1.0013 -0.4974  2.9891
14221TIP3   OH264153   2.292   4.547  13.388 -0.5516 -0.5918  0.5607
14221TIP3    H164154   2.318   4.463  13.350  2.1028  1.0736 -1.7595
14221TIP3    H264155   2.349   4.558  13.464  0.0130 -0.3663  0.1117
14222TIP3   OH264156   5.459   5.631  14.308  0.3207 -0.2470  0.2418
14222TIP3    H164157   5.523   5.641  14.238 -0.1313  0.1194 -0.1251
14222TIP3    H264158   5.485   5.695  14.374  2.3915 -2.3957  1.7169
14223TIP3   OH264159   4.604   1.034   2.408  0.3295 -0.5711 -0.2010
14223TIP3    H164160   4.620   1.031   2.502 -0.9367 -0.0964  0.0540
14223TIP3    H264161   4.631   1.123   2.382  2.2418 -1.2331 -0.6256
14224TIP3   OH264162   4.166   3.281  13.865 -0.1450 -0.6863  0.2509
14224TIP3    H164163   4.242   3.234  13.898  0.4608  0.2360  0.2008
14224TIP3    H264164   4.121   3.312  13.943  1.2880  1.4955  0.2824
14225TIP3   OH264165   5.466   4.032  14.734  0.1860 -0.1658  0.0320
14225TIP3    H164166   5.379   4.054  14.701 -0.2042 -1.8763 -0.1857
14225TIP3    H264167   5.520   4.108  14.713 -0.9674  0.4099 -0.9465
14226TIP3   OH264168   1.553   0.996  15.628  0.2095 -0.1099 -0.2238
14226TIP3    H164169   1.643   1.021  15.649  0.8553 -1.3291 -1.4573
14226TIP3    H264170   1.501   1.074  15.649  1.7935  1.2937 -1.3357
14227TIP3   OH264171   2.280   4.756   4.476 -0.1582  0.1981 -0.3874
14227TIP3    H164172   2.223   4.695   4.523  1.9474 -2.2623 -0.7877
14227TIP3    H264173   2.245   4.757   4.387 -0.5088  0.0381 -0.2565
14228TIP3   OH264174   3.946   4.466   4.754  0.5911  0.4179 -0.3742
14228TIP3    H164175   3.962   4.431   4.842  2.0893 -0.0694 -0.8030
14228TIP3    H264176   4.021   4.524   4.738 -1.5921  3.6329  0.1489
14229TIP3   OH264177   1.343   6.260  14.730 -0.2398 -0.3524 -0.0399
14229TIP3    H164178   1.405   6.333  14.729 -1.3965  0.7503  2.2143
14229TIP3    H264179   1.282   6.279  14.660 -1.1770  1.5193  1.2036
14230TIP3   OH264180   0.156   4.902  12.299 -0.1102 -0.3641  0.6535
14230TIP3    H164181   0.172   4.865  12.212  1.5361 -1.1096  1.2458
14230TIP3    H264182   0.236   4.885  12.348  0.7956  3.8080  1.0446
14231TIP3   OH264183   1.127   2.604   0.820  0.5551 -0.1192 -0.0712
14231TIP3    H164184   1.163   2.600   0.909  1.7811  1.8193 -0.4032
14231TIP3    H264185   1.056   2.668   0.826  1.7343  1.3280 -0.7469
14232TIP3   OH264186   6.158   1.100   0.031 -0.4261  0.0859  0.1079
14232TIP3    H164187   6.081   1.138   0.072 -0.3452 -0.3025  0.6229
14232TIP3    H264188   6.232   1.143   0.074 -0.2778 -1.9630  2.0555
14233TIP3   OH264189   1.334   4.253   2.475 -0.9128 -0.0750  0.3028
14233TIP3    H164190   1.358   4.346   2.476 -0.0911 -0.1527 -2.6555
14233TIP3    H264191   1.238   4.253   2.468 -1.0355  0.4859  1.7354
14234TIP3   OH264192   4.672   6.408  14.860  0.3936 -0.3308 -0.4618
14234TIP3    H164193   4.754   6.423  14.814  1.7078 -0.3661  1.7102
14234TIP3    H264194   4.670   6.313  14.875 -1.1787 -0.6710 -2.3664
14235TIP3   OH264195   5.450   1.982  15.457 -0.1901  0.0809  0.2823
14235TIP3    H164196   5.534   1.937  15.466 -0.4465 -1.0234 -2.1932
14235TIP3    H264197   5.474   2.075  15.451  0.8412 -0.1926 -0.1387
14236TIP3   OH264198   6.184   5.996  13.604 -0.2344 -0.1200 -0.0259
14236TIP3    H164199   6.226   6.031  13.526 -0.4562  1.2944  0.4697
14236TIP3    H264200   6.112   5.942  13.571  0.2740 -0.3392 -0.8004
14237TIP3   OH264201   3.783   3.517  13.059 -0.2657 -0.1477 -0.5843
14237TIP3    H164202   3.769   3.533  12.966  2.2470 -0.9320 -1.1741
14237TIP3    H264203   3.878   3.521  13.070 -0.5184  0.4580  2.0675
14238TIP3   OH264204   0.558   1.272  12.003 -0.1391 -0.2695 -0.1262
14238TIP3    H164205   0.520   1.360  12.005  1.9578  0.7428  3.4763
14238TIP3    H264206   0.638   1.282  11.950 -0.6714 -0.4269 -0.9792
14239TIP3   OH264207   2.846   1.839  13.472  0.0603 -0.6185  0.1016
14239TIP3    H164208   2.923   1.862  13.419  0.8053 -2.6100  0.2600
14239TIP3    H264209   2.881   1.796  13.549 -1.0239  2.0866  2.2619
14240TIP3   OH264210   4.194   2.666   4.979  0.2471 -0.0160  0.2720
14240TIP3    H164211   4.160   2.670   5.069 -0.2952 -3.0745  0.3323
14240TIP3    H264212   4.126   2.618   4.931  0.2063  2.1375 -2.0043
14241TIP3   OH264213   6.123   1.054  11.684 -0.1208 -0.2927 -0.0504
14241TIP3    H164214   6.177   1.109  11.627  1.3655 -1.0660  0.5582
14241TIP3    H264215   6.033   1.072  11.656  0.3732  1.5950 -0.6139
14242TIP3   OH264216   0.099   3.896  14.173  0.2772 -0.1425  0.0254
14242TIP3    H164217   0.114   3.872  14.264  1.2535 -1.7722 -0.5243
14242TIP3    H264218   0.187   3.899  14.135 -0.0473  1.3454 -0.7033
14243TIP3   OH264219   6.138   4.806   2.213 -0.1834  0.3220  0.7123
14243TIP3    H164220   6.063   4.805   2.272 -0.8640  0.1920 -0.1416
14243TIP3    H264221   6.123   4.881   2.156  0.5892  0.5902  0.8478
14244TIP3   OH264222   3.382   0.754   3.791  0.0733  0.3937  0.3929
14244TIP3    H164223   3.310   0.710   3.746 -0.1913 -0.2091  1.3945
14244TIP3    H264224   3.343   0.791   3.870  0.3572  2.1625 -0.2283
14245TIP3   OH264225   4.224   2.338   1.280  0.0009  0.8961  0.8438
14245TIP3    H164226   4.213   2.430   1.255 -0.2361  0.8093  0.6202
14245TIP3    H264227   4.315   2.318   1.259 -0.6212  0.3502 -1.5933
14246TIP3   OH264228   6.563   5.954   1.375  0.0260 -0.8924  0.3168
14246TIP3    H164229   6.584   5.862   1.362 -0.5363 -0.9999  0.1246
14246TIP3    H264230   6.474   5.963   1.341 -0.2423 -0.4594  1.0963
14247TIP3   OH264231   5.339   0.809  16.522  0.2425 -0.0442 -0.3192
14247TIP3    H164232   5.304   0.897  16.528 -1.0824 -0.4576 -1.3671
14247TIP3    H264233   5.286   0.766  16.455  0.7714 -1.6771  0.2358
14248TIP3   OH264234   6.307   1.472   5.883 -0.5540  0.3312 -0.0829
14248TIP3    H164235   6.233   1.509   5.930 -0.5483 -0.0735  0.2600
14248TIP3    H264236   6.340   1.543   5.828 -0.7551  0.7214  0.2973
14249TIP3   OH264237   6.690   1.164   3.403 -0.8118 -0.7532  0.0831
14249TIP3    H164238   6.732   1.250   3.416 -0.6374 -0.9397  0.7678
14249TIP3    H264239   6.687   1.125   3.490  1.3090 -2.4686 -0.5330
14250TIP3   OH264240   0.236   1.984   5.148 -0.5628 -0.3161  0.0804
14250TIP3    H164241   0.251   1.891   5.129 -0.3725  0.1902 -2.7226
14250TIP3    H264242   0.155   2.005   5.102 -0.1757  1.0702 -0.0080
14251TIP3   OH264243   3.016   4.850   0.265  0.1102  0.3244  0.1375
14251TIP3    H164244   3.003   4.917   0.197 -0.3137 -0.7210 -0.8513
14251TIP3    H264245   3.080   4.790   0.227 -0.2834 -0.3888  0.5764
14252TIP3   OH264246   1.744   5.296   2.848 -0.1417 -0.2047  0.3488
14252TIP3    H164247   1.718   5.356   2.919 -0.6683 -1.1924  1.0059
14252TIP3    H264248   1.680   5.311   2.779  0.7705  1.2633 -0.2419
14253TIP3   OH264249   1.439   2.048   4.448  0.1050  0.1386  0.0777
14253TIP3    H164250   1.435   2.143   4.436  0.2362  0.1207 -0.1195
14253TIP3    H264251   1.398   2.013   4.368  1.4322  0.0060 -0.5671
14254TIP3   OH264252   6.277   5.892   5.841  0.0166  0.2450  0.4387
14254TIP3    H164253   6.182   5.882   5.839 -0.0424  0.7224  0.7616
14254TIP3    H264254   6.305   5.872   5.751 -0.5015  1.2301  0.0500
14255TIP3   OH264255   3.532   2.007  14.914 -0.2588  0.4301 -0.0939
14255TIP3    H164256   3.595   1.993  14.844 -1.3495  1.3788 -1.3029
14255TIP3    H264257   3.455   2.043  14.871 -2.0922 -1.6875  1.1422
14256TIP3   OH264258   5.533   2.982  15.816 -0.0317 -0.0789  0.4472
14256TIP3    H164259   5.603   3.008  15.876  0.5717 -0.6253 -0.0048
14256TIP3    H264260   5.529   3.051  15.751 -0.4563  0.3460  0.9151
14257TIP3   OH264261   4.607   3.520  16.453  0.0956  0.1037 -0.3728
14257TIP3    H164262   4.671   3.495  16.386  0.0999  2.1601 -1.2120
14257TIP3    H264263   4.529   3.468  16.432  0.9389 -1.1944 -0.3566
14258TIP3   OH264264   4.601   5.117  16.939 -0.2120 -0.2508  0.5948
14258TIP3    H164265   4.615   5.197  16.888  0.4643 -1.5382 -1.3619
14258TIP3    H264266   4.515   5.086  16.911  0.1304 -0.9368  0.2906
14259TIP3   OH264267   2.624   4.161   3.145 -0.3562 -0.8265  0.1784
14259TIP3    H164268   2.614   4.111   3.065 -1.5757 -0.9520  0.3856
14259TIP3    H264269   2.580   4.108   3.212 -1.5695  0.4220  0.4209
14260TIP3   OH264270   0.585   3.073   1.628  0.1609  0.1027  0.0403
14260TIP3    H164271   0.678   3.055   1.610 -0.0785 -0.0034 -1.1994
14260TIP3    H264272   0.585   3.160   1.669  0.9690 -0.8136  2.1568
14261TIP3   OH264273   4.766   4.081  11.610 -0.1048  0.6146  1.0020
14261TIP3    H164274   4.774   3.988  11.587  0.8754  1.3395 -2.0217
14261TIP3    H264275   4.821   4.090  11.689 -0.8730 -1.4661  1.8659
14262TIP3   OH264276   2.590   5.473   0.627 -0.1601 -0.3117  0.1996
14262TIP3    H164277   2.498   5.471   0.599  0.0904 -0.5074 -0.6408
14262TIP3    H264278   2.586   5.499   0.719 -0.9281  1.7147 -0.3435
14263TIP3   OH264279   3.624   5.767   6.372  0.2038 -0.1152  0.6009
14263TIP3    H164280   3.675   5.847   6.389  1.6072 -1.0668  1.1012
14263TIP3    H264281   3.674   5.721   6.305 -1.1608 -0.1012 -0.4657
14264TIP3   OH264282   5.022   2.200   4.846 -0.3820 -0.3763 -0.2337
14264TIP3    H164283   5.066   2.123   4.809 -0.0523 -0.5901  0.5893
14264TIP3    H264284   5.011   2.179   4.939  0.1963  0.7863  0.1174
14265TIP3   OH264285   3.317   3.177   2.540 -0.6751  0.6950  0.0148
14265TIP3    H164286   3.360   3.095   2.566 -0.5576  1.0059  0.8195
14265TIP3    H264287   3.384   3.244   2.550 -1.0281  1.0208  0.2028
14266TIP3   OH264288   2.389   5.168  13.594 -0.1645 -0.3250 -0.3651
14266TIP3    H164289   2.429   5.245  13.633 -0.4360 -0.7450  0.7623
14266TIP3    H264290   2.459   5.127  13.543 -0.1038  0.8207 -1.2482
14267TIP3   OH264291   6.406   2.737  14.267  0.4092  0.3443 -0.3360
14267TIP3    H164292   6.374   2.824  14.243 -0.7573 -0.1959 -0.8306
14267TIP3    H264293   6.328   2.691  14.299  0.5253 -1.2232 -2.1350
14268TIP3   OH264294   4.901   2.484  15.469 -0.1047  0.0609  0.0008
14268TIP3    H164295   4.868   2.437  15.546  1.2990  1.4712  1.5382
14268TIP3    H264296   4.842   2.558  15.459  1.0521  1.2087  1.2458
14269TIP3   OH264297   5.432   1.054  11.577  0.7495 -0.1298 -0.1645
14269TIP3    H164298   5.507   1.072  11.520  0.3738  0.7089 -0.4177
14269TIP3    H264299   5.379   0.991  11.528  0.8756 -0.0844 -0.3606
14270TIP3   OH264300   0.072   2.103   1.800 -0.0462 -0.1915 -0.1112
14270TIP3    H164301  -0.008   2.055   1.781 -0.6033  0.5505  0.3098
14270TIP3    H264302   0.042   2.189   1.831  0.9043  0.6168 -1.2981
14271TIP3   OH264303   6.467   1.747  11.147 -0.3687 -0.3256  0.0533
14271TIP3    H164304   6.441   1.658  11.122 -0.7534 -0.0711 -0.4774
14271TIP3    H264305   6.467   1.796  11.064 -1.6103  0.5381  0.5372
14272TIP3   OH264306   1.714   4.680   1.073  0.1714  0.1099  0.5208
14272TIP3    H164307   1.703   4.657   0.981 -1.3554 -0.3987  0.7976
14272TIP3    H264308   1.764   4.761   1.073  1.9056 -0.9072 -0.6732
14273TIP3   OH264309   5.145   4.240   0.880 -0.5604 -0.4249 -0.9634
14273TIP3    H164310   5.098   4.318   0.849 -2.1319 -1.5420 -1.5284
14273TIP3    H264311   5.226   4.239   0.829 -1.6771 -0.4985 -2.8392
14274TIP3   OH264312   3.959   3.796  12.823 -0.0319  0.1012  0.4538
14274TIP3    H164313   3.957   3.861  12.894  0.0513  0.4832  0.1075
14274TIP3    H264314   3.965   3.848  12.743 -0.7011 -0.3162  0.1285
14275TIP3   OH264315   3.316   5.023  11.083  0.1429 -0.0596  0.3565
14275TIP3    H164316   3.294   4.988  10.997 -0.4963 -1.5982  1.1118
14275TIP3    H264317   3.372   5.099  11.065 -1.5271  0.8271 -1.4625
14276TIP3   OH264318   0.601   1.657  13.553 -0.0923 -0.2230 -0.3910
14276TIP3    H164319   0.622   1.568  13.583  3.0847  0.8871  1.0946
14276TIP3    H264320   0.515   1.674  13.590  0.8270 -1.3802  2.6379
14277TIP3   OH264321   6.087   4.634   4.102 -0.0768  0.1018  0.3476
14277TIP3    H164322   6.150   4.622   4.173 -1.2431  1.0060  1.5966
14277TIP3    H264323   6.138   4.620   4.022  1.4972 -0.0306  1.3229
14278TIP3   OH264324   0.436   5.473   4.221  0.3263  0.2694  0.9965
14278TIP3    H164325   0.476   5.498   4.305  2.3728  2.0254 -0.4110
14278TIP3    H264326   0.477   5.389   4.199  0.5172  0.2924  1.2560
14279TIP3   OH264327   4.636   6.782  15.320  0.4401  0.0046 -0.1702
14279TIP3    H164328   4.627   6.799  15.227  3.0398  1.3082 -0.2732
14279TIP3    H264329   4.647   6.687  15.326  0.1907 -0.0991 -1.1885
14280TIP3   OH264330   6.814   5.846   4.204 -0.2397  0.1482  0.0623
14280TIP3    H164331   6.734   5.894   4.223 -0.9451 -0.1664 -1.8248
14280TIP3    H264332   6.789   5.784   4.135  1.3013 -0.9696  0.4375
14281TIP3   OH264333   5.828   3.310   5.062 -0.5125  0.6121  0.1404
14281TIP3    H164334   5.848   3.219   5.039 -1.3007  1.0129 -2.5374
14281TIP3    H264335   5.912   3.356   5.055 -0.2819  0.2661  0.5958
14282TIP3   OH264336   4.467   0.784  12.679  0.1028 -0.5678 -0.2176
14282TIP3    H164337   4.462   0.850  12.748 -0.7815  0.6128 -1.3656
14282TIP3    H264338   4.376   0.771  12.651  0.4107 -1.2361 -0.9557
14283TIP3   OH264339   5.997   4.557   1.115  0.9589 -0.4815  0.3905
14283TIP3    H164340   5.905   4.531   1.112  1.1652 -1.3165  0.7637
14283TIP3    H264341   6.005   4.611   1.193  0.8874 -0.8815  0.6810
14284TIP3   OH264342   6.805   5.587  11.213  0.7019 -0.1620 -0.1197
14284TIP3    H164343   6.748   5.560  11.141 -0.9506  1.4135  0.5515
14284TIP3    H264344   6.808   5.510  11.271  1.3989 -1.1579 -1.4303
14285TIP3   OH264345   1.019   4.469  17.197 -0.3230  0.1166 -0.0185
14285TIP3    H164346   0.945   4.485  17.138 -0.1606 -1.3498 -0.6780
14285TIP3    H264347   1.044   4.378  17.179  1.2605  0.3926  0.6217
14286TIP3   OH264348   0.637   4.314  17.063  0.0388 -0.3048  0.2935
14286TIP3    H164349   0.678   4.341  17.145  0.8595  0.2148 -0.2776
14286TIP3    H264350   0.710   4.289  17.006 -0.6025 -2.4128  0.3134
14287TIP3   OH264351   3.800   1.824  12.295  0.9054  0.3426 -0.8340
14287TIP3    H164352   3.759   1.899  12.338  3.0889  1.3727 -0.4512
14287TIP3    H264353   3.828   1.858  12.210  3.2855  0.4842 -0.0697
14288TIP3   OH264354   4.851   2.851  17.227  0.3913  0.2964 -0.0705
14288TIP3    H164355   4.923   2.788  17.222  0.1161 -0.2582  2.0860
14288TIP3    H264356   4.854   2.884  17.316 -2.8233 -0.7541  0.5631
14289TIP3   OH264357   3.866   0.033   5.933  0.3150  0.0595 -0.5227
14289TIP3    H164358   3.799   0.096   5.959 -0.1691 -0.7375  0.1932
14289TIP3    H264359   3.949   0.078   5.950 -0.0011  0.0626  1.1687
14290TIP3   OH264360   3.096   1.236  12.595 -0.7629  0.3371 -0.0074
14290TIP3    H164361   3.179   1.247  12.643  0.1955  2.3453 -1.9274
14290TIP3    H264362   3.121   1.194  12.513 -1.9490 -0.5221  0.0424
14291TIP3   OH264363   5.937   5.629  16.378  0.1575  0.0857  0.7598
14291TIP3    H164364   5.865   5.658  16.323  2.0617 -0.2217 -2.1055
14291TIP3    H264365   5.899   5.560  16.433 -1.3892 -1.4682 -2.0213
14292TIP3   OH264366   4.975   6.768   5.788 -0.1821 -0.2653  0.5354
14292TIP3    H164367   4.953   6.731   5.874 -0.9901  0.8107  0.8061
14292TIP3    H264368   4.893   6.805   5.756  0.4210  0.5440 -0.1032
14293TIP3   OH264369   2.809   4.468  15.053 -0.1123  0.3935 -0.7374
14293TIP3    H164370   2.824   4.374  15.044  0.8117  0.5283 -0.6636
14293TIP3    H264371   2.798   4.500  14.964 -1.9913 -0.0165 -0.6887
14294TIP3   OH264372   2.661   3.933   5.090  0.2073 -0.0659  0.6535
14294TIP3    H164373   2.607   3.854   5.085 -0.1864  0.1284  1.6473
14294TIP3    H264374   2.706   3.936   5.006 -2.4509  0.5748 -0.8843
14295TIP3   OH264375   6.044   0.626   5.077 -0.3333 -0.3366 -0.2042
14295TIP3    H164376   6.002   0.542   5.099 -1.1052  0.7059  2.7601
14295TIP3    H264377   5.982   0.668   5.017 -1.0610 -0.9459  0.0945
14296TIP3   OH264378   2.640   1.898   5.004  0.3798  1.3303  0.3977
14296TIP3    H164379   2.697   1.857   4.940 -0.2826  0.3026  0.4452
14296TIP3    H264380   2.699   1.945   5.062  1.1335  0.7242  0.1381
14297TIP3   OH264381   1.207   5.342  12.974  0.1986 -0.6817 -0.0685
14297TIP3    H164382   1.173   5.349  12.885  3.0035 -0.6207 -1.2651
14297TIP3    H264383   1.293   5.384  12.969 -0.3896  1.2336  3.2332
14298TIP3   OH264384   5.230   2.743  11.694 -0.3752  0.3970  0.5754
14298TIP3    H164385   5.300   2.791  11.738 -0.0737  0.3703  0.1312
14298TIP3    H264386   5.252   2.651  11.709  1.5394  0.2490 -2.2774
14299TIP3   OH264387   0.164   3.404  16.853 -0.1488  0.0083 -0.1009
14299TIP3    H164388   0.203   3.491  16.851  0.5638 -0.2831  0.5021
14299TIP3    H264389   0.220   3.351  16.797  0.4682 -0.4557  0.9152
14300TIP3   OH264390   4.892   3.273  11.448 -0.5434 -0.3374  0.3263
14300TIP3    H164391   4.838   3.207  11.491 -0.2014 -0.3862  0.6787
14300TIP3    H264392   4.938   3.317  11.519 -1.8719  1.2858  0.2329
14301TIP3   OH264393   4.074   5.704  10.710 -0.2168 -0.0242 -0.1295
14301TIP3    H164394   4.127   5.767  10.758 -0.8214 -0.4050  1.0775
14301TIP3    H264395   4.119   5.694  10.626  0.0433  1.7818 -0.2391
14302TIP3   OH264396   4.656   4.267  15.159  0.7224  0.0394 -0.7938
14302TIP3    H164397   4.750   4.271  15.180  0.7377  1.2606 -1.0083
14302TIP3    H264398   4.633   4.174  15.169  0.7760  0.2590  4.4240
14303TIP3   OH264399   1.953   2.772   1.140 -0.1701 -0.0917  0.0519
14303TIP3    H164400   1.868   2.730   1.156  0.0106 -0.7910 -0.7067
14303TIP3    H264401   2.012   2.699   1.119  0.9546  0.2408  1.8360
14304TIP3   OH264402   3.068   1.444  15.649 -0.5684  0.0283  0.0948
14304TIP3    H164403   3.038   1.368  15.598  0.9211 -0.8822  0.5168
14304TIP3    H264404   3.078   1.410  15.738  1.2654  0.3654  0.0504
14305TIP3   OH264405   3.898   5.287  14.541  0.0370  0.1450 -0.1166
14305TIP3    H164406   3.954   5.215  14.572  0.9787  0.8818 -0.0460
14305TIP3    H264407   3.841   5.307  14.614  1.0141  0.6717  0.5209
14306TIP3   OH264408   6.655   3.018   1.787  0.0149  0.0210 -0.3773
14306TIP3    H164409   6.734   3.055   1.827 -1.3652  0.0281  2.6397
14306TIP3    H264410   6.595   3.005   1.861 -2.2901 -1.3272 -2.3485
14307TIP3   OH264411   1.682   0.401   3.897  0.3352 -0.2814  0.0900
14307TIP3    H164412   1.704   0.355   3.816 -0.4290  0.1480 -0.3755
14307TIP3    H264413   1.606   0.353   3.931 -0.9377  1.0442 -0.7870
14308TIP3   OH264414   1.306   4.866  15.758 -0.0795 -0.6326  0.5309
14308TIP3    H164415   1.320   4.892  15.666  0.1930  2.5484  1.3562
14308TIP3    H264416   1.214   4.883  15.774  0.5964  2.4942  1.7497
14309TIP3   OH264417   5.351   4.231  14.939  0.4221 -0.2876  0.7908
14309TIP3    H164418   5.278   4.208  14.996  0.2723 -1.8530  0.0112
14309TIP3    H264419   5.383   4.148  14.905  0.9148  0.5289 -0.8966
14310TIP3   OH264420   4.619   3.514   0.850 -0.2090 -0.7085 -0.1452
14310TIP3    H164421   4.567   3.513   0.769  0.2770 -0.7294 -0.4616
14310TIP3    H264422   4.700   3.467   0.828 -0.2626 -1.1102  0.4884
14311TIP3   OH264423   2.980   1.064   1.242 -0.0792  0.9731 -0.2692
14311TIP3    H164424   2.952   1.003   1.310 -0.8629 -1.1503 -2.3654
14311TIP3    H264425   2.919   1.138   1.250 -1.5704 -0.2422 -0.0385
14312TIP3   OH264426   4.499   6.569  15.699 -0.3363  0.6342 -0.2453
14312TIP3    H164427   4.481   6.636  15.764 -0.9889  0.1290  0.1044
14312TIP3    H264428   4.413   6.537  15.673 -0.0524  0.3359 -0.8391
14313TIP3   OH264429   5.108   4.289   0.140 -0.8457 -0.2705  0.2652
14313TIP3    H164430   5.035   4.279   0.202 -0.9861 -0.6024  0.0460
14313TIP3    H264431   5.176   4.231   0.175  0.9335  3.0089  2.8299
14314TIP3   OH264432   6.150   2.382   3.831 -0.2974 -0.3881  0.2346
14314TIP3    H164433   6.160   2.287   3.835 -0.9047 -0.4256  3.0923
14314TIP3    H264434   6.162   2.412   3.922  1.5361  2.4838 -0.8013
14315TIP3   OH264435   3.798   5.009  15.994  0.0251  0.0768  0.5997
14315TIP3    H164436   3.776   5.049  16.077 -1.8146 -0.6561  0.5022
14315TIP3    H264437   3.714   4.987  15.954  0.8634  0.0651 -1.2873
14316TIP3   OH264438   3.674   1.155   5.541  0.6179  0.1230 -0.4962
14316TIP3    H164439   3.589   1.148   5.584  0.9351  0.4485  0.2105
14316TIP3    H264440   3.678   1.246   5.511  2.2117  1.3170  2.8220
14317TIP3   OH264441   3.496   2.858   1.922 -0.2801 -0.3528 -0.7147
14317TIP3    H164442   3.547   2.837   1.844  2.8595  1.3898  0.7050
14317TIP3    H264443   3.477   2.773   1.961  0.1868 -1.1338 -2.1172
14318TIP3   OH264444   1.582   0.553   5.818 -0.0126 -0.5716  0.2249
14318TIP3    H164445   1.635   0.474   5.826  1.1929  0.3324  1.9568
14318TIP3    H264446   1.526   0.553   5.896 -0.7602 -0.2297 -0.2952
14319TIP3   OH264447   5.909   3.063  15.797 -0.5419  0.2373 -0.1315
14319TIP3    H164448   5.981   3.000  15.797  1.3140  2.2546 -1.2959
14319TIP3    H264449   5.911   3.103  15.884 -0.4346  0.1111 -0.0762
14320TIP3   OH264450   4.512   4.371   2.046 -0.3338  0.3627 -0.0123
14320TIP3    H164451   4.495   4.372   2.140  0.8558 -0.5355  0.2265
14320TIP3    H264452   4.594   4.322   2.036 -1.0322 -0.5748 -1.6074
14321TIP3   OH264453   0.975   2.441  10.566 -0.1463  0.5231  0.4456
14321TIP3    H164454   0.984   2.534  10.583  1.3479  1.0272 -2.5011
14321TIP3    H264455   0.970   2.434  10.470 -0.1999 -2.4078  0.5694
14322TIP3   OH264456   1.747   5.641  13.569  0.1547 -0.2992  0.3322
14322TIP3    H164457   1.705   5.617  13.486 -0.9670 -1.2319  1.1372
14322TIP3    H264458   1.703   5.587  13.635 -0.2636  1.7163  1.8070
14323TIP3   OH264459   4.379   4.166  12.910  0.5050 -0.0513 -0.3301
14323TIP3    H164460   4.320   4.172  12.835 -0.5657 -0.0234  0.4888
14323TIP3    H264461   4.445   4.101  12.883  0.2118  0.0370 -1.3256
14324TIP3   OH264462   1.219   1.052   1.263  0.5022 -0.4673 -0.2433
14324TIP3    H164463   1.172   1.123   1.219 -3.0264 -2.3725  0.0728
14324TIP3    H264464   1.247   1.090   1.346 -0.6168  0.7982 -0.3973
14325TIP3   OH264465   2.868   3.273   5.304  0.3150 -0.6014 -0.1758
14325TIP3    H164466   2.914   3.198   5.266  2.1284 -0.0577  0.8194
14325TIP3    H264467   2.930   3.345   5.297  0.1519 -0.1197  2.3671
14326TIP3   OH264468   1.417   3.143   0.138  0.7505 -0.1304 -0.2457
14326TIP3    H164469   1.450   3.163   0.050  0.0587  0.4851 -0.3693
14326TIP3    H264470   1.370   3.222   0.165 -1.7591 -1.4106 -0.6079
14327TIP3   OH264471   5.206   0.502   3.215  0.1284  0.1949  0.3237
14327TIP3    H164472   5.230   0.411   3.196  1.5967  0.8192 -1.0759
14327TIP3    H264473   5.236   0.516   3.305  0.3588 -0.5620  0.3758
14328TIP3   OH264474   1.300   3.536  13.516 -0.0541 -0.2998  0.1717
14328TIP3    H164475   1.323   3.617  13.471 -1.7787 -0.4945 -1.1415
14328TIP3    H264476   1.218   3.557  13.561  0.3179 -0.8787  1.1487
14329TIP3   OH264477   6.224   5.315  12.782 -0.4241  0.2033  0.3687
14329TIP3    H164478   6.263   5.265  12.710  1.4469 -0.5134  1.7966
14329TIP3    H264479   6.200   5.399  12.742 -0.1135 -0.4234 -1.2339
14330TIP3   OH264480   4.587   6.376  12.735 -0.1949 -0.5540  0.9943
14330TIP3    H164481   4.567   6.426  12.656 -0.4825 -0.7404  0.9472
14330TIP3    H264482   4.683   6.374  12.739 -0.1561 -1.4124  0.0901
14331TIP3   OH264483   5.602   0.360   3.471  0.3531 -0.1286 -0.2289
14331TIP3    H164484   5.635   0.392   3.387 -0.2811  1.5845  0.1459
14331TIP3    H264485   5.585   0.439   3.522 -0.8604 -1.0834  0.9111
14332TIP3   OH264486   3.309   1.963   3.402  0.1665  0.7467  0.1520
14332TIP3    H164487   3.321   1.871   3.422  0.5581  0.8131  0.2190
14332TIP3    H264488   3.299   2.006   3.487  0.3583  0.8177  0.1399
14333TIP3   OH264489   2.398   2.494   3.288 -0.5762  0.1418 -0.1018
14333TIP3    H164490   2.338   2.426   3.319 -1.0578  0.4702 -0.2854
14333TIP3    H264491   2.379   2.501   3.194  1.0582 -1.0367 -0.5541
14334TIP3   OH264492   2.455   6.001   0.882 -0.6596  0.3697  0.1146
14334TIP3    H164493   2.515   5.947   0.831 -1.2265  0.6002 -0.8328
14334TIP3    H264494   2.436   6.075   0.825 -2.0055  0.1936  0.3019
14335TIP3   OH264495   1.368   6.536  12.777 -0.3566 -0.0109  0.2971
14335TIP3    H164496   1.431   6.471  12.745 -0.3046 -0.3777  1.1329
14335TIP3    H264497   1.418   6.589  12.838 -0.9002 -0.4283  1.1188
14336TIP3   OH264498   4.658   3.801   0.789  0.0632  0.1737  0.0408
14336TIP3    H164499   4.639   3.708   0.801  1.4700 -0.0252  1.0754
14336TIP3    H264500   4.607   3.827   0.712 -0.0408 -1.5438 -0.5075
14337TIP3   OH264501   3.800   3.531   3.388 -1.0323  1.0318 -0.4155
14337TIP3    H164502   3.807   3.610   3.442 -0.8004  0.0286  1.0893
14337TIP3    H264503   3.891   3.504   3.374 -1.1116 -0.3651  1.3137
14338TIP3   OH264504   5.229   0.898  15.372 -0.0393 -0.4105  0.0743
14338TIP3    H164505   5.197   0.924  15.459 -0.3859  0.3047 -0.2602
14338TIP3    H264506   5.156   0.850  15.333 -1.4204  2.5588 -1.3054
14339TIP3   OH264507   4.530   4.470  10.711  0.6913  0.0330  0.2296
14339TIP3    H164508   4.470   4.527  10.760 -1.1048 -0.9440 -0.7204
14339TIP3    H264509   4.520   4.497  10.620  0.4562 -1.1959 -0.1287
14340TIP3   OH264510   3.007   3.180   2.190 -0.3049 -0.0503  0.8220
14340TIP3    H164511   2.979   3.257   2.239 -1.3509  0.3491 -0.3507
14340TIP3    H264512   2.987   3.201   2.099 -0.5437 -1.6837  0.4669
14341TIP3   OH264513   5.643   3.652  14.920  0.1739 -0.1752 -0.0486
14341TIP3    H164514   5.594   3.651  15.002  0.9922  0.0128  0.4607
14341TIP3    H264515   5.728   3.614  14.943 -0.2065 -1.8547 -1.2343
14342TIP3   OH264516   5.588   2.422  15.854 -0.2003  0.0520 -0.1540
14342TIP3    H164517   5.670   2.416  15.903 -0.0155 -0.4771 -0.5123
14342TIP3    H264518   5.581   2.514  15.830  1.3421 -0.2136 -1.8565
14343TIP3   OH264519   1.235   3.778   3.393  0.5249 -0.1132  0.2594
14343TIP3    H164520   1.236   3.848   3.327 -0.2620  1.1925  1.5608
14343TIP3    H264521   1.143   3.752   3.399  0.5906 -0.2368  0.8026
14344TIP3   OH264522   2.291   3.724   5.074 -0.4789  0.6563  0.4650
14344TIP3    H164523   2.294   3.628   5.073  3.5696  0.6096  0.8404
14344TIP3    H264524   2.253   3.748   4.990 -0.3296 -1.2967 -0.1987
14345TIP3   OH264525   6.724   2.561   0.953  0.0742 -0.1801  0.5364
14345TIP3    H164526   6.725   2.466   0.948 -1.4059 -0.1807 -1.0564
14345TIP3    H264527   6.781   2.583   1.026  4.6312 -2.0619 -2.0267
14346TIP3   OH264528   6.347   1.174  14.201 -0.2327 -0.1346  0.6537
14346TIP3    H164529   6.391   1.211  14.277 -2.0212  2.0204  0.7465
14346TIP3    H264530   6.272   1.127  14.237 -2.0968  2.3287  0.3062
14347TIP3   OH264531   6.735   5.002   0.643 -0.3545 -0.3939 -0.3730
14347TIP3    H164532   6.740   5.074   0.580 -1.8529  0.1368  0.0679
14347TIP3    H264533   6.646   5.006   0.676  0.2420 -0.9679  1.4225
14348TIP3   OH264534   2.766   6.062  16.035  0.5007 -0.0960 -0.2602
14348TIP3    H164535   2.698   5.995  16.029 -1.1386  1.5849 -2.2391
14348TIP3    H264536   2.722   6.137  16.075  2.0047  0.1869  0.9475
14349TIP3   OH264537   2.222   4.823   3.167  0.0294 -0.0490 -0.5439
14349TIP3    H164538   2.164   4.805   3.242  1.3151 -2.0372  0.0409
14349TIP3    H264539   2.246   4.737   3.134  1.2686  0.7703 -1.8884
14350TIP3   OH264540   4.374   0.917  13.150 -0.2158  0.0779 -0.5720
14350TIP3    H164541   4.396   0.911  13.057  1.7744  0.0207 -0.1422
14350TIP3    H264542   4.293   0.866  13.159 -0.8541  0.7151 -2.3771
14351TIP3   OH264543   0.186   0.173   5.528  0.3630 -0.4507 -0.1455
14351TIP3    H164544   0.273   0.206   5.551 -0.4806 -0.3357  3.4888
14351TIP3    H264545   0.138   0.251   5.500  0.7103 -0.0244  0.4114
14352TIP3   OH264546   4.460   2.889   2.496  0.0475  0.7787 -0.3153
14352TIP3    H164547   4.380   2.884   2.549  2.0068  3.4544  3.3825
14352TIP3    H264548   4.464   2.980   2.467  2.0756  0.9491  0.3233
14353TIP3   OH264549   1.768   2.354  13.827 -0.3780 -0.3247 -0.3816
14353TIP3    H164550   1.802   2.336  13.739 -0.1851  0.0647 -0.3890
14353TIP3    H264551   1.730   2.441  13.821 -0.0793 -0.1641  0.0010
14354TIP3   OH264552   0.392   5.505  15.521 -0.4161 -0.6467  0.2413
14354TIP3    H164553   0.463   5.470  15.467 -0.6299 -1.2781  0.3660
14354TIP3    H264554   0.314   5.497  15.466 -0.4655 -0.3502  0.2655
14355TIP3   OH264555   1.581   2.980   2.674 -0.7032 -0.1923  0.6871
14355TIP3    H164556   1.673   3.005   2.682 -0.4686 -0.6775 -0.2900
14355TIP3    H264557   1.584   2.887   2.650 -1.5047 -0.7563  2.5930
14356TIP3   OH264558   6.723   4.662  14.099 -0.3374  0.1910  0.2544
14356TIP3    H164559   6.729   4.603  14.023  0.4392  0.7622 -0.1547
14356TIP3    H264560   6.723   4.604  14.175  0.1513 -0.3551 -0.1505
14357TIP3   OH264561   1.171   6.155   3.152 -0.0833 -0.2448 -0.3299
14357TIP3    H164562   1.092   6.164   3.204  0.3996  0.3814  0.3185
14357TIP3    H264563   1.221   6.235   3.170  1.5562 -1.4618  0.7813
14358TIP3   OH264564   4.456   3.940  14.721  0.2715 -0.2590  0.2797
14358TIP3    H164565   4.490   3.993  14.648  0.0824  0.6822  0.8561
14358TIP3    H264566   4.365   3.924  14.698  0.2299 -0.0171  0.2659
14359TIP3   OH264567   3.826   0.114  13.158 -0.3608 -0.2223  0.1545
14359TIP3    H164568   3.918   0.107  13.181  0.1842  1.6710 -1.2062
14359TIP3    H264569   3.817   0.061  13.078  0.2101  1.7302 -1.2578
14360TIP3   OH264570   1.417   5.451   6.328 -0.6641 -0.4068 -0.2588
14360TIP3    H164571   1.488   5.398   6.290 -1.9906 -1.3532 -1.5393
14360TIP3    H264572   1.390   5.401   6.405  0.1945  0.0805  0.3740
14361TIP3   OH264573   3.248   6.333  15.472 -0.0702 -0.4490  0.1788
14361TIP3    H164574   3.287   6.252  15.439  0.1210 -0.4964  0.5150
14361TIP3    H264575   3.323   6.391  15.488 -0.2459  0.0392 -0.6929
14362TIP3   OH264576   5.764   5.980  14.682 -0.4603  0.9093  0.1061
14362TIP3    H164577   5.717   5.962  14.763  0.6135  2.0936  1.0403
14362TIP3    H264578   5.778   6.075  14.683  2.2683  0.5916  0.1072
14363TIP3   OH264579   0.292   1.999   5.617  0.2805  0.9043  0.2241
14363TIP3    H164580   0.292   1.914   5.575 -0.8084  1.3305 -0.6787
14363TIP3    H264581   0.305   1.980   5.710 -0.1132 -0.2520  0.0530
14364TIP3   OH264582   2.039   3.835  15.316  0.4548 -0.5542  0.0932
14364TIP3    H164583   1.956   3.836  15.267  0.5255  0.0443 -0.0163
14364TIP3    H264584   2.016   3.797  15.401 -0.2964  1.1931  0.7020
14365TIP3   OH264585   0.938   3.978  15.945 -0.1972  0.2593  0.0854
14365TIP3    H164586   0.986   4.058  15.924 -0.5640  0.0423 -1.7105
14365TIP3    H264587   1.003   3.908  15.941 -0.0999  0.3219  0.5375
14366TIP3   OH264588   0.345   3.887  11.773  0.7799 -1.2356 -0.5836
14366TIP3    H164589   0.274   3.824  11.760 -0.6972  0.2817 -0.4130
14366TIP3    H264590   0.349   3.936  11.691  0.2850 -0.0852  0.0360
14367TIP3   OH264591   1.571   3.906   3.591  0.5022  0.1894  0.0392
14367TIP3    H164592   1.516   3.835   3.624  0.1250  0.2806 -0.3985
14367TIP3    H264593   1.516   3.952   3.528  0.9281  0.5496 -0.0702
14368TIP3   OH264594   2.948   3.103  13.608  0.3963  0.8716  0.2095
14368TIP3    H164595   2.996   3.153  13.674 -0.3535  0.4461  1.1054
14368TIP3    H264596   3.001   3.110  13.529  2.7150 -0.8093  1.5053
14369TIP3   OH264597   6.400   2.113  13.974  0.5948  0.1668  0.3561
14369TIP3    H164598   6.440   2.033  14.007  1.1010 -0.2641 -1.2111
14369TIP3    H264599   6.360   2.087  13.891 -0.5939  1.2042  0.5670
14370TIP3   OH264600   4.615   5.859  12.165  0.0169 -0.0370 -0.2462
14370TIP3    H164601   4.657   5.824  12.087  0.2410  2.5760 -1.3807
14370TIP3    H264602   4.553   5.790  12.191 -0.0538 -1.0047 -2.6902
14371TIP3   OH264603   4.238   6.797   1.011 -0.4215  0.2718 -0.0552
14371TIP3    H164604   4.204   6.719   1.057 -1.1048  0.3592 -0.3930
14371TIP3    H264605   4.328   6.806   1.042  0.0494 -1.2990 -0.8210
14372TIP3   OH264606   6.740   3.119  11.542 -0.0304  0.3328  0.1827
14372TIP3    H164607   6.768   3.205  11.573  1.4338  0.8083 -2.1392
14372TIP3    H264608   6.794   3.104  11.464 -2.6239 -1.1815 -1.4669
14373TIP3   OH264609   1.388   2.966   6.647  0.0717  0.1257  0.2243
14373TIP3    H164610   1.462   3.002   6.696 -1.2146  3.6283 -0.1159
14373TIP3    H264611   1.414   2.973   6.555  0.4171 -1.4787  0.1674
14374TIP3   OH264612   4.453   5.302  12.071 -0.0641  0.5179  0.4773
14374TIP3    H164613   4.451   5.310  12.166 -1.3397 -0.4218  0.5539
14374TIP3    H264614   4.542   5.273  12.051  0.3856  1.2655  1.3146
14375TIP3   OH264615   6.364   2.525   3.558 -0.0959 -0.0257  0.2920
14375TIP3    H164616   6.294   2.516   3.493  2.1995 -0.3624 -2.3501
14375TIP3    H264617   6.410   2.441   3.555  0.5734  0.2597  1.7613
14376TIP3   OH264618   0.479   4.487  11.222  0.2373  0.8320 -0.0962
14376TIP3    H164619   0.569   4.468  11.249  0.8484  2.6716 -0.7106
14376TIP3    H264620   0.440   4.531  11.298  0.2770  1.2356 -0.3113
14377TIP3   OH264621   5.770   1.795   4.460 -1.0441  0.0626 -0.4404
14377TIP3    H164622   5.837   1.739   4.420 -0.5175 -0.8037  1.5429
14377TIP3    H264623   5.735   1.845   4.387 -0.1024 -1.3869 -1.9752
14378TIP3   OH264624   6.450   1.503  16.012 -0.2640  0.2543 -0.2818
14378TIP3    H164625   6.456   1.539  16.101 -1.2957  1.5509 -0.7111
14378TIP3    H264626   6.496   1.567  15.958  1.1388 -0.9723 -0.6037
14379TIP3   OH264627   5.036   6.579  16.474  0.0742 -0.1374 -0.1910
14379TIP3    H164628   5.125   6.549  16.461  0.1303 -0.6428  1.2359
14379TIP3    H264629   4.983   6.499  16.476 -0.3062  0.1078 -0.2513
14380TIP3   OH264630   2.412   3.462  11.130  0.6365  0.1314 -0.2549
14380TIP3    H164631   2.363   3.470  11.048  0.9191 -0.0707 -0.4450
14380TIP3    H264632   2.348   3.481  11.198  0.4205  0.3829 -0.5270
14381TIP3   OH264633   4.840   5.463   5.416 -0.1351 -0.4397  0.5494
14381TIP3    H164634   4.814   5.541   5.366  0.0974 -0.5495  0.2524
14381TIP3    H264635   4.770   5.451   5.480 -0.3477 -0.1908  0.3679
14382TIP3   OH264636   6.148   5.566  16.200  0.1857  0.6927  0.1933
14382TIP3    H164637   6.085   5.578  16.271  1.5534  1.0074  1.3884
14382TIP3    H264638   6.159   5.471  16.193  0.6145  0.6853  0.9259
14383TIP3   OH264639   1.709   6.479  12.358  0.0446 -0.0179 -0.0301
14383TIP3    H164640   1.712   6.387  12.333 -0.1804 -0.0138 -0.0789
14383TIP3    H264641   1.798   6.501  12.383 -0.1796 -0.6601  1.4446
14384TIP3   OH264642   6.155   4.643  14.054  0.0254 -0.0438 -0.1030
14384TIP3    H164643   6.089   4.575  14.036  0.8906 -1.0184  0.3292
14384TIP3    H264644   6.236   4.607  14.020  0.1552  1.6682 -1.7315
14385TIP3   OH264645   3.584   3.780   2.447 -0.1626  0.0278  0.0856
14385TIP3    H164646   3.509   3.773   2.505  0.0514 -1.2187  0.2468
14385TIP3    H264647   3.565   3.718   2.376 -0.9247  2.2671 -1.8005
14386TIP3   OH264648   0.651   5.249  12.855  0.0052  0.4209  0.4189
14386TIP3    H164649   0.632   5.201  12.936 -2.1133 -1.6042 -1.1412
14386TIP3    H264650   0.655   5.181  12.788 -0.2158  2.1901 -1.4752
14387TIP3   OH264651   4.092   4.533   5.277  0.5547 -0.3466  0.0207
14387TIP3    H164652   3.998   4.517   5.287  0.3483 -0.5122 -1.7638
14387TIP3    H264653   4.097   4.613   5.224  1.4466  0.1611  0.8437
14388TIP3   OH264654   6.278   4.482  13.400 -0.4599  0.1801 -0.4584
14388TIP3    H164655   6.188   4.459  13.375  0.0849 -1.3204 -1.1438
14388TIP3    H264656   6.324   4.398  13.402  0.4178  0.6419  2.0575
14389TIP3   OH264657   0.088   0.017  13.504  0.1079  1.0643 -0.2203
14389TIP3    H164658   0.080  -0.078  13.513  0.1367  0.9523 -1.1765
14389TIP3    H264659   0.163   0.029  13.445 -0.2265  1.6480 -0.5432
14390TIP3   OH264660   2.481   6.273   0.764 -0.5709 -0.5203 -0.0973
14390TIP3    H164661   2.479   6.365   0.791 -0.3657 -0.2413 -0.9817
14390TIP3    H264662   2.490   6.277   0.668 -0.0285 -1.4589 -0.0936
14391TIP3   OH264663   5.482   6.228  15.512  0.1503 -0.1633 -0.3944
14391TIP3    H164664   5.501   6.205  15.603  1.2839 -0.8352 -0.7738
14391TIP3    H264665   5.557   6.281  15.485  0.1620 -0.5408 -1.1296
14392TIP3   OH264666   5.811   6.491  14.842  0.3136  0.3297 -0.2308
14392TIP3    H164667   5.759   6.569  14.865  1.8124  1.2611  0.1665
14392TIP3    H264668   5.864   6.519  14.768 -0.4983 -0.9519 -1.3373
14393TIP3   OH264669   5.632   0.118   0.141  0.2289  0.0019 -0.5606
14393TIP3    H164670   5.716   0.088   0.105 -0.2145  0.6360 -2.2578
14393TIP3    H264671   5.633   0.091   0.232  1.7775 -1.0520 -0.8568
14394TIP3   OH264672   0.892   4.440   0.460 -0.2697  0.1667 -0.1312
14394TIP3    H164673   0.841   4.444   0.378 -0.1227 -1.4258 -0.3224
14394TIP3    H264674   0.875   4.525   0.502  0.2687  1.3451 -2.1588
14395TIP3   OH264675   1.939   5.348  12.072 -0.3598  0.0096 -0.3390
14395TIP3    H164676   1.993   5.299  12.134 -1.2466 -0.7618 -0.1638
14395TIP3    H264677   2.002   5.385  12.009  0.4887  0.2645  0.6327
14396TIP3   OH264678   4.950   0.400  14.262  0.2629 -0.1773 -0.2153
14396TIP3    H164679   5.011   0.474  14.270  1.7239 -1.3754  0.4157
14396TIP3    H264680   4.953   0.358  14.349 -0.7966 -0.7810 -0.4539
14397TIP3   OH264681   3.999   3.509  14.499 -0.3053 -0.7761  0.0302
14397TIP3    H164682   4.029   3.588  14.542 -1.6259 -0.9180  1.2767
14397TIP3    H264683   4.073   3.448  14.507  0.0194 -0.3029  0.7713
14398TIP3   OH264684   4.282   2.896  16.050 -0.3046  0.5691 -0.2874
14398TIP3    H164685   4.358   2.858  16.007  0.0651 -0.2691  1.0435
14398TIP3    H264686   4.244   2.823  16.100 -1.5130  1.1676 -0.3110
14399TIP3   OH264687   2.203   2.171   0.105 -0.1209  0.5485  0.3683
14399TIP3    H164688   2.127   2.115   0.090  0.6132  0.0351 -1.7885
14399TIP3    H264689   2.196   2.239   0.039  1.8603 -0.1699 -0.6609
14400TIP3   OH264690   2.549   0.739   1.892  0.6961  0.6408 -0.2621
14400TIP3    H164691   2.642   0.721   1.910  1.0156  2.2252 -0.1654
14400TIP3    H264692   2.504   0.710   1.971  0.6339 -3.1010 -1.4606
14401TIP3   OH264693   5.157   2.548  10.998 -0.3414  0.1669 -0.3697
14401TIP3    H164694   5.248   2.568  11.018 -1.0882  1.6374  1.8862
14401TIP3    H264695   5.118   2.524  11.082 -2.4039  1.1406 -0.9672
14402TIP3   OH264696   1.660   5.185   2.138  0.3022 -0.1645 -0.3907
14402TIP3    H164697   1.611   5.258   2.178  0.6257  0.7344 -1.5788
14402TIP3    H264698   1.709   5.226   2.067  0.7044 -1.5205 -0.9095
14403TIP3   OH264699   0.852   1.121   1.938  0.1765 -0.3781 -0.0667
14403TIP3    H164700   0.816   1.047   1.987 -0.0699  1.4446  2.6667
14403TIP3    H264701   0.912   1.080   1.875 -0.6452 -2.9384  0.6768
14404TIP3   OH264702   6.062   1.526   4.998  0.4851 -0.0541 -0.2336
14404TIP3    H164703   6.129   1.519   4.930  0.9771 -0.3203  0.2692
14404TIP3    H264704   5.988   1.569   4.955  1.3146  1.0983 -0.5424
14405TIP3   OH264705   1.173   5.505  12.211  0.1377 -0.0837 -0.7234
14405TIP3    H164706   1.215   5.431  12.257  0.5921  1.1752  1.0014
14405TIP3    H264707   1.227   5.518  12.134  0.1855 -1.3963 -0.9483
14406TIP3   OH264708   1.471   4.055   5.692 -0.0652  0.1447 -0.0685
14406TIP3    H164709   1.475   4.149   5.704 -1.3410  0.0364  1.5765
14406TIP3    H264710   1.431   4.022   5.773  0.6495 -1.8389 -0.4546
14407TIP3   OH264711   1.195   5.035   0.851 -0.3220 -0.2901  0.0589
14407TIP3    H164712   1.109   4.998   0.829 -0.4073  0.4919 -1.0346
14407TIP3    H264713   1.258   4.978   0.808 -0.3137 -0.6845  0.5974
14408TIP3   OH264714   4.645   0.444  15.560 -0.0235 -0.3787 -0.4391
14408TIP3    H164715   4.669   0.519  15.505 -3.2694  0.6117 -0.7668
14408TIP3    H264716   4.598   0.385  15.501 -2.2469 -0.0078  0.8470
14409TIP3   OH264717   2.861   0.502  16.631  0.7799 -0.4975  0.4824
14409TIP3    H164718   2.907   0.582  16.659  0.8463 -0.8956  1.5831
14409TIP3    H264719   2.904   0.477  16.549  1.3804  0.0868  0.6057
14410TIP3   OH264720   2.200   6.245   5.399 -0.2779 -0.4350  0.1419
14410TIP3    H164721   2.264   6.264   5.330 -1.1798  1.2272 -0.3017
14410TIP3    H264722   2.245   6.185   5.458  1.8385  0.9470  0.0238
14411TIP3   OH264723   0.820   5.253   5.037 -0.0626 -0.4837 -0.4278
14411TIP3    H164724   0.898   5.197   5.030  0.6314  0.6000 -1.6006
14411TIP3    H264725   0.837   5.326   4.978 -2.3916 -0.6805 -1.4457
14412TIP3   OH264726   2.861   3.593  11.851  0.6213  0.0517  0.1890
14412TIP3    H164727   2.862   3.570  11.758  1.1161 -0.7743  0.3828
14412TIP3    H264728   2.803   3.669  11.857  1.2814  0.6698 -0.9188
14413TIP3   OH264729   0.946   4.502  15.138 -0.3642  0.5622 -0.5264
14413TIP3    H164730   0.940   4.589  15.100 -1.6804  0.9161  0.4175
14413TIP3    H264731   0.939   4.516  15.232  1.4706 -0.4000 -0.2014
14414TIP3   OH264732   4.903   6.070  12.128  0.5723  0.2366  0.4135
14414TIP3    H164733   4.960   5.994  12.138  0.6214  0.2699  0.3850
14414TIP3    H264734   4.828   6.037  12.079  0.5658  0.1927  0.4528
14415TIP3   OH264735   6.550   3.060   0.889  0.3748 -0.0291 -0.1555
14415TIP3    H164736   6.528   3.045   0.981  1.3930  1.3221  0.3364
14415TIP3    H264737   6.645   3.072   0.888  0.1891  1.8741 -1.0604
14416TIP3   OH264738   4.459   4.197  11.186 -0.4771 -0.3525  0.2497
14416TIP3    H164739   4.375   4.238  11.206  0.3417  2.0401 -0.8060
14416TIP3    H264740   4.485   4.155  11.268 -1.4518  1.2184  1.4353
14417TIP3   OH264741   6.214   6.093  11.799 -0.3461 -0.2263  0.1010
14417TIP3    H164742   6.222   6.032  11.873 -1.7953 -0.0404  0.4272
14417TIP3    H264743   6.120   6.099  11.782 -0.0689  0.1214 -1.4566
14418TIP3   OH264744   0.947   5.942   2.596  0.0794 -0.2846  0.0266
14418TIP3    H164745   0.923   6.023   2.641  2.1424  1.6251 -2.0440
14418TIP3    H264746   0.989   5.889   2.664  0.7470  1.3642  0.9718
14419TIP3   OH264747   6.431   4.458  13.138  0.0012 -0.5165  0.4159
14419TIP3    H164748   6.367   4.390  13.122 -1.4117  0.7364  0.5253
14419TIP3    H264749   6.395   4.510  13.210  0.1018  1.3960 -0.8266
14420TIP3   OH264750   4.389   3.412  15.884 -0.1765 -0.1890  0.0058
14420TIP3    H164751   4.314   3.449  15.930 -0.0818  0.0482 -0.0248
14420TIP3    H264752   4.371   3.319  15.877  0.5317 -0.5166  1.9394
14421TIP3   OH264753   4.369   5.262   4.972 -0.1270  0.5079  0.3519
14421TIP3    H164754   4.299   5.272   5.038 -0.1057  2.0638  0.1851
14421TIP3    H264755   4.331   5.206   4.905 -0.2521 -0.8865  1.5174
14422TIP3   OH264756   2.328   5.483   5.404  0.2789 -0.4790  0.3695
14422TIP3    H164757   2.269   5.527   5.342  3.2672 -0.1237 -2.4791
14422TIP3    H264758   2.345   5.398   5.363  0.2720 -1.3738  2.1447
14423TIP3   OH264759   5.064   2.608   5.110 -0.0985 -0.2706  0.0231
14423TIP3    H164760   5.105   2.682   5.153 -1.3704 -0.1334  1.0487
14423TIP3    H264761   4.993   2.647   5.058  0.0570 -0.6504 -0.4864
14424TIP3   OH264762   6.762   0.709   5.668  0.0213  0.2358 -0.4936
14424TIP3    H164763   6.748   0.631   5.723 -0.9123  0.7092 -0.0200
14424TIP3    H264764   6.853   0.734   5.684 -0.0295 -0.0485  0.3070
14425TIP3   OH264765   1.233   4.852  15.064  0.2356 -0.3512 -0.2253
14425TIP3    H164766   1.266   4.763  15.077 -0.6459 -0.6649 -0.0314
14425TIP3    H264767   1.211   4.855  14.971  0.9851 -0.0706 -0.4021
14426TIP3   OH264768   2.276   5.922  15.384  0.2814 -0.1935 -0.6178
14426TIP3    H164769   2.310   5.834  15.373 -0.6987 -0.5759 -0.6036
14426TIP3    H264770   2.341   5.965  15.440  0.4183 -1.1058 -0.0552
14427TIP3   OH264771   5.395   2.061  14.232 -0.5040 -0.4213  0.6784
14427TIP3    H164772   5.377   2.045  14.325  1.5534 -0.1648  1.1573
14427TIP3    H264773   5.377   1.976  14.190 -0.1960 -0.9152  1.5105
14428TIP3   OH264774   5.745   4.952  12.192 -0.1718 -0.1247 -0.1516
14428TIP3    H164775   5.730   4.893  12.266 -0.7172  1.0451  0.6932
14428TIP3    H264776   5.676   5.018  12.199  1.2059  1.3881 -0.3079
14429TIP3   OH264777   4.113   3.032   1.925  0.1969  0.3965  0.9570
14429TIP3    H164778   4.172   2.975   1.975  0.2463  0.0861  0.5493
14429TIP3    H264779   4.096   3.105   1.983  0.2602  0.0420  1.4305
14430TIP3   OH264780   5.607   1.866   1.134  0.4518  0.7434 -0.3192
14430TIP3    H164781   5.616   1.946   1.083 -1.1214  2.1490  1.4892
14430TIP3    H264782   5.538   1.884   1.197  1.9143 -1.0635  1.9969
14431TIP3   OH264783   1.773   2.167  17.035 -0.2486  0.0849 -0.0618
14431TIP3    H164784   1.834   2.123  17.093  0.4461  1.4518  0.2789
14431TIP3    H264785   1.704   2.102  17.019 -0.9196 -0.0590  2.9500
14432TIP3   OH264786   4.047   2.358  10.385  0.6479  0.3570  0.7820
14432TIP3    H164787   4.122   2.412  10.411  1.0438 -0.1103  0.6393
14432TIP3    H264788   4.082   2.268  10.384 -0.0059  0.0916  1.0612
14433TIP3   OH264789   3.630   1.632   0.897  0.6768  0.0022  0.4848
14433TIP3    H164790   3.570   1.575   0.850  2.5103 -0.5477 -1.3283
14433TIP3    H264791   3.597   1.720   0.881 -1.0987 -0.3950  1.7260
14434TIP3   OH264792   6.271   6.058   2.959  0.2783 -0.4749  0.4035
14434TIP3    H164793   6.250   6.033   2.869  0.5838 -0.6586  0.3836
14434TIP3    H264794   6.342   5.999   2.985  3.8508  2.7734 -1.0098
14435TIP3   OH264795   4.251   4.694  17.142  0.1210 -0.1034 -0.2008
14435TIP3    H164796   4.206   4.737  17.069  0.3218  1.6015  0.6043
14435TIP3    H264797   4.344   4.706  17.124  0.2096 -1.2074 -0.5098
14436TIP3   OH264798   6.751   3.936  12.712  0.5947  0.3120 -0.0784
14436TIP3    H164799   6.707   3.993  12.649 -0.7019  1.2549  1.5917
14436TIP3    H264800   6.685   3.871  12.736  0.3603  1.1383  1.7111
14437TIP3   OH264801   3.166   5.767  11.562 -0.6036 -0.1997  0.3318
14437TIP3    H164802   3.169   5.847  11.614  0.0566  0.4651 -0.7024
14437TIP3    H264803   3.202   5.791  11.477  0.7340 -1.8665  0.3632
14438TIP3   OH264804   4.551   2.717  12.901 -0.1137 -0.1132 -0.2015
14438TIP3    H164805   4.595   2.678  12.976  0.4164  0.9489  0.0668
14438TIP3    H264806   4.509   2.644  12.856 -0.9350 -0.6935  1.4371
14439TIP3   OH264807   4.312   6.420   0.278 -0.0373 -0.4573 -0.0266
14439TIP3    H164808   4.264   6.410   0.360  0.2471 -1.2903  0.0423
14439TIP3    H264809   4.386   6.476   0.300 -0.8979  0.7790 -0.1156
14440TIP3   OH264810   6.482   5.603  16.915 -0.9155 -0.2979  0.5342
14440TIP3    H164811   6.535   5.610  16.836 -0.2152 -1.5173  0.8830
14440TIP3    H264812   6.442   5.690  16.924 -1.4536 -0.2794 -1.4490
14441TIP3   OH264813   5.403   2.353  12.931 -0.3426  0.1878 -0.0540
14441TIP3    H164814   5.366   2.345  13.020  1.4726  1.9331  0.9345
14441TIP3    H264815   5.340   2.307  12.875 -1.4304 -1.1983  2.1471
14442TIP3   OH264816   1.446   1.042   6.454  0.0916 -0.1002 -0.4187
14442TIP3    H164817   1.541   1.048   6.462  0.1097  0.2080 -0.8310
14442TIP3    H264818   1.427   1.079   6.368 -0.3514 -0.6847 -0.5772
14443TIP3   OH264819   2.357   4.585   3.055 -0.3517 -0.5332  0.1874
14443TIP3    H164820   2.432   4.525   3.058 -0.2598 -0.5069 -1.0664
14443TIP3    H264821   2.294   4.541   2.998  0.0837  0.9357 -1.5210
14444TIP3   OH264822   1.804   4.131  15.895  0.5444 -0.0713  0.2635
14444TIP3    H164823   1.866   4.203  15.884  0.6580 -0.1588  0.3196
14444TIP3    H264824   1.786   4.101  15.806 -1.4924  1.6720  0.0257
14445TIP3   OH264825   4.102   2.777   3.546  0.0581  0.3648 -0.2258
14445TIP3    H164826   4.124   2.840   3.614 -1.6450  0.5406  0.2208
14445TIP3    H264827   4.010   2.794   3.526 -0.2428 -1.4494 -0.6430
14446TIP3   OH264828   0.149   4.887  13.784  0.3958  0.4307 -0.0183
14446TIP3    H164829   0.145   4.913  13.692  0.3681 -1.3474 -0.5554
14446TIP3    H264830   0.150   4.970  13.833 -1.6863  1.4005 -1.4946
14447TIP3   OH264831   5.541   2.382   0.880  0.5605 -0.6607  0.2012
14447TIP3    H164832   5.478   2.350   0.944  0.7150 -0.2860  0.5509
14447TIP3    H264833   5.601   2.437   0.932 -1.8893  3.4369 -0.8596
14448TIP3   OH264834   4.561   1.142  15.304  0.2571 -0.2170 -0.1852
14448TIP3    H164835   4.583   1.123  15.213 -0.1899  1.1658 -0.6123
14448TIP3    H264836   4.467   1.156  15.303  0.1812 -0.6328  0.5819
14449TIP3   OH264837   2.139   5.228  16.538  0.6903  0.2705  0.0689
14449TIP3    H164838   2.213   5.170  16.518 -0.1303 -0.6115 -0.5057
14449TIP3    H264839   2.130   5.223  16.633  0.4265 -0.8277  0.0020
14450TIP3   OH264840   1.408   6.112   1.093  0.9167 -0.9266 -0.5579
14450TIP3    H164841   1.386   6.056   1.168 -1.6575 -0.0931 -0.5891
14450TIP3    H264842   1.429   6.197   1.133  0.5961 -0.7736 -0.7115
14451TIP3   OH264843   3.273   5.501   5.814 -0.6186 -0.2743  0.3425
14451TIP3    H164844   3.184   5.503   5.778 -0.5781 -0.8777  0.2094
14451TIP3    H264845   3.261   5.522   5.907 -0.9882 -1.0833  0.4878
14452TIP3   OH264846   5.299   0.622   0.162  0.5053 -0.2339 -0.1852
14452TIP3    H164847   5.223   0.622   0.220 -0.9685 -0.0851 -2.0124
14452TIP3    H264848   5.372   0.649   0.218 -0.5139 -1.5809  1.9301
14453TIP3   OH264849   5.473   6.648  13.159 -1.0850 -0.2467 -0.2331
14453TIP3    H164850   5.410   6.577  13.150 -2.2665  0.3544  2.4440
14453TIP3    H264851   5.516   6.633  13.243  0.4102  0.8832 -0.7375
14454TIP3   OH264852   1.165   2.605   5.399  0.2059  0.2333 -0.6314
14454TIP3    H164853   1.071   2.623   5.392  0.1843  0.6108  0.4719
14454TIP3    H264854   1.173   2.511   5.382 -0.3444  0.2370 -0.9329
14455TIP3   OH264855   1.103   0.737  17.142  0.1402 -0.1356  0.1230
14455TIP3    H164856   1.100   0.832  17.131  0.6508 -0.1493 -0.1738
14455TIP3    H264857   1.024   0.716  17.191 -0.5969  0.2952 -0.8681
14456TIP3   OH264858   5.728   1.309   3.367  0.1933  0.3241 -0.8769
14456TIP3    H164859   5.817   1.345   3.362  0.5063 -0.1103  0.7991
14456TIP3    H264860   5.739   1.220   3.401 -0.8065 -0.2123 -1.8779
14457TIP3   OH264861   2.124   0.821  13.375  0.0757  0.2224 -0.3993
14457TIP3    H164862   2.106   0.735  13.413  0.8269 -0.0688 -0.6679
14457TIP3    H264863   2.066   0.881  13.421 -1.7274 -0.6727 -1.4245
14458TIP3   OH264864   2.119   2.244   4.804  0.2036 -0.1635  0.4073
14458TIP3    H164865   2.072   2.164   4.827 -1.4916  0.4051 -0.9100
14458TIP3    H264866   2.052   2.302   4.768  1.9608  0.5496 -1.9072
14459TIP3   OH264867   1.807   1.927  12.275 -0.2708  0.3116 -0.4646
14459TIP3    H164868   1.890   1.901  12.316 -0.8585  0.1627  0.6757
14459TIP3    H264869   1.824   1.922  12.181  1.1168  0.6198 -0.2510
14460TIP3   OH264870   0.588   5.478   0.151  0.0657 -0.1838  0.0262
14460TIP3    H164871   0.636   5.447   0.227 -0.3571  0.7999  0.7202
14460TIP3    H264872   0.637   5.555   0.121  0.2464 -0.5847 -0.7112
14461TIP3   OH264873   4.993   4.197   3.686 -0.0788 -0.3311  0.4800
14461TIP3    H164874   4.937   4.169   3.614  0.6179 -2.0033  0.5330
14461TIP3    H264875   5.021   4.286   3.662  0.3817 -0.9489 -1.4949
14462TIP3   OH264876   4.414   6.388  15.221 -0.4706  0.1072 -0.0122
14462TIP3    H164877   4.361   6.455  15.179 -1.3671  0.5339  1.7094
14462TIP3    H264878   4.364   6.307  15.211  0.2810 -0.2182 -1.4733
14463TIP3   OH264879   2.679   1.607  12.385  0.5258  0.0061  0.3252
14463TIP3    H164880   2.721   1.580  12.303 -0.5553  2.0446 -1.0053
14463TIP3    H264881   2.601   1.551  12.391  0.8526 -0.4686  0.2181
14464TIP3   OH264882   0.170   5.064   2.304 -0.4288  0.4927  0.4395
14464TIP3    H164883   0.234   5.075   2.234  1.1556 -0.0875  1.7471
14464TIP3    H264884   0.125   5.148   2.309  1.2433  1.4240  0.4685
14465TIP3   OH264885   1.123   0.356   4.460 -0.3439  0.0934 -0.2245
14465TIP3    H164886   1.116   0.400   4.375  0.8167 -0.6708 -0.7399
14465TIP3    H264887   1.049   0.296   4.462  0.3629 -0.8709 -1.3167
14466TIP3   OH264888   3.759   2.040  13.991  0.1616 -0.2606  0.1388
14466TIP3    H164889   3.694   2.099  13.951 -1.2179  0.1053  2.7194
14466TIP3    H264890   3.718   2.012  14.073  3.2221 -0.1403  1.8388
14467TIP3   OH264891   1.837   2.461   6.469 -0.4852 -0.7420  0.5206
14467TIP3    H164892   1.765   2.522   6.454 -1.7779 -2.2286  0.5074
14467TIP3    H264893   1.898   2.509   6.526 -0.8657  0.9735 -0.4369
14468TIP3   OH264894   1.213   6.210  12.745 -0.3165 -0.3482 -0.3466
14468TIP3    H164895   1.127   6.174  12.766  0.3998 -0.6959  2.2644
14468TIP3    H264896   1.205   6.304  12.765 -0.0057 -0.4481  0.2774
14469TIP3   OH264897   5.581   5.584   2.467 -0.4426 -0.5647  0.0546
14469TIP3    H164898   5.500   5.533   2.461 -1.4455  0.9964 -0.4727
14469TIP3    H264899   5.570   5.654   2.402  1.6017 -0.6489 -0.4554
14470TIP3   OH264900   0.901   6.765  12.624  0.1207  0.0433 -0.5088
14470TIP3    H164901   0.948   6.822  12.684 -0.9019 -1.0700  1.4378
14470TIP3    H264902   0.810   6.797  12.628 -0.0425 -0.3417 -1.1105
14471TIP3   OH264903   1.251   1.890   0.065 -0.5022  0.7045 -0.0462
14471TIP3    H164904   1.262   1.816   0.006  0.4605  0.9200 -0.1458
14471TIP3    H264905   1.339   1.923   0.080 -0.9381  2.0177 -0.2417
14472TIP3   OH264906   5.195   1.505  12.362 -0.3081 -0.4195  0.1907
14472TIP3    H164907   5.223   1.413  12.368  1.7741  0.1410 -0.1214
14472TIP3    H264908   5.182   1.532  12.453 -2.0412 -1.2844  0.2505
14473TIP3   OH264909   2.751   3.448   5.590  0.5065 -0.2003 -0.1617
14473TIP3    H164910   2.810   3.518   5.619 -0.5550  0.1888  1.1850
14473TIP3    H264911   2.800   3.367   5.605  1.8693  0.2043 -2.0198
14474TIP3   OH264912   1.423   1.360  16.702  0.0250  0.2192 -0.1868
14474TIP3    H164913   1.496   1.418  16.678 -1.0821  1.5486 -0.4769
14474TIP3    H264914   1.345   1.410  16.679 -0.9903 -1.8547 -1.4439
14475TIP3   OH264915   5.369   5.586   2.069 -0.6980 -0.3028 -0.2371
14475TIP3    H164916   5.363   5.490   2.061 -0.7529 -0.3188 -0.0143
14475TIP3    H264917   5.320   5.619   1.994 -0.6211 -0.4502 -0.3543
14476TIP3   OH264918   4.218   2.274  12.925  0.2704  0.3973 -0.0428
14476TIP3    H164919   4.272   2.204  12.961  2.6987  1.6413 -1.0082
14476TIP3    H264920   4.162   2.301  12.998  2.3270  0.3160  1.6649
14477TIP3   OH264921   3.811   5.515   2.018  0.9667  0.6727  0.4480
14477TIP3    H164922   3.838   5.424   2.026 -1.6267 -0.2528 -0.4183
14477TIP3    H264923   3.877   5.555   1.960  1.9327 -0.7116  0.5421
14478TIP3   OH264924   5.332   6.004  16.568 -0.0432  0.0162 -0.0535
14478TIP3    H164925   5.309   6.083  16.616  0.2822  0.1593 -0.1256
14478TIP3    H264926   5.372   5.946  16.633 -1.3569 -0.5815  0.2526
14479TIP3   OH264927   3.203   2.225  16.602  0.4938  0.6261  0.8810
14479TIP3    H164928   3.290   2.191  16.621 -0.7018 -1.8973  2.3501
14479TIP3    H264929   3.143   2.169  16.651 -2.0048  2.1965 -0.1247
14480TIP3   OH264930   4.649   2.180   0.712  1.0828  0.3076  0.4664
14480TIP3    H164931   4.726   2.226   0.746  1.4004 -1.0762  1.7036
14480TIP3    H264932   4.678   2.091   0.695 -0.3984 -0.4547  1.6579
14481TIP3   OH264933   4.155   0.745   1.334 -0.3208 -0.1072 -0.2352
14481TIP3    H164934   4.188   0.830   1.305 -0.4993 -0.3440 -1.1554
14481TIP3    H264935   4.215   0.719   1.404  0.8011 -0.0172 -1.1282
14482TIP3   OH264936   2.745   1.989  10.599 -0.4606  0.4062 -0.4768
14482TIP3    H164937   2.680   2.016  10.663 -1.7704  0.5191 -1.7816
14482TIP3    H264938   2.761   2.068  10.546 -0.8437 -0.1355 -1.4399
14483TIP3   OH264939   6.644   3.022  14.512 -0.2438  0.4337  0.0490
14483TIP3    H164940   6.552   3.044  14.496 -0.5602  0.0617  1.2555
14483TIP3    H264941   6.675   2.987  14.429 -1.9905 -2.0768  0.3486
14484TIP3   OH264942   5.493   1.358  15.484  0.3390  0.2791 -0.6285
14484TIP3    H164943   5.418   1.341  15.541 -1.1735  3.8064 -1.2697
14484TIP3    H264944   5.455   1.373  15.398  1.8098  1.6506 -1.0939
14485TIP3   OH264945   0.779   1.295  15.398  0.0128  0.2301  0.2438
14485TIP3    H164946   0.851   1.258  15.347  0.2443 -2.4455  2.3215
14485TIP3    H264947   0.705   1.298  15.338  0.6672 -1.3540 -0.6890
14486TIP3   OH264948   1.830   2.358   4.101 -0.1109  0.0317 -0.0574
14486TIP3    H164949   1.831   2.404   4.016 -5.8258  0.4182 -0.3239
14486TIP3    H264950   1.789   2.420   4.161 -0.3580 -1.8356  1.8096
14487TIP3   OH264951   4.832   1.952  12.465 -0.1055 -0.1769 -0.0741
14487TIP3    H164952   4.819   1.864  12.432  0.9442 -0.4685  0.2537
14487TIP3    H264953   4.773   2.007  12.413 -2.2746 -1.3159  1.0513
14488TIP3   OH264954   2.702   0.379   2.777 -0.4012  0.5072 -0.0257
14488TIP3    H164955   2.690   0.470   2.802  0.5675 -0.1925  3.4448
14488TIP3    H264956   2.614   0.347   2.757 -1.0623  1.6277  0.9976
14489TIP3   OH264957   1.925   2.502  10.803 -0.0501 -0.3610  0.4090
14489TIP3    H164958   1.910   2.451  10.724  3.2378 -0.4483 -0.2896
14489TIP3    H264959   1.860   2.572  10.799 -2.7760 -2.7113 -0.0840
14490TIP3   OH264960   6.764   1.220   2.551  0.2315 -0.5776 -0.4116
14490TIP3    H164961   6.826   1.219   2.478  0.1546 -1.4676 -0.4769
14490TIP3    H264962   6.795   1.150   2.609  0.7868  0.6356  0.8390
14491TIP3   OH264963   4.078   1.124  16.991  0.3055  0.3434  0.0767
14491TIP3    H164964   4.127   1.058  17.041  0.5381  0.0068 -0.5763
14491TIP3    H264965   4.019   1.164  17.055  0.0270 -0.6279  0.4432
14492TIP3   OH264966   4.468   3.043  11.863 -0.0142 -0.1300  0.2752
14492TIP3    H164967   4.420   2.961  11.866 -0.5205  0.1640  0.1950
14492TIP3    H264968   4.414   3.102  11.810  0.0741  0.4285  0.7864
14493TIP3   OH264969   4.697   3.756  16.010  0.0104  0.2003  0.0622
14493TIP3    H164970   4.745   3.743  15.928  0.8654  0.2845  0.5396
14493TIP3    H264971   4.641   3.679  16.017  1.6768 -1.0024  0.5763
14494TIP3   OH264972   3.575   6.277  11.270  0.3738 -0.4868 -0.0668
14494TIP3    H164973   3.594   6.359  11.225 -2.1272  1.4368  2.0717
14494TIP3    H264974   3.508   6.234  11.217  0.9208 -0.6637 -0.6308
14495TIP3   OH264975   2.088   1.025   2.971 -1.2400 -0.0600 -0.2949
14495TIP3    H164976   2.118   1.113   2.995 -0.5455 -0.8791  2.1297
14495TIP3    H264977   1.996   1.036   2.947 -0.8789  1.4555 -1.1249
14496TIP3   OH264978   5.631   5.920  15.468 -0.5546 -0.3173  0.0802
14496TIP3    H164979   5.603   5.997  15.517 -2.0624 -0.1828 -0.9206
14496TIP3    H264980   5.727   5.921  15.475 -0.6052  0.9293  1.1187
14497TIP3   OH264981   6.233   2.854   5.232 -0.1242  0.1810  0.2789
14497TIP3    H164982   6.237   2.823   5.142  0.3735 -0.7453  0.6079
14497TIP3    H264983   6.157   2.912   5.235 -0.8031 -0.6544 -0.4676
14498TIP3   OH264984   4.666   5.423   1.322 -0.0289  0.1772  0.4254
14498TIP3    H164985   4.696   5.368   1.250  1.2228  0.8831  0.3809
14498TIP3    H264986   4.575   5.444   1.300  0.2776  0.2400 -0.8584
14499TIP3   OH264987   4.721   2.222   1.295  0.0765 -0.1283  0.1188
14499TIP3    H164988   4.729   2.146   1.238 -3.7131 -0.2698 -0.4749
14499TIP3    H264989   4.743   2.189   1.383  0.8131 -1.2368 -0.4605
14500TIP3   OH264990   4.247   6.197  16.858  0.1773 -0.2907  0.2754
14500TIP3    H164991   4.280   6.205  16.947 -0.7980  0.4021  0.5931
14500TIP3    H264992   4.183   6.126  16.862 -1.9347  1.5438  0.8095
14501TIP3   OH264993   1.810   4.600  12.366  0.1581 -0.1276 -0.2892
14501TIP3    H164994   1.763   4.529  12.409 -0.3913 -0.3483 -1.2169
14501TIP3    H264995   1.783   4.679  12.413 -0.9237 -0.2880 -0.6172
14502TIP3   OH264996   0.180   0.002   5.911  0.6438  1.0590 -0.5895
14502TIP3    H164997   0.138   0.054   5.979 -0.7150 -0.6663 -0.0457
14502TIP3    H264998   0.270  -0.011   5.943  0.3509  1.2246  0.3117
14503TIP3   OH264999   3.666   2.350   5.193 -0.6727 -0.2974  0.6254
14503TIP3    H165000   3.599   2.287   5.167 -1.2506  1.1323 -1.6382
14503TIP3    H265001   3.738   2.333   5.133 -0.4772  0.5857  0.6100
14504TIP3   OH265002   6.179   2.417  12.132 -0.1593  0.4903 -0.0607
14504TIP3    H165003   6.235   2.344  12.106 -2.6648 -2.7571  2.7076
14504TIP3    H265004   6.182   2.418  12.227 -1.0378  3.4174  0.0343
14505TIP3   OH265005   4.745   0.803  14.740 -0.1322 -0.0664  0.1193
14505TIP3    H165006   4.796   0.849  14.673  1.0986 -0.6726  0.6114
14505TIP3    H265007   4.666   0.856  14.750  1.1531  1.8959  0.5439
14506TIP3   OH265008   1.279   1.624   6.587 -0.4678 -0.2711  0.8860
14506TIP3    H165009   1.221   1.700   6.584  0.0698  0.1363  0.5119
14506TIP3    H265010   1.355   1.654   6.636  0.5806  0.0467 -0.8390
14507TIP3   OH265011   3.834   3.225   5.622 -0.2671  0.3153  0.0536
14507TIP3    H165012   3.757   3.168   5.628 -0.6609  0.8451  0.0316
14507TIP3    H265013   3.819   3.294   5.686  0.6267 -0.0824  0.7131
14508TIP3   OH265014   5.616   0.611   3.571 -0.3871  0.3598 -0.3828
14508TIP3    H165015   5.605   0.676   3.502  0.2946 -0.2747 -1.1123
14508TIP3    H265016   5.635   0.662   3.650  1.1083  1.0284 -1.1311
14509TIP3   OH265017   6.376   4.071  15.009 -0.0908  0.1596  0.4606
14509TIP3    H165018   6.325   4.151  14.997  0.2725  0.0863 -2.1343
14509TIP3    H265019   6.314   4.000  14.994 -0.1818 -0.0519  1.7465
14510TIP3   OH265020   2.714   3.666  12.143  0.1362  0.1609  0.2784
14510TIP3    H165021   2.774   3.592  12.150  0.1390  0.2365  1.1095
14510TIP3    H265022   2.649   3.638  12.078  0.6685 -0.1874 -0.1169
14511TIP3   OH265023   5.422   0.638   2.981 -0.1844  0.4720 -0.7699
14511TIP3    H165024   5.440   0.575   3.051 -0.4694  0.9594 -0.2506
14511TIP3    H265025   5.384   0.585   2.911  2.1918 -0.4089 -1.4787
14512TIP3   OH265026   1.740   6.799   1.095 -0.3127  0.4188  0.2618
14512TIP3    H165027   1.715   6.774   1.006 -2.2374 -1.1612  1.1680
14512TIP3    H265028   1.831   6.828   1.087  0.4365 -2.1181 -1.8206
14513TIP3   OH265029   5.439   3.537  12.509  0.5183  0.3577 -0.0812
14513TIP3    H165030   5.470   3.494  12.589  0.8468 -1.1465 -0.9955
14513TIP3    H265031   5.345   3.548  12.523  0.4592 -0.5134  0.2368
14514TIP3   OH265032   4.576   5.075  16.228  0.1561  0.7598 -0.2247
14514TIP3    H165033   4.668   5.053  16.241  0.1335 -0.0939 -1.3459
14514TIP3    H265034   4.569   5.167  16.254  0.5743 -0.0287  3.2296
14515TIP3   OH265035   1.033   4.342   4.431  0.2134 -0.2730  0.1355
14515TIP3    H165036   1.092   4.273   4.400  1.0379  0.5287 -0.1486
14515TIP3    H265037   1.018   4.322   4.523  1.9231  0.1446  0.5400
14516TIP3   OH265038   3.086   0.823   5.693  0.6933  0.5773 -0.7497
14516TIP3    H165039   3.085   0.729   5.707  2.4567  0.7486  0.9831
14516TIP3    H265040   3.176   0.844   5.668  0.8662  1.9683  0.7907
14517TIP3   OH265041   3.973   5.214   4.578 -0.1943 -0.8076 -0.0978
14517TIP3    H165042   3.953   5.129   4.539 -2.3237 -0.9162  1.1083
14517TIP3    H265043   4.038   5.195   4.645  0.3171 -1.2619 -0.7091
14518TIP3   OH265044   2.191   6.170   1.205  0.0969 -0.0015  0.5041
14518TIP3    H165045   2.202   6.104   1.273 -1.3867  0.7534  1.5316
14518TIP3    H265046   2.105   6.151   1.167  1.0911 -0.7305 -1.5869
14519TIP3   OH265047   3.990   6.672   0.613  0.6410 -0.1137  0.7904
14519TIP3    H165048   4.052   6.663   0.686  0.9463 -1.5783  0.3936
14519TIP3    H265049   4.042   6.711   0.542  0.0864  2.2888  1.6111
14520TIP3   OH265050   2.511   1.375   3.437  0.4540 -0.2491  0.3667
14520TIP3    H165051   2.591   1.322   3.436 -0.3493 -1.4862 -0.0557
14520TIP3    H265052   2.543   1.465   3.430  1.8797 -0.6068  1.6495
14521TIP3   OH265053   6.531   6.120  10.458  0.2470  0.1278  0.5787
14521TIP3    H165054   6.467   6.132  10.528  0.3664  1.0821  0.5425
14521TIP3    H265055   6.502   6.041  10.412 -0.5921  0.2379  0.9005
14522TIP3   OH265056   6.044   3.594   4.773  0.6388  0.3039  0.1135
14522TIP3    H165057   6.044   3.517   4.716 -1.1567 -0.9690  1.6961
14522TIP3    H265058   6.095   3.567   4.850  3.5814  2.2065 -1.0097
14523TIP3   OH265059   1.609   4.451  12.768 -0.3364 -0.2669  0.5390
14523TIP3    H165060   1.630   4.358  12.775  0.5707 -0.1106  0.0383
14523TIP3    H265061   1.599   4.467  12.674 -1.1745  0.0031  0.6653
14524TIP3   OH265062   5.250   2.196  12.785 -0.6716 -0.2779  0.2347
14524TIP3    H165063   5.234   2.102  12.779  0.8475 -0.5609  0.0808
14524TIP3    H265064   5.209   2.233  12.707  0.1980 -1.0642 -0.6289
14525TIP3   OH265065   4.163   4.549   3.500 -0.3981  0.0427  0.1778
14525TIP3    H165066   4.094   4.614   3.485  0.5158  1.4623  1.7986
14525TIP3    H265067   4.242   4.600   3.516  0.0603 -1.3448  3.0679
14526TIP3   OH265068   3.226   2.565   1.350 -0.0561  0.8665 -0.6800
14526TIP3    H165069   3.237   2.486   1.403  1.5537  1.2133 -0.4470
14526TIP3    H265070   3.261   2.635   1.405 -1.8284  1.8490 -0.7123
14527TIP3   OH265071   3.540   5.715   2.270 -0.5161  0.3574 -0.0298
14527TIP3    H165072   3.538   5.765   2.188  3.0995  1.2131  0.2263
14527TIP3    H265073   3.542   5.782   2.338  1.8690 -0.1040  0.4353
14528TIP3   OH265074   0.771   6.615   5.162 -0.4085 -0.0793  0.3141
14528TIP3    H165075   0.821   6.567   5.229  0.5948  1.8968  1.0471
14528TIP3    H265076   0.691   6.642   5.208 -1.7879 -2.3159 -0.5608
14529TIP3   OH265077   0.157   2.570  11.310 -0.5068 -0.0741  0.0483
14529TIP3    H165078   0.220   2.565  11.382 -0.9775 -0.4651  0.4512
14529TIP3    H265079   0.181   2.499  11.251  0.2049  0.5783 -0.4601
14530TIP3   OH265080   0.405   1.852   6.400  0.2955  0.1528  0.3412
14530TIP3    H165081   0.403   1.757   6.414  2.2873  0.1372  0.9011
14530TIP3    H265082   0.315   1.875   6.378 -0.4349 -1.7227  1.1271
14531TIP3   OH265083   2.261   2.220   1.504 -0.1159 -0.3200  0.0335
14531TIP3    H165084   2.325   2.284   1.536 -0.5601  0.1696 -0.0384
14531TIP3    H265085   2.238   2.169   1.581  0.2344 -0.3919  0.0949
14532TIP3   OH265086   2.130   3.888  15.765  0.5201  0.7343 -0.5067
14532TIP3    H165087   2.186   3.889  15.843  0.3380  0.5672 -0.3735
14532TIP3    H265088   2.147   3.972  15.723  0.0548  1.1530  0.1157
14533TIP3   OH265089   3.766   6.206  13.218 -0.4814 -0.4440 -0.2162
14533TIP3    H165090   3.856   6.237  13.227  0.2693 -2.6654  0.7497
14533TIP3    H265091   3.759   6.180  13.126  0.0955 -0.8567 -0.1527
14534TIP3   OH265092   2.784   3.105   6.114  0.4055  0.4306  0.2847
14534TIP3    H165093   2.869   3.139   6.086  0.9551  0.6671  2.1470
14534TIP3    H265094   2.754   3.165   6.181  0.0418 -1.1256  1.5919
14535TIP3   OH265095   5.793   6.394  15.700 -0.7157  0.1269  0.2335
14535TIP3    H165096   5.779   6.327  15.767 -0.4467 -1.1110 -0.8894
14535TIP3    H265097   5.763   6.353  15.619  1.3537  0.5832 -0.8447
14536TIP3   OH265098   0.126   3.001   1.443 -0.3843 -0.4106 -0.5790
14536TIP3    H165099   0.213   3.000   1.404 -0.7922  0.4761 -1.5442
14536TIP3    H265100   0.095   3.091   1.431 -0.2741  0.1520  2.3828
14537TIP3   OH265101   5.967   4.805   5.310 -0.4496 -0.3373 -0.3394
14537TIP3    H165102   5.922   4.851   5.239 -0.1838  0.8291  0.2142
14537TIP3    H265103   6.020   4.873   5.352  2.2020 -1.6994 -1.2292
14538TIP3   OH265104   4.342   0.578  15.496  0.6191  0.4055  0.0856
14538TIP3    H165105   4.330   0.489  15.531 -1.3172  0.6679  0.2276
14538TIP3    H265106   4.395   0.565  15.417  0.9178 -0.7993  0.4561
14539TIP3   OH265107   3.875   6.268  16.292  0.2011  0.3086  0.5094
14539TIP3    H165108   3.817   6.242  16.221  0.5648 -0.6001  0.5268
14539TIP3    H265109   3.825   6.252  16.372  0.1178  0.4636  0.4871
14540TIP3   OH265110   4.745   5.559  12.860 -0.5068  0.5352  0.1162
14540TIP3    H165111   4.793   5.518  12.932  1.1331  0.1098 -1.1429
14540TIP3    H265112   4.717   5.643  12.895 -0.1728  0.1435  1.3975
14541TIP3   OH265113   2.812   3.679  13.607  1.0229  0.2978  0.2218
14541TIP3    H165114   2.867   3.600  13.601 -0.7597 -0.9937  0.1216
14541TIP3    H265115   2.869   3.750  13.577  2.2625 -1.1510 -1.0466
14542TIP3   OH265116   3.348   1.503   6.079 -0.4041  0.1275  0.7084
14542TIP3    H165117   3.439   1.501   6.048 -0.7418 -1.9509 -0.3325
14542TIP3    H265118   3.296   1.510   5.998 -1.3101 -5.0661  0.5413
14543TIP3   OH265119   0.621   4.174   0.965  0.2338 -0.6743 -0.3486
14543TIP3    H165120   0.642   4.117   1.039 -0.0712 -1.5812 -0.9388
14543TIP3    H265121   0.598   4.113   0.894  0.0514  0.1854 -1.0414
14544TIP3   OH265122   1.670   2.743  13.010 -0.8447 -0.0830  0.1894
14544TIP3    H165123   1.685   2.665  12.957  0.9987 -1.1364  2.1432
14544TIP3    H265124   1.741   2.744  13.074  1.1499  4.8746 -1.5686
14545TIP3   OH265125   6.784   5.870   0.893  0.6693 -0.6964 -0.1337
14545TIP3    H165126   6.735   5.794   0.927 -0.5633 -0.5456 -1.4734
14545TIP3    H265127   6.724   5.911   0.832  1.0224  1.8561  1.1188
14546TIP3   OH265128   5.501   0.720  14.722 -0.3115 -0.5171 -0.0032
14546TIP3    H165129   5.408   0.735  14.710  0.0614  1.1887 -1.2590
14546TIP3    H265130   5.539   0.728  14.634  1.3358  1.9387  0.7987
14547TIP3   OH265131   2.759   5.046   1.119  0.2878  0.8918  0.3807
14547TIP3    H165132   2.778   5.063   1.027  1.0762 -0.2690  0.3086
14547TIP3    H265133   2.748   4.951   1.124 -0.1870  0.9832  1.4143
14548TIP3   OH265134   1.636   4.675   5.089 -0.0248 -0.7090  0.4770
14548TIP3    H165135   1.700   4.745   5.103 -1.3522  0.2630  2.0077
14548TIP3    H265136   1.552   4.720   5.082 -0.5658 -1.9253 -1.8667
14549TIP3   OH265137   3.496   3.969  10.362  0.0373 -0.7784  0.2679
14549TIP3    H165138   3.487   3.965  10.457 -1.1974  0.2726  0.2204
14549TIP3    H265139   3.570   4.028  10.347  0.4355 -1.1916  0.5589
14550TIP3   OH265140   5.759   6.430   1.183 -0.3590 -0.2875 -0.1719
14550TIP3    H165141   5.677   6.420   1.134 -0.9268  0.7355  0.5422
14550TIP3    H265142   5.778   6.341   1.214 -1.5888 -0.4243  0.2590
14551TIP3   OH265143   1.075   0.665  14.346  0.5767  0.1335  0.2668
14551TIP3    H165144   1.037   0.594  14.397  0.2093 -0.1026 -0.3257
14551TIP3    H265145   1.131   0.622  14.281  1.5922  0.4641  0.9078
14552TIP3   OH265146   6.259   2.909   2.882 -0.3202 -0.1341  0.1722
14552TIP3    H165147   6.191   2.866   2.831 -0.0629 -2.2942  1.5317
14552TIP3    H265148   6.229   3.000   2.889 -2.6203 -0.8094  0.0239
14553TIP3   OH265149   0.249   5.217   3.988  0.7108  0.2483  0.4573
14553TIP3    H165150   0.343   5.213   3.970  0.9899  2.3373  1.1298
14553TIP3    H265151   0.208   5.211   3.902  1.4641 -0.4740  0.1376
14554TIP3   OH265152   1.440   4.918   5.755  0.0288 -0.4912 -0.0773
14554TIP3    H165153   1.473   4.984   5.694  0.5419 -1.8194 -1.2942
14554TIP3    H265154   1.518   4.872   5.785 -0.3444 -0.7239  0.5473
14555TIP3   OH265155   3.015   3.183  11.220  0.0439 -0.2282  0.1663
14555TIP3    H165156   3.098   3.232  11.220 -0.3662  0.4667  0.4112
14555TIP3    H265157   2.951   3.244  11.255 -0.9376 -0.1509 -1.6428
14556TIP3   OH265158   0.106   0.189   1.151  0.2904 -0.8324 -0.0469
14556TIP3    H165159   0.126   0.114   1.096  1.2290 -0.2637 -0.5034
14556TIP3    H265160   0.025   0.165   1.196 -0.5083 -1.3072 -1.6820
14557TIP3   OH265161   5.200   4.529   4.360  0.3487 -0.0807  0.0392
14557TIP3    H165162   5.132   4.545   4.425  1.0188  1.8247  0.3424
14557TIP3    H265163   5.241   4.615   4.347  0.9004 -0.6176 -2.1494
14558TIP3   OH265164   2.992   6.248   1.031  0.2045 -0.0773 -0.0503
14558TIP3    H165165   2.914   6.254   0.976  0.0479 -0.2410  0.1578
14558TIP3    H265166   3.040   6.329   1.012  0.6066 -0.5412 -1.1176
14559TIP3   OH265167   5.393   3.600  14.457  0.3122  0.2240  0.1101
14559TIP3    H165168   5.398   3.602  14.553  0.4788 -0.7215  0.1401
14559TIP3    H265169   5.346   3.679  14.433  2.0745  1.5509  0.8379
14560TIP3   OH265170   2.100   0.734  13.098  0.2581 -0.1237 -0.0035
14560TIP3    H165171   2.128   0.692  13.179 -2.6958  1.3709  1.9626
14560TIP3    H265172   2.129   0.824  13.106 -2.7573  0.8783  1.0599
14561TIP3   OH265173   4.991   3.573  14.283 -0.2556 -0.1552 -0.1965
14561TIP3    H165174   5.013   3.608  14.196 -1.0501  0.1976 -0.2676
14561TIP3    H265175   5.065   3.517  14.306 -0.7019 -1.4519 -1.7515
14562TIP3   OH265176   6.685   5.651   2.048 -0.3935  0.2629  0.1883
14562TIP3    H165177   6.653   5.669   2.137  0.3136 -0.2218  0.5446
14562TIP3    H265178   6.698   5.738   2.009  1.4326  0.5396  1.3304
14563TIP3   OH265179   4.653   3.618   1.936 -0.0120  0.4481  0.2097
14563TIP3    H165180   4.577   3.638   1.991 -1.0805 -0.4650 -0.8735
14563TIP3    H265181   4.726   3.664   1.978 -0.8156 -0.0367  2.2573
14564TIP3   OH265182   3.352   5.648   1.965  0.0467 -0.1272  0.1038
14564TIP3    H165183   3.312   5.651   2.052  1.8787 -3.2886  1.2262
14564TIP3    H265184   3.285   5.610   1.909  0.7072 -4.0353  1.6573
14565TIP3   OH265185   0.441   6.535  12.215 -0.4070  0.0535 -0.0692
14565TIP3    H165186   0.348   6.548  12.197  0.0781  0.9551 -2.2661
14565TIP3    H265187   0.454   6.441  12.205 -0.8269  0.1041 -1.3866
14566TIP3   OH265188   5.761   2.601   0.709  0.2543 -0.3011 -0.2495
14566TIP3    H165189   5.740   2.600   0.802 -1.0132 -0.8028 -0.5160
14566TIP3    H265190   5.720   2.680   0.675  0.0713 -0.5100 -0.5196
14567TIP3   OH265191   3.655   5.646   5.531  0.1969  0.3555  0.3153
14567TIP3    H165192   3.640   5.739   5.549  1.1605  0.7927 -0.9716
14567TIP3    H265193   3.583   5.601   5.574 -1.6432  1.8917 -1.0090
14568TIP3   OH265194   4.990   4.910   3.491  0.5114 -0.2379 -0.3279
14568TIP3    H165195   4.900   4.943   3.493  0.0077 -1.4290 -1.7722
14568TIP3    H265196   4.995   4.849   3.565  0.1024 -0.2056 -0.2735
14569TIP3   OH265197   6.165   1.638   0.793  0.0506  0.3250  0.4878
14569TIP3    H165198   6.123   1.592   0.721 -1.9102  0.8225  1.2473
14569TIP3    H265199   6.177   1.571   0.861 -0.0314  0.3044  0.4816
14570TIP3   OH265200   1.107   5.187  13.796 -0.4330  0.0705  0.1764
14570TIP3    H165201   1.122   5.277  13.767  0.3746 -0.8440 -2.5674
14570TIP3    H265202   1.012   5.181  13.808 -0.4074  1.5165  1.3959
14571TIP3   OH265203   2.203   0.257   0.322 -0.1253 -0.0238 -0.0850
14571TIP3    H165204   2.166   0.343   0.341  0.2572  0.0469  0.3410
14571TIP3    H265205   2.247   0.269   0.237  0.4601  0.3710  0.2661
14572TIP3   OH265206   3.739   5.798  15.320 -0.2749 -0.3596  0.0612
14572TIP3    H165207   3.769   5.889  15.318  3.5980 -1.4556 -0.5998
14572TIP3    H265208   3.719   5.782  15.412 -0.7153  1.0338  0.2400
14573TIP3   OH265209   5.227   2.325  12.069  0.5363 -0.5198 -0.0249
14573TIP3    H165210   5.266   2.400  12.115  1.5842  0.1101 -1.8572
14573TIP3    H265211   5.224   2.256  12.134  4.5646 -0.5622  0.3305
14574TIP3   OH265212   4.426   1.102  13.959  0.7755  0.2263 -0.4011
14574TIP3    H165213   4.483   1.035  13.996 -0.0147 -0.0043  0.4316
14574TIP3    H265214   4.405   1.159  14.033 -0.5499 -0.0387 -0.5472
14575TIP3   OH265215   1.394   5.100  11.362 -0.5956 -0.7203 -0.2338
14575TIP3    H165216   1.480   5.063  11.376  0.3522  0.5491 -2.2440
14575TIP3    H265217   1.379   5.156  11.438  0.2893 -1.0695  0.2028
14576TIP3   OH265218   2.744   5.911  16.662 -0.1503 -0.7111  0.0100
14576TIP3    H165219   2.690   5.973  16.614  0.7479 -0.5404 -0.8222
14576TIP3    H265220   2.762   5.953  16.746  2.4219  1.3406 -1.3885
14577TIP3   OH265221   0.955   6.682  11.459  0.1229  0.3316 -0.5543
14577TIP3    H165222   0.909   6.745  11.516  1.2480  0.9180 -0.2762
14577TIP3    H265223   0.988   6.735  11.387  2.8825  0.4972  0.7242
14578TIP3   OH265224   2.627   3.753  10.598 -0.1509  0.0415 -0.0500
14578TIP3    H165225   2.538   3.762  10.631 -0.2452  1.5536 -0.6289
14578TIP3    H265226   2.677   3.816  10.649 -0.1539  1.8784 -2.1931
14579TIP3   OH265227   0.749   1.217  12.484 -0.1888  0.2693 -0.3632
14579TIP3    H165228   0.785   1.300  12.516 -0.0368 -0.4799  1.4920
14579TIP3    H265229   0.775   1.214  12.392  0.5319  1.8719 -0.2448
14580TIP3   OH265230   3.258   2.781   2.897 -0.1117  0.5598  0.0831
14580TIP3    H165231   3.234   2.848   2.832 -0.0844 -1.3886 -2.0433
14580TIP3    H265232   3.332   2.735   2.858  0.0368 -0.5745  1.6167
14581TIP3   OH265233   3.311   2.953   0.638  0.2654 -0.2199 -0.3069
14581TIP3    H165234   3.300   2.873   0.689 -1.0871 -0.0664 -0.3163
14581TIP3    H265235   3.293   2.927   0.548 -3.6795  0.6513  0.0362
14582TIP3   OH265236   5.317   1.007   4.831 -0.1980 -0.2414  0.2616
14582TIP3    H165237   5.365   0.981   4.910 -2.1390  0.9759  1.9692
14582TIP3    H265238   5.379   1.060   4.782  0.7288 -0.0634  1.5661
14583TIP3   OH265239   2.140   5.417  11.392 -0.4698 -0.2212 -0.2790
14583TIP3    H165240   2.222   5.370  11.378 -0.3804  0.3429 -1.8622
14583TIP3    H265241   2.072   5.350  11.385 -0.1328 -1.2053  3.6198
14584TIP3   OH265242   0.278   0.757  13.174 -0.7841  0.2691  0.5670
14584TIP3    H165243   0.269   0.662  13.180 -0.2557  0.2543  1.1120
14584TIP3    H265244   0.189   0.790  13.186 -1.5339 -0.2715 -2.6172
14585TIP3   OH265245   4.440   3.137   1.036  0.4506  0.1780  0.1760
14585TIP3    H165246   4.514   3.095   1.081  0.6453 -0.8713 -1.0832
14585TIP3    H265247   4.363   3.091   1.069  0.4648  0.3721  0.4869
14586TIP3   OH265248   3.564   6.463   0.481  0.1442  0.3731 -0.6087
14586TIP3    H165249   3.540   6.511   0.402  1.1071 -1.6768 -2.2521
14586TIP3    H265250   3.576   6.373   0.452 -0.3874 -0.6733  2.0850
14587TIP3   OH265251   2.523   3.817   0.372  0.4698  0.3616 -0.3699
14587TIP3    H165252   2.575   3.766   0.310 -0.0066  0.4987 -0.8899
14587TIP3    H265253   2.501   3.755   0.442 -1.9192 -0.8012 -2.0235
14588TIP3   OH265254   0.601   6.704  14.136 -0.3659 -0.3874  0.0775
14588TIP3    H165255   0.557   6.711  14.051 -2.2163 -0.5307  0.9572
14588TIP3    H265256   0.549   6.760  14.194 -0.5099 -2.0047  1.5951
14589TIP3   OH265257   0.621   5.211  16.542 -0.4377  0.4028 -0.3044
14589TIP3    H165258   0.611   5.178  16.453 -0.5050  0.3948 -0.2943
14589TIP3    H265259   0.683   5.284  16.534 -1.0138  0.8803 -0.4725
14590TIP3   OH265260   3.960   0.360  14.938 -0.0294 -0.9543  0.8712
14590TIP3    H165261   3.984   0.272  14.907  1.7470 -0.5859  1.0942
14590TIP3    H265262   3.981   0.418  14.865 -1.6383 -0.7292  0.5508
14591TIP3   OH265263   2.775   4.289  11.959  0.0857 -0.5775 -0.0424
14591TIP3    H165264   2.838   4.343  12.006 -1.1862 -0.5195  1.6787
14591TIP3    H265265   2.748   4.222  12.022 -1.8090 -0.3918 -0.5800
14592TIP3   OH265266   5.726   3.060  15.229  0.3728  0.2650 -0.0278
14592TIP3    H165267   5.762   3.127  15.171  4.4288 -1.4012  0.2766
14592TIP3    H265268   5.754   3.086  15.316  0.0908 -0.6607  0.3514
14593TIP3   OH265269   1.078   0.658  13.471 -0.0402 -0.1125 -0.2538
14593TIP3    H165270   1.025   0.736  13.453  0.2051  0.6517  1.9841
14593TIP3    H265271   1.146   0.689  13.531  0.7760 -1.8123 -0.2588
14594TIP3   OH265272   3.804   5.152   1.492  0.5500  0.3345 -0.5657
14594TIP3    H165273   3.799   5.247   1.480  3.4538  0.5437 -0.8161
14594TIP3    H265274   3.771   5.115   1.410  0.9928  1.1978 -1.1448
14595TIP3   OH265275   1.450   3.489   6.261 -0.2955 -0.5583  0.1386
14595TIP3    H165276   1.372   3.443   6.229  0.3609 -0.4857 -1.7059
14595TIP3    H265277   1.517   3.421   6.266  0.3294 -0.0877 -1.3358
14596TIP3   OH265278   3.757   2.397   0.631 -0.4988  0.3421  0.0780
14596TIP3    H165279   3.778   2.328   0.568 -1.4115 -0.8585  1.0327
14596TIP3    H265280   3.842   2.432   0.658 -0.0929  1.4335 -2.3325
14597TIP3   OH265281   5.583   6.668   1.266  0.1103  0.0422 -0.4706
14597TIP3    H165282   5.551   6.589   1.308  2.0556 -0.5683 -0.0334
14597TIP3    H265283   5.594   6.644   1.174 -2.7669  0.9554 -1.1673
14598TIP3   OH265284   6.074   3.950  13.592  0.0754  0.0799 -0.2205
14598TIP3    H165285   6.072   3.895  13.513  0.9299  1.7075 -1.4489
14598TIP3    H265286   6.016   3.906  13.654  1.6967 -2.8593 -0.6426
14599TIP3   OH265287   1.803   5.478  15.944  0.1217 -0.2598  0.0356
14599TIP3    H165288   1.836   5.401  15.898  1.3651  0.9263 -1.1167
14599TIP3    H265289   1.743   5.519  15.883  3.1557  2.3386 -1.4637
14600TIP3   OH265290   3.040   5.119  13.915  0.2890 -0.1095  0.0900
14600TIP3    H165291   3.021   5.204  13.875 -1.7312 -0.0790  0.9946
14600TIP3    H265292   3.085   5.140  13.997  1.0309  0.0041 -0.3399
14601TIP3   OH265293   1.423   5.365  13.260 -0.0076  0.3012 -0.3315
14601TIP3    H165294   1.334   5.371  13.228 -0.3088  0.7777  0.5609
14601TIP3    H265295   1.423   5.290  13.320  0.0680  0.5923  0.0382
14602TIP3   OH265296   6.059   1.295   3.753  1.0125  0.5627  0.0535
14602TIP3    H165297   6.119   1.278   3.681  3.0981  0.4674  1.7242
14602TIP3    H265298   6.103   1.360   3.807  0.1108 -0.2669  1.8944
14603TIP3   OH265299   5.768   3.418   5.317  0.5160  0.3872 -0.3011
14603TIP3    H165300   5.769   3.490   5.254  0.7911 -0.6474 -1.5310
14603TIP3    H265301   5.854   3.377   5.309 -0.2138 -1.1112 -0.9114
14604TIP3   OH265302   6.573   4.407  15.667  0.6891 -0.0614  0.2878
14604TIP3    H165303   6.515   4.444  15.600  0.9818 -0.0855  0.0167
14604TIP3    H265304   6.516   4.353  15.722  0.3356  0.4720  0.4440
14605TIP3   OH265305   6.273   0.385  14.687 -0.1096  0.2614  0.4791
14605TIP3    H165306   6.217   0.459  14.710  1.3276  2.0295 -1.3126
14605TIP3    H265307   6.240   0.354  14.602  0.1624 -0.2169  0.5409
14606TIP3   OH265308   0.591   1.637   3.718  0.2389  0.1681  0.6092
14606TIP3    H165309   0.544   1.658   3.799 -0.7000  1.2875 -0.1850
14606TIP3    H265310   0.578   1.543   3.707 -0.1651  0.1148  1.4308
14607TIP3   OH265311   0.105   4.836   2.477  0.2754 -0.0783  0.5955
14607TIP3    H165312   0.034   4.792   2.430 -1.1049  1.6035  1.0346
14607TIP3    H265313   0.136   4.903   2.416  1.2756 -0.5579  0.5510
14608TIP3   OH265314   0.228   5.484  14.864  0.2826 -0.1629  0.5403
14608TIP3    H165315   0.147   5.433  14.867 -0.6342  1.1317 -0.7598
14608TIP3    H265316   0.257   5.488  14.956 -2.3445  1.1834  1.4097
14609TIP3   OH265317   4.589   6.620   6.028  0.0629 -0.0833 -0.1413
14609TIP3    H165318   4.563   6.650   6.115  1.7180 -1.1059  0.7452
14609TIP3    H265319   4.596   6.525   6.037  1.3788 -0.0955 -1.0795
14610TIP3   OH265320   3.223   1.946  11.478  0.5183 -0.3767  0.4786
14610TIP3    H165321   3.291   1.966  11.543  0.8000  0.9234 -0.1848
14610TIP3    H265322   3.152   1.907  11.529  1.3291 -0.7860  1.3363
14611TIP3   OH265323   4.600   4.071  11.888 -0.4041  0.0273 -0.4663
14611TIP3    H165324   4.512   4.106  11.880 -0.4313  0.4285  1.1818
14611TIP3    H265325   4.590   3.977  11.879 -1.7082 -0.4288  3.5640
14612TIP3   OH265326   4.557   6.635  17.157  0.2428  0.5516  0.2874
14612TIP3    H165327   4.505   6.646  17.237  0.2802  1.5760  0.1840
14612TIP3    H265328   4.500   6.584  17.098 -0.6450  1.6289  0.1917
14613TIP3   OH265329   2.191   4.353   5.500 -0.1994  0.1563  0.3038
14613TIP3    H165330   2.104   4.350   5.541 -0.0273 -0.5488  0.6345
14613TIP3    H265331   2.174   4.380   5.410 -0.6394  1.1891  0.6726
14614TIP3   OH265332   1.874   5.959  11.895  0.3424  0.3934 -0.2621
14614TIP3    H165333   1.853   6.039  11.942 -1.0637  1.9968 -3.3644
14614TIP3    H265334   1.807   5.896  11.923  1.3536  0.2672  2.0587
14615TIP3   OH265335   4.004   0.552  15.563 -0.0057 -0.1000 -0.0735
14615TIP3    H165336   3.948   0.478  15.537 -0.8994 -0.5815  2.8642
14615TIP3    H265337   3.943   0.624  15.579  0.7421  0.9183 -1.5610
14616TIP3   OH265338   1.697   1.613  15.563  0.2503  0.2262 -0.2609
14616TIP3    H165339   1.729   1.599  15.474 -0.5720 -0.2044 -0.4918
14616TIP3    H265340   1.657   1.701  15.560  1.0621  0.6116 -0.0644
14617TIP3   OH265341   6.796   5.369  14.880  0.3466 -0.2022  0.3019
14617TIP3    H165342   6.816   5.277  14.895  2.8058  0.0102 -1.1684
14617TIP3    H265343   6.715   5.368  14.830  1.1599 -1.6735 -1.0582
14618TIP3   OH265344   4.351   0.170  14.006  0.0418  0.3067  0.0192
14618TIP3    H165345   4.338   0.226  13.930  0.6716  0.0728 -0.2711
14618TIP3    H265346   4.396   0.226  14.070 -0.4334  0.4855  0.1995
14619TIP3   OH265347   6.427   3.020   5.351  0.4890  0.4225 -0.4530
14619TIP3    H165348   6.442   3.090   5.288  0.9367  0.6782 -0.0702
14619TIP3    H265349   6.370   2.958   5.306  0.5898  0.7337 -1.0087
14620TIP3   OH265350   6.336   6.334   1.151 -0.2610  0.0461 -0.4853
14620TIP3    H165351   6.310   6.426   1.143  0.1050  0.1584 -0.3851
14620TIP3    H265352   6.409   6.324   1.091 -0.3178 -0.1878 -0.5162
14621TIP3   OH265353   5.401   1.903   3.410  0.2279 -0.0779  0.3350
14621TIP3    H165354   5.436   1.956   3.482  0.1274 -0.7223  0.8658
14621TIP3    H265355   5.329   1.956   3.374 -1.9615 -1.0907  2.8483
14622TIP3   OH265356   5.622   4.445   6.340 -0.0906 -0.6191 -0.5871
14622TIP3    H165357   5.579   4.467   6.257  1.0956 -0.3072 -1.1486
14622TIP3    H265358   5.705   4.405   6.314  1.1265  1.0893  0.3968
14623TIP3   OH265359   4.017   0.939  15.997  0.1490 -0.4290 -0.6143
14623TIP3    H165360   4.086   0.991  15.955 -0.0843  0.0640 -0.3909
14623TIP3    H265361   3.988   0.878  15.929 -2.6490  2.5888 -2.4191
14624TIP3   OH265362   6.306   1.282  16.086  0.1323 -0.4872 -0.4525
14624TIP3    H165363   6.221   1.301  16.046 -0.4576 -2.3752 -0.1910
14624TIP3    H265364   6.353   1.366  16.082 -1.5583  0.4989 -0.9937
14625TIP3   OH265365   1.969   5.732   6.093  0.2785  0.2252 -0.1541
14625TIP3    H165366   2.049   5.710   6.044  1.9978  1.1931  2.0162
14625TIP3    H265367   1.948   5.651   6.141  1.6525  0.7135  1.3753
14626TIP3   OH265368   0.520   2.077   5.118  0.0301  0.7129  0.5807
14626TIP3    H165369   0.533   1.995   5.069  0.2081 -0.5830  2.6802
14626TIP3    H265370   0.425   2.087   5.123 -0.0325  1.9099 -1.5789
14627TIP3   OH265371   5.875   2.360   0.677 -0.3370 -0.3381  0.1166
14627TIP3    H165372   5.852   2.453   0.680  2.0494  0.3531 -0.2754
14627TIP3    H265373   5.934   2.352   0.602 -0.5170 -2.1902  0.1214
14628TIP3   OH265374   1.583   1.586  12.108 -0.4261 -0.0234  0.3897
14628TIP3    H165375   1.512   1.602  12.170 -0.5110  0.3599  0.1995
14628TIP3    H265376   1.662   1.588  12.162 -0.2075  3.2050  0.1372
14629TIP3   OH265377   3.016   3.389   0.858  0.6480 -0.3149  0.3168
14629TIP3    H165378   2.926   3.410   0.834  2.1263  2.0156 -4.0787
14629TIP3    H265379   3.050   3.338   0.785  3.5677  0.8627  0.7213
14630TIP3   OH265380   0.798   1.868  17.102  0.1464 -0.2892  0.0869
14630TIP3    H165381   0.862   1.889  17.170 -2.6605  2.3920  2.1762
14630TIP3    H265382   0.836   1.903  17.021  1.4955  0.8761  1.1732
14631TIP3   OH265383   5.176   2.397   4.430 -0.1728  0.1645 -0.1270
14631TIP3    H165384   5.080   2.399   4.422 -0.2765  1.4146  1.1032
14631TIP3    H265385   5.205   2.476   4.385  0.4403 -0.9784 -1.8381
14632TIP3   OH265386   1.327   5.558  11.993 -0.3650 -0.0688  0.1770
14632TIP3    H165387   1.324   5.644  11.950  1.4800  0.7971  1.6284
14632TIP3    H265388   1.327   5.495  11.921 -0.4671  1.1949 -0.9651
14633TIP3   OH265389   4.367   1.282  15.537 -0.5543  0.5512  0.5352
14633TIP3    H165390   4.459   1.262  15.518 -0.7898  0.1052 -0.1737
14633TIP3    H265391   4.319   1.251  15.460 -1.3847  0.0350  1.2315
14634TIP3   OH265392   4.474   4.313   2.620 -0.0310 -0.0341  0.1758
14634TIP3    H165393   4.537   4.301   2.692  2.2826 -0.2279 -1.7553
14634TIP3    H265394   4.493   4.401   2.587 -0.3237 -0.3440 -0.8421
14635TIP3   OH265395   5.076   4.216   3.092  0.4946  0.0530 -0.5446
14635TIP3    H165396   5.081   4.281   3.022 -1.9218  0.8558 -0.0669
14635TIP3    H265397   5.103   4.134   3.051 -0.6028  0.5555 -2.3759
14636TIP3   OH265398   2.899   6.404  17.213  0.0549  0.2926 -0.3888
14636TIP3    H165399   2.967   6.382  17.150  0.7387  1.7931 -0.2201
14636TIP3    H265400   2.842   6.466  17.167 -1.4564 -1.2349 -0.6605
14637TIP3   OH265401   0.431   4.635   1.197  0.6354 -0.2624 -0.1312
14637TIP3    H165402   0.436   4.554   1.146  1.8389  0.4904 -1.2757
14637TIP3    H265403   0.492   4.622   1.269  0.6509 -0.4706 -0.1802
14638TIP3   OH265404   3.329   5.857  14.193 -0.5111 -0.0416 -0.4061
14638TIP3    H165405   3.362   5.940  14.226  0.9887  1.4474 -4.9412
14638TIP3    H265406   3.238   5.875  14.168 -0.8703 -0.4747  0.5103
14639TIP3   OH265407   4.110   1.802  14.691  0.5895  0.1360  0.0645
14639TIP3    H165408   4.016   1.794  14.704  0.8192 -1.4046  1.1271
14639TIP3    H265409   4.132   1.889  14.725 -0.4767  0.6458 -0.5158
14640TIP3   OH265410   4.906   4.952   3.872  0.1535  0.0489 -0.4188
14640TIP3    H165411   4.821   4.941   3.829 -0.0396  0.6720 -0.2051
14640TIP3    H265412   4.888   5.005   3.949  0.5354 -0.8808  0.3388
14641TIP3   OH265413   2.879   5.858  15.321  0.6453  0.0834  0.2147
14641TIP3    H165414   2.793   5.867  15.362 -0.4048 -0.5058 -1.7567
14641TIP3    H265415   2.891   5.940  15.274  1.1164  0.1042  0.3660
14642TIP3   OH265416   6.761   5.042   4.950  0.1523 -0.3243 -0.7326
14642TIP3    H165417   6.839   5.061   5.002 -0.6173 -1.1984  0.8056
14642TIP3    H265418   6.794   4.987   4.878  0.7599 -2.2092  0.8895
14643TIP3   OH265419   1.944   5.122   2.937  0.2581  0.9237  0.2791
14643TIP3    H165420   2.012   5.088   2.880  2.4277  2.5599  1.7374
14643TIP3    H265421   1.897   5.185   2.883  1.3818  1.4443 -0.1124
14644TIP3   OH265422   3.485   1.421  15.719  0.4601 -0.0038 -0.5595
14644TIP3    H165423   3.458   1.334  15.691  1.6099 -0.4425 -0.3250
14644TIP3    H265424   3.580   1.419  15.717  0.5213  0.8554  0.6386
14645TIP3   OH265425   0.469   5.262  11.693  0.0978 -0.0825 -0.4751
14645TIP3    H165426   0.443   5.295  11.780 -0.3222 -0.2638 -0.5289
14645TIP3    H265427   0.451   5.335  11.634  1.5338  0.4791 -0.2475
14646TIP3   OH265428   0.735   5.361   0.919  0.5180 -0.1752 -0.3253
14646TIP3    H165429   0.716   5.454   0.931  2.5257  0.3319 -0.5974
14646TIP3    H265430   0.783   5.358   0.836  3.6943 -0.8732  1.3822
14647TIP3   OH265431   3.238   3.648  14.004  0.0891 -0.5219 -0.2333
14647TIP3    H165432   3.248   3.740  13.981  0.9158 -0.5070  0.1718
14647TIP3    H265433   3.266   3.600  13.927 -1.4599 -0.4479 -0.8891
14648TIP3   OH265434   2.783   3.154  12.954 -0.1016 -0.5857  0.3505
14648TIP3    H165435   2.842   3.114  12.890 -0.8271 -0.5822 -0.3255
14648TIP3    H265436   2.833   3.153  13.036  0.7801 -0.7183 -0.1794
14649TIP3   OH265437   1.594   5.290  13.031  0.0703 -0.3643  0.5298
14649TIP3    H165438   1.638   5.207  13.046 -1.1049 -1.3134 -1.0066
14649TIP3    H265439   1.537   5.302  13.107  0.0974 -1.0638  0.6617
14650TIP3   OH265440   4.399   3.027   3.157 -0.0871 -0.2445  0.3389
14650TIP3    H165441   4.312   2.986   3.157 -0.6686  0.8826 -0.9630
14650TIP3    H265442   4.385   3.111   3.113  1.3432  0.7193  1.6352
14651TIP3   OH265443   1.503   3.097   5.112 -0.1411  0.2467 -0.4435
14651TIP3    H165444   1.550   3.014   5.124 -0.1505  0.4589  1.4489
14651TIP3    H265445   1.411   3.072   5.103 -0.1320  0.0376  0.0188
14652TIP3   OH265446   1.136   6.260  16.863  0.7300 -0.0495  0.5583
14652TIP3    H165447   1.165   6.286  16.776  0.9209  0.9891  0.9129
14652TIP3    H265448   1.107   6.169  16.854  0.5066  0.1339 -0.6368
14653TIP3   OH265449   2.828   0.972  11.053  0.3407  0.6730 -0.4576
14653TIP3    H165450   2.736   0.995  11.044  0.7906  3.2276  0.5682
14653TIP3    H265451   2.853   0.939  10.966 -2.0735 -2.6100 -0.0473
14654TIP3   OH265452   1.131   2.675   0.154  0.2057 -0.2499  0.2846
14654TIP3    H165453   1.158   2.682   0.246 -0.7715  0.3171  0.5343
14654TIP3    H265454   1.082   2.593   0.151  0.3613 -0.3421  0.2298
14655TIP3   OH265455   2.263   4.024  17.215 -0.3708 -0.1710  0.7930
14655TIP3    H165456   2.256   4.120  17.210 -1.6009 -0.2914 -0.1326
14655TIP3    H265457   2.294   4.008  17.304  0.4234  1.1094  0.7773
14656TIP3   OH265458   1.790   5.999   5.507  0.1240 -0.0137 -0.1418
14656TIP3    H165459   1.695   6.008   5.502  0.1223  1.8701  1.7082
14656TIP3    H265460   1.823   6.053   5.435 -0.2065  0.7759  0.2847
14657TIP3   OH265461   6.479   3.042  15.362 -0.2669 -0.1349 -0.1524
14657TIP3    H165462   6.442   3.022  15.447  0.8785  2.0176  0.9317
14657TIP3    H265463   6.556   2.985  15.355 -0.3001 -0.2336  0.2872
14658TIP3   OH265464   6.817   2.712  12.482 -0.1228 -0.4236  0.4411
14658TIP3    H165465   6.905   2.691  12.512  0.2574  1.2912  0.6149
14658TIP3    H265466   6.760   2.653  12.532  0.9596 -2.4748 -0.6299
14659TIP3   OH265467   0.011   5.470  15.137 -0.4241 -0.1591 -0.3850
14659TIP3    H165468  -0.006   5.422  15.056 -0.4304 -1.7427  0.5200
14659TIP3    H265469  -0.069   5.460  15.189  0.5155 -1.5431  0.9178
14660TIP3   OH265470   5.144   6.115   0.562  0.5876 -0.1256  0.1120
14660TIP3    H165471   5.239   6.105   0.553  0.6737  1.1620 -0.6872
14660TIP3    H265472   5.118   6.169   0.487 -0.8499 -0.7706  0.0981
14661TIP3   OH265473   4.766   2.133  10.624  0.5670  0.2431 -0.3975
14661TIP3    H165474   4.674   2.110  10.614  0.8844 -0.6637 -1.4559
14661TIP3    H265475   4.812   2.049  10.619  1.3611  0.5024  1.5906
14662TIP3   OH265476   2.023   1.021  13.529 -0.1679 -0.3161  0.6015
14662TIP3    H165477   1.958   1.091  13.518 -0.8425 -1.0450 -0.1429
14662TIP3    H265478   2.096   1.064  13.572 -1.8875  0.1130  3.3333
14663TIP3   OH265479   0.051   5.574   1.204  0.4297  0.2304 -0.0019
14663TIP3    H165480   0.061   5.547   1.112 -0.1287 -0.1162  0.0349
14663TIP3    H265481   0.016   5.497   1.248 -0.7526  0.8662  0.2018
14664TIP3   OH265482   2.569   0.389  14.113 -0.2007  0.4579 -0.1397
14664TIP3    H165483   2.490   0.356  14.070 -0.4869  1.3815 -0.3400
14664TIP3    H265484   2.628   0.411  14.041  0.1136  0.0730  0.0009
14665TIP3   OH265485   2.967   5.423   5.181  0.2580  0.5440  0.3312
14665TIP3    H165486   3.002   5.426   5.270 -1.6301 -0.0308  1.1279
14665TIP3    H265487   2.916   5.503   5.172 -1.6205 -0.5493  0.7074
14666TIP3   OH265488   2.082   4.351   3.289 -0.3634 -0.1031  0.2569
14666TIP3    H165489   2.043   4.265   3.274  1.4046 -1.0112  0.6284
14666TIP3    H265490   2.044   4.407   3.221 -1.0930 -1.3137 -0.3595
14667TIP3   OH265491   2.632   4.799   6.048 -0.0462 -0.1340  0.3065
14667TIP3    H165492   2.671   4.819   5.962 -0.1702  0.3933  0.3691
14667TIP3    H265493   2.706   4.805   6.109 -0.6256  3.8622  0.8958
14668TIP3   OH265494   6.435   4.242  15.836  0.1851  0.0862 -0.3887
14668TIP3    H165495   6.442   4.148  15.854 -0.5595 -0.2193 -1.6210
14668TIP3    H265496   6.420   4.281  15.922 -1.5913 -1.1441 -0.0796
14669TIP3   OH265497   3.740   0.228   0.615  0.5627 -0.5695 -0.0603
14669TIP3    H165498   3.822   0.217   0.567  0.8164  0.9791 -0.0557
14669TIP3    H265499   3.734   0.323   0.629 -2.0079 -0.4283 -1.4595
14670TIP3   OH265500   0.834   6.659   1.013  0.6993  0.2396 -0.1244
14670TIP3    H165501   0.744   6.640   1.041  0.9060  1.3236  1.3845
14670TIP3    H265502   0.824   6.698   0.926 -0.5230  2.3216  0.8756
14671TIP3   OH265503   2.276   2.703   1.202 -0.5435 -0.6879 -0.0519
14671TIP3    H165504   2.300   2.687   1.110 -4.0320 -0.8327 -1.0816
14671TIP3    H265505   2.281   2.798   1.211  0.1103 -0.6925 -0.2808
14672TIP3   OH265506   3.927   3.047   0.111 -0.0903  0.3440 -0.7594
14672TIP3    H165507   3.928   3.095   0.194  1.6495  1.0047 -1.1006
14672TIP3    H265508   4.009   2.997   0.112 -1.6872 -2.4717 -0.5681
14673TIP3   OH265509   3.719   0.241  11.128  0.3412  0.3986  0.1419
14673TIP3    H165510   3.764   0.320  11.097  0.4325 -0.3598 -1.7695
14673TIP3    H265511   3.630   0.249  11.096 -0.1270  0.5000  1.4068
14674TIP3   OH265512   2.118   4.598   0.327  0.1487 -0.0070  0.3580
14674TIP3    H165513   2.031   4.588   0.367  0.0709 -2.1812 -0.2638
14674TIP3    H265514   2.179   4.581   0.399  0.0081 -2.9625 -0.1275
14675TIP3   OH265515   5.747   2.658   1.600 -0.2908 -0.3037 -0.2249
14675TIP3    H165516   5.758   2.611   1.682  1.4452  0.3750 -0.0205
14675TIP3    H265517   5.765   2.593   1.532 -1.0705 -0.6952 -0.0748
14676TIP3   OH265518   4.800   5.553   5.101  0.3740  0.1331 -0.1181
14676TIP3    H165519   4.754   5.635   5.084 -2.1233 -0.0555  4.4208
14676TIP3    H265520   4.731   5.486   5.102  1.7733 -1.3737  0.2824
14677TIP3   OH265521   3.295   2.702  17.234  0.0862 -0.1823  0.5864
14677TIP3    H165522   3.375   2.754  17.230  0.5001 -0.6663  1.8536
14677TIP3    H265523   3.278   2.692  17.327 -1.2430 -0.4217  0.3332
14678TIP3   OH265524   3.303   5.385  15.394  0.0845 -0.1109 -0.0708
14678TIP3    H165525   3.253   5.405  15.474 -1.1644  0.2974 -0.9197
14678TIP3    H265526   3.342   5.469  15.369 -0.2797 -0.0337 -0.3859
14679TIP3   OH265527   4.070   2.795  15.250 -0.1474  0.5152  0.3235
14679TIP3    H165528   4.159   2.764  15.265 -1.2468 -2.4289  1.3528
14679TIP3    H265529   4.043   2.753  15.168 -1.6322 -1.3237  1.6812
14680TIP3   OH265530   6.654   4.456   2.845  0.2211  0.8343 -0.3323
14680TIP3    H165531   6.716   4.515   2.802 -1.1638  0.7196 -2.6776
14680TIP3    H265532   6.568   4.491   2.822 -0.7125 -2.3934 -2.5123
14681TIP3   OH265533   6.118   2.899   6.182  0.1988 -0.8188  0.5356
14681TIP3    H165534   6.178   2.846   6.234  1.3080  0.8503  1.0507
14681TIP3    H265535   6.090   2.968   6.241 -3.5328 -2.3547  0.8034
14682TIP3   OH265536   2.848   4.731   2.390 -0.2065  0.0800  0.0588
14682TIP3    H165537   2.926   4.786   2.380  0.2290 -0.1831  1.7066
14682TIP3    H265538   2.810   4.759   2.473  0.1553 -2.2215  1.0634
14683TIP3   OH265539   2.872   4.935  11.402  0.3766  0.2104  0.3045
14683TIP3    H165540   2.805   4.997  11.429 -1.6445 -1.0630 -1.4867
14683TIP3    H265541   2.924   4.983  11.337  0.3865  0.7687  0.7144
14684TIP3   OH265542   3.527   4.305  13.972  0.4500  0.1266  0.8809
14684TIP3    H165543   3.483   4.309  14.057 -1.3288  2.5551 -0.0770
14684TIP3    H265544   3.458   4.319  13.908  2.0083 -0.0841 -0.9277
14685TIP3   OH265545   4.156   6.216  16.300  0.2363  0.1998  0.4566
14685TIP3    H165546   4.164   6.285  16.234  0.6221 -0.1525  0.1267
14685TIP3    H265547   4.064   6.189  16.295 -0.0762  1.1156  1.0342
14686TIP3   OH265548   1.301   0.461   6.003  0.1723  0.6261  0.0588
14686TIP3    H165549   1.247   0.418   6.069 -0.6179 -0.6492 -1.3403
14686TIP3    H265550   1.375   0.497   6.052 -1.4176  1.5708  1.8885
14687TIP3   OH265551   1.505   4.771   4.772 -0.0498 -1.0060  0.2984
14687TIP3    H165552   1.574   4.727   4.822  0.6568 -0.4004 -0.1299
14687TIP3    H265553   1.552   4.823   4.707 -0.8207  0.8174  1.1270
14688TIP3   OH265554   1.054   2.166   1.612 -0.4987  0.6698 -0.0578
14688TIP3    H165555   1.122   2.197   1.553  0.2808 -0.6826  0.0903
14688TIP3    H265556   0.972   2.197   1.572  0.0592  0.4770 -1.4189
14689TIP3   OH265557   0.759   5.467   3.235  0.5041  0.6269 -0.2936
14689TIP3    H165558   0.702   5.544   3.244  1.7095  1.8646 -2.3430
14689TIP3    H265559   0.718   5.401   3.291 -0.6841  2.6695  1.4568
14690TIP3   OH265560   2.315   5.761  12.702 -0.5271 -0.2579 -0.0791
14690TIP3    H165561   2.231   5.787  12.739 -0.0755  1.9638 -0.4439
14690TIP3    H265562   2.379   5.778  12.771 -0.2987 -1.5582  0.0593
14691TIP3   OH265563   3.404   5.576   3.983  0.0459  0.2472 -0.3664
14691TIP3    H165564   3.411   5.665   3.947 -0.2961  0.3031 -0.2986
14691TIP3    H265565   3.310   5.561   3.991  0.0929 -0.2317 -0.6519
14692TIP3   OH265566   6.253   4.996   2.559  0.1369  0.6252  0.0652
14692TIP3    H165567   6.188   4.964   2.622  1.3965  0.1662  1.1725
14692TIP3    H265568   6.311   5.052   2.610  3.2030 -2.3392  0.2365
14693TIP3   OH265569   2.141   2.835   4.472  0.1073 -0.6934 -0.0091
14693TIP3    H165570   2.116   2.770   4.537 -0.4584  0.4913  0.9858
14693TIP3    H265571   2.233   2.816   4.453  0.3748 -0.8574  1.3735
14694TIP3   OH265572   2.912   1.594  13.651 -0.1015  0.0967 -0.2288
14694TIP3    H165573   2.877   1.509  13.677  1.7733 -0.0892  1.9487
14694TIP3    H265574   2.939   1.636  13.732 -1.5211  3.1157 -1.1519
14695TIP3   OH265575   5.492   5.350  15.110 -0.2712 -0.2912  0.6463
14695TIP3    H165576   5.413   5.311  15.070  0.5028 -0.8212 -0.4244
14695TIP3    H265577   5.505   5.300  15.190 -0.1573 -1.2482  0.0502
14696TIP3   OH265578   0.968   0.535   4.278 -0.1135 -0.2432 -0.0253
14696TIP3    H165579   0.888   0.565   4.236 -0.6656  1.6810  2.1976
14696TIP3    H265580   0.978   0.444   4.248 -2.5243 -0.2247 -1.1545
14697TIP3   OH265581   3.436   5.703   4.827 -0.1296  0.2259 -0.0552
14697TIP3    H165582   3.529   5.701   4.806 -0.2043  0.4132 -0.4073
14697TIP3    H265583   3.406   5.789   4.798 -0.7992 -0.5243 -1.6604
14698TIP3   OH265584   2.942   6.813  14.287 -0.1278 -0.4152 -0.3539
14698TIP3    H165585   2.904   6.900  14.274 -0.6344 -0.5292  0.3281
14698TIP3    H265586   2.897   6.778  14.364  0.7803 -0.8889 -0.0254
14699TIP3   OH265587   4.040   2.754   4.173  0.2289  0.3084  0.0151
14699TIP3    H165588   3.972   2.712   4.225  0.4827  1.3597  1.2408
14699TIP3    H265589   4.122   2.722   4.210  0.4174  0.1254 -0.5428
14700TIP3   OH265590   0.774   0.859  11.401 -0.6421 -0.3011 -0.1301
14700TIP3    H165591   0.721   0.780  11.385  0.5474 -1.2903  0.6468
14700TIP3    H265592   0.864   0.830  11.386 -0.0626  0.5038  1.6344
14701TIP3   OH265593   5.764   5.357  14.703  0.0387 -0.1954 -0.4518
14701TIP3    H165594   5.683   5.328  14.661  0.4212 -0.6504 -0.8873
14701TIP3    H265595   5.802   5.278  14.740  0.3653 -0.0107 -0.3851
14702TIP3   OH265596   4.226   2.391   4.849  0.5905 -0.2128  0.1662
14702TIP3    H165597   4.209   2.454   4.779 -0.9993  0.4253  1.0892
14702TIP3    H265598   4.169   2.317   4.828 -1.0374  0.5924  1.5306
14703TIP3   OH265599   4.241   6.052  14.989  0.3701  0.3828 -0.0759
14703TIP3    H165600   4.259   6.064  14.895  0.2338 -1.0543 -0.3189
14703TIP3    H265601   4.307   5.988  15.017 -1.9477 -2.2626 -0.1625
14704TIP3   OH265602   1.829   2.400  10.555 -0.8813 -0.2423  0.8002
14704TIP3    H165603   1.748   2.375  10.511 -1.4058  1.0838  0.9370
14704TIP3    H265604   1.841   2.492  10.532 -0.4236  0.1015  2.2610
14705TIP3   OH265605   2.669   1.513   1.177 -0.2719  0.0241  0.6903
14705TIP3    H165606   2.624   1.590   1.212  0.3453  1.3014 -1.1921
14705TIP3    H265607   2.642   1.442   1.235 -3.5537  0.9789  0.5448
14706TIP3   OH265608   3.352   4.582  14.318  0.5282  0.5175  0.0330
14706TIP3    H165609   3.396   4.616  14.241  0.6865  2.7671  1.0369
14706TIP3    H265610   3.341   4.658  14.375 -0.8022 -0.8022  1.6516
14707TIP3   OH265611   1.915   5.601  10.773 -0.5194  0.0779  0.1623
14707TIP3    H165612   1.925   5.506  10.770 -0.4039  0.1012 -2.1424
14707TIP3    H265613   1.840   5.616  10.831 -0.2146 -1.3667  0.9743
14708TIP3   OH265614   1.181   2.404   5.707 -0.0989  0.0689  0.4759
14708TIP3    H165615   1.249   2.447   5.655  0.1676  0.3941  1.0924
14708TIP3    H265616   1.130   2.476   5.744 -0.6631 -0.1700  0.1729
14709TIP3   OH265617   0.652   6.788   0.536 -0.2474  0.2219  0.7882
14709TIP3    H165618   0.642   6.762   0.444 -0.0701  0.5353  0.6795
14709TIP3    H265619   0.562   6.795   0.568 -0.3022 -1.4491  1.0912
14710TIP3   OH265620   5.706   4.994   4.272 -0.4839  0.1736  0.0440
14710TIP3    H165621   5.738   4.915   4.228 -2.5271  0.4392 -2.1146
14710TIP3    H265622   5.611   4.986   4.269 -0.8280  3.2564 -1.4205
14711TIP3   OH265623   5.638   4.152   3.828 -0.0832 -0.1896  0.4721
14711TIP3    H165624   5.680   4.136   3.913  0.1738  1.3857  0.6857
14711TIP3    H265625   5.711   4.163   3.767 -0.1997  0.8434  0.5022
14712TIP3   OH265626   0.524   4.461  12.559  0.4202  0.5425  0.4302
14712TIP3    H165627   0.618   4.450  12.574  0.4473 -0.2230 -0.2818
14712TIP3    H265628   0.502   4.398  12.491 -0.7535  0.2198  1.0659
14713TIP3   OH265629   4.923   2.173  16.111  0.1851  0.4148 -0.0517
14713TIP3    H165630   4.943   2.117  16.185  1.2068 -1.2859 -1.5242
14713TIP3    H265631   4.832   2.200  16.124 -0.2381 -1.3510  0.8796
14714TIP3   OH265632   0.257   4.550   1.513  0.2739  0.1049  0.3058
14714TIP3    H165633   0.353   4.549   1.520  0.3641  2.0424 -0.0381
14714TIP3    H265634   0.239   4.585   1.426 -0.7648 -0.7062  0.1758
14715TIP3   OH265635   2.133   0.743   2.999 -0.4593 -0.6976  0.5293
14715TIP3    H165636   2.137   0.839   2.999  1.6615 -0.7411  0.7217
14715TIP3    H265637   2.148   0.718   3.090  1.0278 -1.2283  0.1677
14716TIP3   OH265638   0.917   5.206  15.551  0.1225 -0.4768 -0.0613
14716TIP3    H165639   0.853   5.262  15.506  0.3277  1.6042  2.0247
14716TIP3    H265640   0.864   5.145  15.602 -0.2976  0.8695  1.2108
14717TIP3   OH265641   3.696   5.218   4.542  0.2224  0.0843 -0.0771
14717TIP3    H165642   3.640   5.287   4.577  0.1861 -0.5796  1.2560
14717TIP3    H265643   3.779   5.228   4.589  0.3439 -0.5275 -0.1495
14718TIP3   OH265644   1.219   6.631   0.340  0.9614 -0.3879  0.4948
14718TIP3    H165645   1.237   6.708   0.287  1.3837  0.1123  1.3516
14718TIP3    H265646   1.230   6.660   0.430  0.5568 -1.3039  0.8539
14719TIP3   OH265647   0.013   4.768   5.268 -0.0593 -0.2215 -0.7819
14719TIP3    H165648   0.011   4.741   5.177 -1.3374 -0.4875 -0.6946
14719TIP3    H265649  -0.077   4.794   5.287 -0.0389 -1.0697  0.6540
14720TIP3   OH265650   6.016   5.798   2.106  0.8001 -0.6726 -0.0998
14720TIP3    H165651   6.033   5.889   2.126  0.8813 -1.0713  1.8038
14720TIP3    H265652   5.966   5.765   2.180  0.3197 -2.0554 -0.9777
14721TIP3   OH265653   4.040   0.465  16.520  0.2770 -0.3111 -0.3306
14721TIP3    H165654   4.037   0.558  16.496  2.7847  0.4390  1.8753
14721TIP3    H265655   4.064   0.421  16.438  1.3799  1.2607 -0.9174
14722TIP3   OH265656   2.669   1.352   2.851  0.1230  0.4558  0.4507
14722TIP3    H165657   2.712   1.300   2.782  0.1793  0.7546  0.2612
14722TIP3    H265658   2.740   1.372   2.912 -0.5370 -3.1143  2.7249
14723TIP3   OH265659   3.019   2.500   2.110 -0.5825  0.5109 -0.3764
14723TIP3    H165660   3.030   2.575   2.051 -0.2933  0.8431  0.0892
14723TIP3    H265661   2.994   2.540   2.194  1.0016  0.1997  0.2686
14724TIP3   OH265662   6.533   1.316  12.220 -0.0539 -0.3629 -0.2293
14724TIP3    H165663   6.523   1.226  12.252 -0.1369  0.3562  1.9104
14724TIP3    H265664   6.468   1.324  12.150  0.9908 -2.3998 -1.5272
14725TIP3   OH265665   2.139   2.120  15.624 -0.3712 -0.0955 -0.3795
14725TIP3    H165666   2.130   2.136  15.718  2.2775  0.1278 -0.0894
14725TIP3    H265667   2.060   2.159  15.586 -1.1014  0.5786  1.6700
14726TIP3   OH265668   6.547   1.231   4.516  0.2584  0.1728  0.6671
14726TIP3    H165669   6.574   1.150   4.560  0.1187 -0.1964  0.0891
14726TIP3    H265670   6.470   1.206   4.465 -0.1615  0.8229  0.9812
14727TIP3   OH265671   2.092   4.540   5.820  0.0021  0.6337 -0.2110
14727TIP3    H165672   2.173   4.490   5.822  0.2363  1.0320  0.9263
14727TIP3    H265673   2.077   4.558   5.727  0.4899 -0.5906 -0.5443
14728TIP3   OH265674   1.963   5.718   2.802 -0.6489 -0.0300  0.4337
14728TIP3    H165675   1.926   5.783   2.862  0.0782  0.4469  0.3754
14728TIP3    H265676   2.033   5.765   2.757  1.2068 -1.3972  1.7778
14729TIP3   OH265677   2.939   3.498  14.935  0.2314 -0.4701 -0.0651
14729TIP3    H165678   2.939   3.406  14.910  0.0970 -0.6113  0.4414
14729TIP3    H265679   3.014   3.536  14.890 -1.2084 -0.2264 -2.4192
14730TIP3   OH265680   6.339   4.611  15.751  0.1660 -0.0101  0.1692
14730TIP3    H165681   6.266   4.555  15.725 -0.7540  1.4647 -0.6152
14730TIP3    H265682   6.364   4.580  15.838 -1.6060 -0.3806  0.5947
14731TIP3   OH265683   5.140   5.331   1.635 -0.4623 -0.4675 -0.2645
14731TIP3    H165684   5.139   5.356   1.543 -0.4036  0.9013  0.0939
14731TIP3    H265685   5.147   5.413   1.683  1.0206 -1.2243  0.9333
14732TIP3   OH265686   6.277   4.119  15.664 -0.0033  0.0468  0.2442
14732TIP3    H165687   6.334   4.194  15.676  1.0280 -0.0669 -3.0196
14732TIP3    H265688   6.238   4.131  15.577 -2.3728 -1.5828  0.9630
14733TIP3   OH265689   5.587   2.083   0.957 -0.2622 -0.4631 -0.9396
14733TIP3    H165690   5.525   2.145   0.996  0.4879  1.0454 -2.0322
14733TIP3    H265691   5.672   2.126   0.965  0.4015 -1.7107 -1.0448
14734TIP3   OH265692   1.421   4.421   1.385  0.2082 -0.3635 -0.0249
14734TIP3    H165693   1.506   4.399   1.345  0.7818  1.5831  0.0063
14734TIP3    H265694   1.441   4.434   1.478 -0.4350 -1.3357  0.2654
14735TIP3   OH265695   1.140   3.488  15.903  0.1419 -0.0728 -0.2107
14735TIP3    H165696   1.100   3.413  15.858  0.3371 -0.5986  0.4916
14735TIP3    H265697   1.141   3.557  15.836 -0.5784 -0.5050 -0.6909
14736TIP3   OH265698   2.995   3.946   5.707 -0.0380  0.2290 -0.5082
14736TIP3    H165699   3.041   3.927   5.789  0.5574 -0.7181 -1.0440
14736TIP3    H265700   2.954   4.031   5.722 -1.5955 -0.7874  1.4751
14737TIP3   OH265701   3.254   6.355  14.457  0.0363  0.6611 -0.4229
14737TIP3    H165702   3.344   6.322  14.450 -0.1024  0.0115  0.5767
14737TIP3    H265703   3.242   6.411  14.380  1.1398  0.3840 -0.8094
14738TIP3   OH265704   1.676   3.214  14.729 -0.0237  0.1420  0.2498
14738TIP3    H165705   1.607   3.160  14.691  1.3890 -0.2457 -1.9246
14738TIP3    H265706   1.677   3.293  14.676  2.4922 -0.7231 -1.1586
14739TIP3   OH265707   0.098   5.208   4.230 -0.9738 -0.4983  0.6785
14739TIP3    H165708   0.151   5.217   4.151 -0.2411 -0.6829  1.1359
14739TIP3    H265709   0.154   5.242   4.300 -2.0522  0.8007  0.9653
14740TIP3   OH265710   2.379   3.428  12.499 -0.4474 -0.2231 -0.4600
14740TIP3    H165711   2.423   3.365  12.441 -0.5821 -0.6027 -0.1554
14740TIP3    H265712   2.417   3.512  12.476  0.0822 -0.4805 -0.5421
14741TIP3   OH265713   1.158   2.122  16.163 -0.1777  0.1245  0.2515
14741TIP3    H165714   1.080   2.119  16.108  1.3807 -1.8900 -2.0849
14741TIP3    H265715   1.225   2.163  16.109  1.0684 -0.6260  1.1494
14742TIP3   OH265716   5.565   3.236  12.988  0.5192 -0.1076  0.0455
14742TIP3    H165717   5.481   3.279  12.972  0.3986 -0.3978 -0.0841
14742TIP3    H265718   5.588   3.263  13.078  0.6709  0.6078 -0.2003
14743TIP3   OH265719   3.134   0.987   2.580 -0.3009  0.3380 -0.0608
14743TIP3    H165720   3.094   1.074   2.587 -0.6206  0.1149  1.2056
14743TIP3    H265721   3.149   0.961   2.671  1.2204 -0.2887 -0.4544
14744TIP3   OH265722   6.504   5.216   5.843  0.1370 -0.6953  0.3698
14744TIP3    H165723   6.413   5.189   5.842  0.4469 -1.7674  0.1103
14744TIP3    H265724   6.554   5.135   5.842  1.0981 -0.1325 -0.4585
14745TIP3   OH265725   3.588   2.693  11.787 -0.1807  0.4145 -0.2949
14745TIP3    H165726   3.508   2.740  11.762 -0.3203  0.5406  0.3672
14745TIP3    H265727   3.631   2.751  11.850 -1.6977 -1.4305  2.6565
14746TIP3   OH265728   5.229   3.968  15.068  0.2349  0.1579 -0.1927
14746TIP3    H165729   5.299   3.904  15.081 -0.5305 -0.5816  0.3661
14746TIP3    H265730   5.190   3.979  15.154  0.2514  1.2791 -0.3123
14747TIP3   OH265731   2.907   2.417   1.705  0.3489  0.2742  0.2938
14747TIP3    H165732   2.848   2.483   1.741  0.6475 -0.5505  2.4303
14747TIP3    H265733   2.855   2.336   1.705  0.1055  0.3819 -1.9433
14748TIP3   OH265734   1.575   5.491  17.181 -0.5462 -0.1522  0.5614
14748TIP3    H165735   1.593   5.397  17.189  0.4628  0.1484  2.2908
14748TIP3    H265736   1.514   5.510  17.252 -0.4784  0.5746  0.4350
14749TIP3   OH265737   0.089   4.255  11.531  0.0447  0.5432 -0.2817
14749TIP3    H165738   0.140   4.302  11.597 -0.6632  0.2050  0.5228
14749TIP3    H265739   0.072   4.320  11.464  2.3222  0.4414 -1.0647
14750TIP3   OH265740   4.003   1.935   4.057  0.4588 -0.1575  0.4232
14750TIP3    H165741   4.045   1.851   4.077  1.4520  0.6702  2.0258
14750TIP3    H265742   3.919   1.911   4.020  0.5294 -1.8845  1.2757
14751TIP3   OH265743   4.458   2.259   2.598  0.1379  0.2873 -0.2612
14751TIP3    H165744   4.472   2.211   2.680 -0.6385  1.3290  0.4992
14751TIP3    H265745   4.544   2.258   2.555  0.7714  0.4259  0.9490
14752TIP3   OH265746   6.195   3.217   2.718  0.5916 -0.1585 -1.0928
14752TIP3    H165747   6.127   3.195   2.781  0.8477  0.7803 -0.4624
14752TIP3    H265748   6.153   3.210   2.632 -0.1163 -0.2038 -0.7450
14753TIP3   OH265749   3.332   4.930  13.051 -0.0461 -0.1270  0.0190
14753TIP3    H165750   3.239   4.951  13.062 -0.1660 -1.2528  1.3758
14753TIP3    H265751   3.338   4.897  12.961 -1.3123 -1.7571  0.4859
14754TIP3   OH265752   1.346   4.770   5.015 -0.0216 -0.1460  0.2467
14754TIP3    H165753   1.316   4.859   5.032  1.5190  0.1657  1.4599
14754TIP3    H265754   1.358   4.766   4.920 -2.2311  0.1977 -0.1192
14755TIP3   OH265755   1.528   6.500   4.595 -0.0994  0.1935  0.6284
14755TIP3    H165756   1.543   6.537   4.682 -0.0786 -2.0354  1.6410
14755TIP3    H265757   1.610   6.514   4.549  0.3551  0.2246  1.4198
14756TIP3   OH265758   0.931   0.434   4.651 -0.4035 -0.2671  0.7065
14756TIP3    H165759   0.922   0.529   4.661 -0.5546 -0.3511  1.4323
14756TIP3    H265760   0.946   0.402   4.740  0.5581 -0.8273  0.3559
14757TIP3   OH265761   0.712   5.845   4.204  0.2416 -0.3253 -0.9486
14757TIP3    H165762   0.722   5.929   4.160 -1.0747 -0.3097 -1.2861
14757TIP3    H265763   0.703   5.782   4.133 -1.2913 -0.3813 -0.7453
14758TIP3   OH265764   2.004   4.214   0.749  0.0988 -0.6387  0.0632
14758TIP3    H165765   2.033   4.137   0.700 -0.0588  0.3320 -1.6601
14758TIP3    H265766   2.069   4.281   0.729 -1.1929  0.4515 -0.7195
14759TIP3   OH265767   2.094   2.007   5.993 -0.4385  0.1979 -0.0434
14759TIP3    H165768   2.134   2.006   6.080  0.2909 -0.7236 -0.3672
14759TIP3    H265769   2.130   2.085   5.951  0.8887 -0.5062 -0.2545
14760TIP3   OH265770   4.096   6.517  11.075  0.3412  0.3612  0.3573
14760TIP3    H165771   4.140   6.551  11.153 -0.0717  1.1608  0.2530
14760TIP3    H265772   4.082   6.594  11.020  1.5499 -0.3323 -0.9828
14761TIP3   OH265773   5.042   2.046   5.116  0.3261  0.0792 -0.0089
14761TIP3    H165774   4.990   2.116   5.156 -1.1460 -1.4981  0.9342
14761TIP3    H265775   4.989   1.967   5.127  1.5630 -1.0655 -1.8022
14762TIP3   OH265776   2.520   0.842  13.003 -0.3528  0.1037  0.3306
14762TIP3    H165777   2.449   0.781  13.018  0.4364 -0.3558  2.4983
14762TIP3    H265778   2.535   0.839  12.908  0.7293 -4.3479  0.4180
14763TIP3   OH265779   1.962   4.535   3.112  0.1920  0.2701  0.0607
14763TIP3    H165780   1.881   4.504   3.072 -0.5681 -0.3674  1.9435
14763TIP3    H265781   1.941   4.623   3.143  0.3745  0.3079  0.0765
14764TIP3   OH265782   5.490   4.294  15.950 -0.1434 -0.3586 -0.4121
14764TIP3    H165783   5.480   4.221  16.011  0.5569  0.7237  1.0369
14764TIP3    H265784   5.416   4.351  15.968 -0.3549 -0.3957 -1.1275
14765TIP3   OH265785   4.611   2.859   3.058 -0.2235  0.1623 -0.2037
14765TIP3    H165786   4.534   2.914   3.076 -0.9748 -0.8894 -0.1384
14765TIP3    H265787   4.614   2.798   3.131  0.8557  0.3616 -0.0615
14766TIP3   OH265788   4.147   4.131  14.236 -0.1768  0.9475  0.0721
14766TIP3    H165789   4.144   4.050  14.287 -0.1565  0.7650 -0.2111
14766TIP3    H265790   4.096   4.194  14.287  0.6023  1.0357  0.7673
14767TIP3   OH265791   4.895   0.057   4.729  0.1614  0.1205  0.1366
14767TIP3    H165792   4.851   0.041   4.645  1.0406 -0.1918 -0.2782
14767TIP3    H265793   4.912  -0.031   4.763  0.2171  0.2421  0.4232
14768TIP3   OH265794   2.652   4.465   4.989 -0.2416  0.2821  0.2728
14768TIP3    H165795   2.663   4.392   4.928 -0.0393  1.0733 -0.6626
14768TIP3    H265796   2.713   4.532   4.959 -1.0656  1.1946  0.5505
14769TIP3   OH265797   6.146   3.710  14.522  0.6432  0.4838 -0.6864
14769TIP3    H165798   6.057   3.683  14.543  1.0721  0.9363  2.1703
14769TIP3    H265799   6.200   3.673  14.592  2.3132  2.3686 -0.8657
14770TIP3   OH265800   6.511   2.200   0.283 -0.2065  0.3025 -0.4491
14770TIP3    H165801   6.416   2.206   0.275 -0.5094  1.3161  2.7963
14770TIP3    H265802   6.537   2.142   0.210 -3.4034 -1.0551 -0.6843
14771TIP3   OH265803   2.325   4.046   3.306 -0.7485  0.1593  0.0877
14771TIP3    H165804   2.273   4.081   3.234 -2.0183  0.4632  1.1192
14771TIP3    H265805   2.349   3.958   3.278 -1.3143  0.2396 -0.6577
14772TIP3   OH265806   0.709   0.209   4.667 -0.1959  0.1715 -0.0400
14772TIP3    H165807   0.747   0.292   4.640 -0.6201  0.4682  0.2688
14772TIP3    H265808   0.616   0.217   4.648 -0.0005 -0.9454 -1.7898
14773TIP3   OH265809   5.302   6.271   1.220 -0.2803  0.0939  0.6198
14773TIP3    H165810   5.289   6.229   1.306 -1.7293  0.2322  0.4954
14773TIP3    H265811   5.230   6.238   1.167 -0.7600  1.8123  0.1608
14774TIP3   OH265812   0.842   3.959  12.695 -0.2578 -0.2985 -0.2648
14774TIP3    H165813   0.901   4.006  12.755  0.4886 -0.0828 -1.1428
14774TIP3    H265814   0.781   4.026  12.665  1.6550  0.5295 -2.5940
14775TIP3   OH265815   4.005   5.086  13.154  0.9281  0.7781 -0.1656
14775TIP3    H165816   4.088   5.128  13.180  0.2376  1.6286  0.7342
14775TIP3    H265817   4.024   4.992  13.156  1.3691  0.8482  1.9557
14776TIP3   OH265818   1.058   4.181  10.782  0.0504 -0.1058 -0.2447
14776TIP3    H165819   1.131   4.119  10.778 -1.4157 -1.8513 -1.7608
14776TIP3    H265820   0.981   4.126  10.790 -1.3450  1.5059 -1.7567
14777TIP3   OH265821   1.131   4.313   0.170  0.3074 -0.4343 -0.0628
14777TIP3    H165822   1.145   4.338   0.262  0.8419  0.6512 -0.4271
14777TIP3    H265823   1.168   4.385   0.120 -0.2569 -0.8812 -1.1403
14778TIP3   OH265824   6.124   5.357  15.663  0.4028  0.0361 -0.1583
14778TIP3    H165825   6.144   5.265  15.680  0.1791  0.3294  1.9738
14778TIP3    H265826   6.076   5.357  15.580  1.3742 -1.6225 -0.7579
14779TIP3   OH265827   1.929   3.488  17.271  0.1317  0.1255 -0.1108
14779TIP3    H165828   1.887   3.548  17.210  0.8636 -1.3040 -2.1209
14779TIP3    H265829   1.858   3.437  17.309 -0.1846 -0.4497 -1.4484
14780TIP3   OH265830   1.921   6.242  11.495  0.2442 -0.5825 -0.0732
14780TIP3    H165831   1.853   6.174  11.491  1.0711 -1.4691  0.4338
14780TIP3    H265832   1.968   6.233  11.412  1.3858 -1.7720  0.6638
14781TIP3   OH265833   2.536   2.946   0.623 -0.0217 -0.2751  0.0981
14781TIP3    H165834   2.570   2.857   0.611  1.1245  0.1114  0.3137
14781TIP3    H265835   2.608   2.993   0.665 -1.3298  0.2374  1.8936
14782TIP3   OH265836   4.562   3.958   1.311  0.3112  0.3638 -0.1517
14782TIP3    H165837   4.540   3.882   1.365  1.1850  0.4401  0.3405
14782TIP3    H265838   4.593   3.921   1.229  1.9247  0.1099  0.5340
14783TIP3   OH265839   3.316   3.103   3.479 -0.1043  0.0465  0.3184
14783TIP3    H165840   3.271   3.122   3.396 -0.3459 -0.3253  0.3625
14783TIP3    H265841   3.393   3.052   3.453  1.0366  1.7802  0.1085
14784TIP3   OH265842   2.380   6.229  12.390  0.0454  0.5075 -0.3870
14784TIP3    H165843   2.442   6.156  12.392 -0.3459  0.1676  1.6307
14784TIP3    H265844   2.295   6.187  12.373 -0.1994  0.4410  0.9038
14785TIP3   OH265845   5.848   4.994  14.168 -0.1779 -0.4161  0.0374
14785TIP3    H165846   5.776   5.048  14.136 -0.5994 -1.5596 -1.0138
14785TIP3    H265847   5.856   4.923  14.104  1.2307 -0.8681  0.6660
14786TIP3   OH265848   2.473   1.214  17.224  0.2427 -0.2599  0.0654
14786TIP3    H165849   2.476   1.310  17.219 -0.3181 -0.1354  1.7439
14786TIP3    H265850   2.415   1.188  17.153 -0.3910  0.7210  0.2087
14787TIP3   OH265851   2.894   1.547   4.332 -0.0038  0.1244 -0.2769
14787TIP3    H165852   2.940   1.558   4.248  0.6829  0.7215  0.1645
14787TIP3    H265853   2.802   1.539   4.308  0.2558 -0.3642 -1.1342
14788TIP3   OH265854   1.171   5.450  17.116  0.6883  0.5031 -0.0198
14788TIP3    H165855   1.122   5.417  17.191  0.0686  0.4108 -0.4657
14788TIP3    H265856   1.207   5.534  17.146 -0.1176  0.7885  0.1566
14789TIP3   OH265857   3.316   4.384   2.391 -0.4457  0.1587 -0.0349
14789TIP3    H165858   3.263   4.346   2.461 -0.9330  0.4933 -0.2120
14789TIP3    H265859   3.278   4.471   2.377  0.9741  0.9312  0.7190
14790TIP3   OH265860   5.695   3.068   5.308 -0.5604 -0.3954 -0.4581
14790TIP3    H165861   5.749   3.114   5.372 -1.2614  0.0902 -0.2034
14790TIP3    H265862   5.689   2.979   5.340 -0.9866 -0.1317  0.2201
14791TIP3   OH265863   2.125   6.138  12.081  0.4005  0.0502 -0.3117
14791TIP3    H165864   2.117   6.163  11.989 -3.1260 -1.1817 -0.4838
14791TIP3    H265865   2.171   6.054  12.079  1.0060  0.3850 -0.8598
14792TIP3   OH265866   2.631   0.252   1.428 -0.1349 -0.1531  0.1638
14792TIP3    H165867   2.720   0.285   1.418 -0.7309  1.4300 -0.2211
14792TIP3    H265868   2.590   0.268   1.342 -0.7549 -0.9864  0.2908
14793TIP3   OH265869   3.654   2.114  13.108 -0.0056 -0.2862 -0.3391
14793TIP3    H165870   3.660   2.070  13.193  0.4743  0.5896  0.0900
14793TIP3    H265871   3.570   2.085  13.072 -0.0893 -0.8817  0.3041
14794TIP3   OH265872   6.239   1.497  13.621 -0.1189  0.6223  0.9569
14794TIP3    H165873   6.327   1.470  13.649  0.1927  0.8548  0.2224
14794TIP3    H265874   6.248   1.513  13.527 -0.9632  0.6012  0.8685
14795TIP3   OH265875   4.883   1.308   5.227 -0.8223  0.2487  0.1513
14795TIP3    H165876   4.884   1.247   5.301  3.2522  0.6722  0.6390
14795TIP3    H265877   4.885   1.395   5.267  0.7852  0.4897 -0.3874
14796TIP3   OH265878   5.720   2.494  11.250 -0.1431 -0.3519 -0.0322
14796TIP3    H165879   5.686   2.420  11.199 -1.5724 -1.0772  1.8834
14796TIP3    H265880   5.801   2.518  11.205  0.0102 -2.6343 -1.1184
14797TIP3   OH265881   3.189   0.519   6.432 -0.5647 -0.1338  0.3316
14797TIP3    H165882   3.229   0.599   6.466 -0.4039 -1.3400  3.3143
14797TIP3    H265883   3.237   0.448   6.474 -0.9252 -1.8512 -1.9457
14798TIP3   OH265884   5.445   1.383  12.587  0.6961  0.0131 -0.5738
14798TIP3    H165885   5.533   1.398  12.620  0.0040  0.3435  1.2157
14798TIP3    H265886   5.415   1.469  12.558  0.9421 -0.0952 -1.1618
14799TIP3   OH265887   1.360   5.924   6.415  0.1949 -0.0350  0.3102
14799TIP3    H165888   1.433   5.967   6.371 -0.6693 -0.1246 -1.3064
14799TIP3    H265889   1.283   5.951   6.364 -0.9328  0.2438  2.0970
14800TIP3   OH265890   3.519   0.291  17.171 -0.3947 -0.3369  0.3555
14800TIP3    H165891   3.508   0.241  17.090 -1.5711  1.6016 -0.7647
14800TIP3    H265892   3.445   0.263  17.226 -1.2182  0.3351 -0.3774
14801TIP3   OH265893   2.390   0.625  15.408 -0.1033 -0.4559  0.3663
14801TIP3    H165894   2.299   0.599  15.395 -0.1470 -0.1753  0.0962
14801TIP3    H265895   2.431   0.612  15.322 -0.0848  0.1929  0.2715
14802TIP3   OH265896   4.848   3.952  13.775  0.0316 -0.0287  0.3955
14802TIP3    H165897   4.880   3.938  13.686 -0.0999 -0.2714  0.3853
14802TIP3    H265898   4.753   3.940  13.769  0.1452 -1.3650  0.8085
14803TIP3   OH265899   6.434   1.096  14.961  0.1970 -0.6482  0.0006
14803TIP3    H165900   6.498   1.037  15.001  1.2325  2.0263  2.6681
14803TIP3    H265901   6.485   1.174  14.939 -1.0907 -0.6378 -3.4703
14804TIP3   OH265902   3.057   2.190  14.125  0.9237  0.0044 -0.5668
14804TIP3    H165903   3.045   2.095  14.132  0.4312  0.1491  1.1452
14804TIP3    H265904   3.149   2.204  14.146  0.9165 -0.0866 -0.4703
14805TIP3   OH265905   2.568   0.512  13.211 -0.3202  0.3398 -0.3542
14805TIP3    H165906   2.502   0.543  13.148  0.6548 -2.2658 -2.8412
14805TIP3    H265907   2.588   0.423  13.183  1.4490 -0.3537  2.7107
14806TIP3   OH265908   0.237   3.975  11.514  0.2558 -0.4038  0.3517
14806TIP3    H165909   0.169   4.037  11.539  1.8070  1.1169  0.9953
14806TIP3    H265910   0.255   3.994  11.422 -0.5310 -1.1990  0.0099
14807TIP3   OH265911   6.354   1.202  13.047 -0.4401  0.1187 -0.5975
14807TIP3    H165912   6.302   1.250  12.983 -1.6846 -0.1482  0.1781
14807TIP3    H265913   6.382   1.123  13.000  0.6422  1.0007 -1.5121
14808TIP3   OH265914   6.530   2.978   4.229 -0.1366 -0.9334  0.0875
14808TIP3    H165915   6.460   2.989   4.165 -0.6627 -1.4775  0.5552
14808TIP3    H265916   6.587   3.053   4.215  0.1873 -1.4442 -1.5385
14809TIP3   OH265917   2.649   2.043   4.040 -0.1932 -0.0343  0.8512
14809TIP3    H165918   2.714   2.002   4.097  1.6171  0.7046 -0.5758
14809TIP3    H265919   2.577   1.980   4.037  0.0362 -0.5069  3.1622
14810TIP3   OH265920   4.388   1.566  14.247  0.0164  0.2709  0.4538
14810TIP3    H165921   4.404   1.566  14.153  1.1611  0.8652  0.6346
14810TIP3    H265922   4.391   1.658  14.272 -1.4158  0.2239  0.9075
14811TIP3   OH265923   4.128   1.755   5.099  0.0141 -0.0167 -0.0643
14811TIP3    H165924   4.159   1.740   5.010  1.7829 -0.4692  0.5922
14811TIP3    H265925   4.192   1.814   5.137 -0.5201 -0.1221  1.0345
14812TIP3   OH265926   3.711   6.332   2.731  0.2835  0.0756  0.6546
14812TIP3    H165927   3.691   6.354   2.822 -0.3299  1.5627  0.1935
14812TIP3    H265928   3.761   6.406   2.698 -0.4767  0.0880 -0.5380
14813TIP3   OH265929   4.009   3.202  13.204 -0.2020 -0.4319  0.2262
14813TIP3    H165930   3.966   3.139  13.147 -0.1345  0.2630 -0.6111
14813TIP3    H265931   3.982   3.288  13.171  0.2930 -0.0107  0.8816
14814TIP3   OH265932   4.976   0.105  14.959 -0.0181 -0.0817  0.6013
14814TIP3    H165933   4.922   0.048  15.014  0.4466  0.0750  1.2283
14814TIP3    H265934   4.965   0.192  14.997  0.1524  0.0635  0.3234
14815TIP3   OH265935   4.649   3.201  15.106 -0.7652  0.2414  0.2331
14815TIP3    H165936   4.716   3.248  15.156  0.4181 -0.8054 -0.3043
14815TIP3    H265937   4.572   3.203  15.161 -0.3861  1.7584  0.7394
14816TIP3   OH265938   1.697   2.243  11.484  0.3342  0.4406 -0.0731
14816TIP3    H165939   1.609   2.265  11.454 -0.0919 -0.5752  0.3667
14816TIP3    H265940   1.692   2.248  11.579  0.6159 -0.0651 -0.0258
14817TIP3   OH265941   1.954   0.960  14.691  0.4088 -0.0833 -0.6858
14817TIP3    H165942   2.049   0.950  14.696  0.3538  0.1105  1.2726
14817TIP3    H265943   1.919   0.876  14.719 -0.0254 -0.2263 -1.5999
14818TIP3   OH265944   2.105   5.516   5.956 -0.5932 -0.3529 -0.1868
14818TIP3    H165945   2.177   5.494   6.015 -1.1776 -0.8150  0.3540
14818TIP3    H265946   2.089   5.436   5.907 -0.6430 -0.2024 -0.4182
14819TIP3   OH265947   4.180   0.946  16.447  0.1896 -0.3787  0.2295
14819TIP3    H165948   4.235   0.953  16.369  0.2769 -0.4471  0.2839
14819TIP3    H265949   4.218   1.008  16.509 -0.7927  0.8037 -0.3170
14820TIP3   OH265950   6.112   3.716  13.910 -0.4024  0.1909  0.4387
14820TIP3    H165951   6.109   3.620  13.902 -0.4286  0.2959 -1.0600
14820TIP3    H265952   6.029   3.746  13.874  0.2280  0.8526 -0.4953
14821TIP3   OH265953   1.918   6.611  14.482 -0.5053 -0.0233 -0.2770
14821TIP3    H165954   1.902   6.621  14.388 -1.5792 -1.3460 -0.2577
14821TIP3    H265955   1.832   6.591  14.519  0.3261 -2.2963  0.5816
14822TIP3   OH265956   3.901   6.342   6.079 -0.0874 -0.3848 -0.4025
14822TIP3    H165957   3.858   6.312   5.999  0.1739 -0.3064 -0.5718
14822TIP3    H265958   3.967   6.405   6.049 -1.2097  1.0576 -0.0103
14823TIP3   OH265959   3.053   4.206   3.814 -0.3823  0.0693 -0.0440
14823TIP3    H165960   3.116   4.149   3.860 -2.8673 -1.2954  1.9558
14823TIP3    H265961   2.998   4.242   3.884 -2.9284 -0.2256 -1.7608
14824TIP3   OH265962   6.268   1.833   0.968 -0.6956 -0.4386  0.5377
14824TIP3    H165963   6.245   1.765   0.904 -2.2305  1.0662 -0.6393
14824TIP3    H265964   6.363   1.836   0.967 -0.6490 -0.6681 -1.5530
14825TIP3   OH265965   3.135   5.564  13.966  0.4810 -0.3281  0.1262
14825TIP3    H165966   3.199   5.504  13.928 -0.4496 -0.5291 -1.2084
14825TIP3    H265967   3.167   5.652  13.942  0.9842 -0.3471  0.6898
14826TIP3   OH265968   6.645   6.622  15.051 -0.4862 -0.4691  0.4594
14826TIP3    H165969   6.600   6.539  15.034  0.0194 -0.3386 -1.9197
14826TIP3    H265970   6.577   6.688  15.048 -0.4572 -0.4664 -1.2954
14827TIP3   OH265971   2.148   3.463   4.926  0.9072 -1.1056 -0.1070
14827TIP3    H165972   2.222   3.406   4.950 -0.3620 -2.0912  1.6705
14827TIP3    H265973   2.112   3.422   4.847  0.5861 -2.2468  0.6135
14828TIP3   OH265974   3.848   4.034  11.018 -0.0235 -0.1234 -0.5147
14828TIP3    H165975   3.799   3.999  11.092  0.0950 -2.5787 -1.5244
14828TIP3    H265976   3.913   4.093  11.058 -0.9597 -0.1813  1.1698
14829TIP3   OH265977   1.509   2.026   3.249  0.0095  0.3501 -0.1988
14829TIP3    H165978   1.483   2.086   3.319 -1.5194  0.3952 -0.7567
14829TIP3    H265979   1.499   1.939   3.287 -0.6091  0.3804 -0.2793
14830TIP3   OH265980   1.998   5.874  15.792 -0.2705  0.1687  0.2863
14830TIP3    H165981   2.030   5.805  15.734 -0.8959  0.0358  0.0912
14830TIP3    H265982   1.904   5.857  15.799 -0.1842  0.1314  1.4116
14831TIP3   OH265983   3.540   0.858   0.096  0.4343  0.3345 -0.2164
14831TIP3    H165984   3.624   0.849   0.050  1.5622  2.4610  1.2804
14831TIP3    H265985   3.475   0.859   0.026  1.9871  2.3766 -1.7554
14832TIP3   OH265986   1.091   4.030   1.599  0.0716  0.8213  0.1999
14832TIP3    H165987   1.138   3.947   1.587 -0.5957  0.3903  0.5429
14832TIP3    H265988   1.161   4.096   1.601  0.5852  0.3198 -0.4443
14833TIP3   OH265989   1.209   2.984   5.401  0.4416 -0.0526 -0.3960
14833TIP3    H165990   1.204   2.979   5.497  1.0157 -1.5863 -0.4097
14833TIP3    H265991   1.302   2.981   5.382  0.3083 -2.6541 -1.0529
14834TIP3   OH265992   1.763   3.914   1.535 -0.8615 -0.1018  0.0472
14834TIP3    H165993   1.809   3.831   1.546 -0.4696  0.1594  0.4470
14834TIP3    H265994   1.829   3.973   1.499 -0.9113  0.2507  0.5277
14835TIP3   OH265995   1.698   2.802   3.082 -0.0764  0.1095  1.0414
14835TIP3    H165996   1.689   2.896   3.063  1.0061 -0.1547 -1.0504
14835TIP3    H265997   1.711   2.762   2.996  1.1038 -1.7727  2.0537
14836TIP3   OH265998   2.216   5.994   0.429  0.6740  0.0458  0.1660
14836TIP3    H165999   2.152   6.063   0.446  1.8266  0.9529  1.0071
14836TIP3    H266000   2.167   5.912   0.438 -0.3732  0.7105  0.6739
14837TIP3   OH266001   6.241   0.698  15.840  0.0807 -0.1448 -0.4142
14837TIP3    H166002   6.312   0.748  15.798 -0.1471 -0.6075 -1.3616
14837TIP3    H266003   6.221   0.749  15.919  1.1543  0.2408 -0.3629
14838TIP3   OH266004   1.078   1.486   5.216 -0.0784  0.0238 -0.2915
14838TIP3    H166005   1.078   1.475   5.311  0.2946  3.1846  0.2013
14838TIP3    H266006   0.986   1.479   5.191 -0.5320  1.5936  0.7528
14839TIP3   OH266007   5.366   4.565   3.536 -0.0932 -0.2485 -0.2591
14839TIP3    H166008   5.330   4.603   3.456  1.0532  4.0054  1.0219
14839TIP3    H266009   5.441   4.513   3.507  0.5060  1.4802 -1.9603
14840TIP3   OH266010   3.627   5.889  12.662  0.4362 -0.3688  0.1187
14840TIP3    H166011   3.704   5.867  12.610 -0.2128  0.9870 -1.4967
14840TIP3    H266012   3.628   5.826  12.734  1.8911 -1.7236 -1.0146
14841TIP3   OH266013   4.859   6.486  11.661  0.1958  0.4200 -0.2786
14841TIP3    H166014   4.827   6.575  11.649  0.4529  0.7481  1.2996
14841TIP3    H266015   4.939   6.481  11.608  0.0548  1.0490 -0.5516
14842TIP3   OH266016   2.657   5.977  11.967 -0.0564  0.1824  0.5397
14842TIP3    H166017   2.741   6.005  11.929  0.3046  0.2274  1.3389
14842TIP3    H266018   2.676   5.892  12.008 -0.7703 -0.5175 -0.5364
14843TIP3   OH266019   6.179   0.821   0.693  0.0077 -0.2220 -0.0475
14843TIP3    H166020   6.163   0.885   0.762 -3.0104  0.5745 -1.3072
14843TIP3    H266021   6.251   0.858   0.641 -0.0968  0.9509  0.6174
14844TIP3   OH266022   3.232   0.484   4.332  0.2824 -0.6958  0.2948
14844TIP3    H166023   3.204   0.555   4.390 -1.0310 -0.9326 -0.0205
14844TIP3    H266024   3.191   0.504   4.248  0.7493 -1.2885 -0.0880
14845TIP3   OH266025   2.359   0.631  17.225  0.0011  0.9497  0.0796
14845TIP3    H166026   2.289   0.607  17.164  1.5112 -2.0432 -0.6652
14845TIP3    H266027   2.346   0.574  17.300  0.4741  1.8290  0.8472
14846TIP3   OH266028   6.102   4.380   3.654  0.0867  0.4928  0.9418
14846TIP3    H166029   6.142   4.414   3.574 -0.5848  1.1504  0.8818
14846TIP3    H266030   6.008   4.393   3.641 -0.0551  0.2078  1.6597
14847TIP3   OH266031   5.434   1.624   1.658 -0.0720  0.3950 -0.2359
14847TIP3    H166032   5.372   1.558   1.625 -1.3228  1.7276 -0.6390
14847TIP3    H266033   5.470   1.585   1.737 -1.1543 -0.5754 -0.1950
14848TIP3   OH266034   1.411   4.312   5.721  0.4760 -0.2684  0.3570
14848TIP3    H166035   1.335   4.260   5.747  0.6198 -1.0724 -0.7396
14848TIP3    H266036   1.380   4.366   5.648  0.6782  0.2217  0.6261
14849TIP3   OH266037   0.463   2.350  16.421  0.9288  0.3668  0.3335
14849TIP3    H166038   0.430   2.351  16.511  1.0486  1.9925  0.3892
14849TIP3    H266039   0.505   2.264  16.412 -0.7036 -0.5649  1.2016
14850TIP3   OH266040   0.499   2.051  10.350 -0.2966 -0.3252 -0.2709
14850TIP3    H166041   0.427   2.016  10.402  0.6732 -2.7223 -0.4367
14850TIP3    H266042   0.473   2.036  10.259 -0.2294  0.1935 -0.3808
14851TIP3   OH266043   0.208   3.060   4.572 -0.1954  0.0628 -0.1385
14851TIP3    H166044   0.164   2.991   4.522 -0.0757  0.4104 -0.7293
14851TIP3    H266045   0.172   3.052   4.661 -0.1877 -0.7533 -0.2021
14852TIP3   OH266046   4.275   2.045   4.497 -0.0597 -0.2382 -0.5015
14852TIP3    H166047   4.258   1.951   4.502  0.2627 -0.3126 -0.8469
14852TIP3    H266048   4.260   2.068   4.405  1.1723 -0.2044 -0.7117
14853TIP3   OH266049   0.836   3.414   5.688  0.1679 -0.0221  0.3918
14853TIP3    H166050   0.928   3.426   5.663  0.4714  2.0236  2.1479
14853TIP3    H266051   0.836   3.424   5.783 -1.7974 -0.6278  0.4924
14854TIP3   OH266052   1.575   3.101  16.986 -0.0914  0.3342  0.0331
14854TIP3    H166053   1.563   3.012  16.953  0.5084 -0.2972  1.4446
14854TIP3    H266054   1.567   3.157  16.909  0.5467 -1.0197 -1.0485
14855TIP3   OH266055   1.183   3.051  12.061  0.2646  0.4241 -0.5605
14855TIP3    H166056   1.257   3.090  12.108 -0.2657  0.4513  0.2637
14855TIP3    H266057   1.211   2.962  12.041 -0.4453 -0.4869  2.1083
14856TIP3   OH266058   6.248   5.541  10.960 -0.1289 -0.5495  0.4135
14856TIP3    H166059   6.231   5.469  10.900  0.4478 -0.7952  0.5415
14856TIP3    H266060   6.173   5.599  10.949  0.1819 -0.3609 -0.8717
14857TIP3   OH266061   3.842   6.800  15.096  0.7856 -0.6427 -0.4099
14857TIP3    H166062   3.866   6.853  15.171 -0.3647 -0.4831 -0.1438
14857TIP3    H266063   3.829   6.863  15.025  1.6641 -0.7754 -0.7004
14858TIP3   OH266064   3.714   1.288  15.750 -0.9060  0.7419  1.2031
14858TIP3    H166065   3.688   1.197  15.737  1.5165  0.0948  0.2813
14858TIP3    H266066   3.758   1.289  15.835  1.7561  0.2666 -0.0482
14859TIP3   OH266067   2.823   2.760   1.948 -0.3862  0.0778 -0.2333
14859TIP3    H166068   2.752   2.818   1.976 -0.4638 -0.9722  1.9049
14859TIP3    H266069   2.894   2.778   2.009  0.2285 -0.7715 -0.6783
14860TIP3   OH266070   4.667   4.591  11.471 -0.1825  0.3766 -0.2121
14860TIP3    H166071   4.632   4.503  11.485  1.0679 -0.0173  0.5198
14860TIP3    H266072   4.682   4.625  11.558  0.5344  0.8336 -0.5117
14861TIP3   OH266073   2.637   0.666  13.428 -0.5539 -0.8077 -0.4394
14861TIP3    H166074   2.616   0.607  13.355  2.5559 -1.2013 -1.1586
14861TIP3    H266075   2.611   0.753  13.397 -3.9718 -1.5260  0.1116
14862TIP3   OH266076   0.503   2.442   2.617  0.6134 -0.2166 -0.0342
14862TIP3    H166077   0.490   2.353   2.584  1.3314 -0.8134  1.1951
14862TIP3    H266078   0.421   2.463   2.661 -0.4785  0.7189 -2.3747
14863TIP3   OH266079   5.019   1.564   1.741 -0.3381  0.1018  0.3107
14863TIP3    H166080   5.049   1.625   1.809 -0.0810  0.1229  0.1772
14863TIP3    H266081   4.935   1.601   1.713  0.0845  0.7216 -0.1728
14864TIP3   OH266082   2.437   2.401   1.618  0.3320 -0.3504 -0.3535
14864TIP3    H166083   2.392   2.479   1.652 -2.0764 -2.2277  1.1168
14864TIP3    H266084   2.498   2.376   1.688  0.6233 -0.1439 -0.5357
14865TIP3   OH266085   1.404   3.520  11.540 -0.6185  0.0611 -0.0555
14865TIP3    H166086   1.457   3.476  11.474 -2.8466  0.2223 -2.1135
14865TIP3    H266087   1.319   3.534  11.497 -2.1858  0.2680  2.8274
14866TIP3   OH266088   1.206   0.493  12.933 -0.1045  0.2025  0.0472
14866TIP3    H166089   1.183   0.439  13.008  0.5570 -1.5396 -0.9316
14866TIP3    H266090   1.126   0.541  12.912 -0.8657 -0.7399  0.7097
14867TIP3   OH266091   4.061   0.557   4.561 -0.2614  0.0915 -0.5949
14867TIP3    H166092   4.034   0.470   4.590 -1.8715  0.8400  0.2571
14867TIP3    H266093   4.034   0.562   4.469 -2.2831  0.4757 -0.0236
14868TIP3   OH266094   3.504   5.153  16.170  0.5644  0.2862  0.6167
14868TIP3    H166095   3.492   5.158  16.265  0.7761  1.2511  0.6064
14868TIP3    H266096   3.449   5.080  16.143  0.7634 -0.2112  1.5195
14869TIP3   OH266097   4.992   4.902   1.437 -0.3103 -0.4698  0.1629
14869TIP3    H166098   5.063   4.955   1.400 -0.9518  0.4833  0.2519
14869TIP3    H266099   4.950   4.861   1.362  1.6606 -2.8471  0.2330
14870TIP3   OH266100   0.823   3.748   4.136  0.0513 -0.1260  0.4459
14870TIP3    H166101   0.835   3.668   4.085 -1.9440 -0.5172  0.4980
14870TIP3    H266102   0.854   3.818   4.079 -1.1139 -0.6579 -0.8989
14871TIP3   OH266103   3.321   6.644   5.117 -0.0981  0.0299  0.0361
14871TIP3    H166104   3.311   6.608   5.206 -0.8864  0.7643  0.2609
14871TIP3    H266105   3.305   6.569   5.060  0.4616 -0.4614  0.5108
14872TIP3   OH266106   2.757   1.914  14.559 -0.4179  0.4384 -0.1144
14872TIP3    H166107   2.803   1.905  14.475 -0.0847  0.3217  0.0801
14872TIP3    H266108   2.774   1.832  14.605  1.5402  1.4515  1.1189
14873TIP3   OH266109   5.217   2.959   4.541 -0.5062 -0.4929  0.0200
14873TIP3    H166110   5.190   3.047   4.566  0.3827 -0.2084  0.0147
14873TIP3    H266111   5.163   2.939   4.464 -0.0399  0.4438 -0.5781
14874TIP3   OH266112   5.786   0.420   4.703  0.2820 -0.5967  0.7853
14874TIP3    H166113   5.862   0.422   4.645 -0.0684  0.2984  0.3421
14874TIP3    H266114   5.811   0.479   4.775  0.4717 -1.2287  1.2470
14875TIP3   OH266115   6.704   1.067   4.267  0.3300  0.2946 -0.0574
14875TIP3    H166116   6.790   1.060   4.226  0.4382  1.8049 -0.1609
14875TIP3    H266117   6.698   1.159   4.294 -0.6863 -0.1116  1.2223
14876TIP3   OH266118   6.751   4.310  13.444  0.4084 -0.3899  0.9025
14876TIP3    H166119   6.778   4.294  13.353  1.6781  1.7064  0.8559
14876TIP3    H266120   6.781   4.233  13.492  1.3976 -0.6789 -0.1383
14877TIP3   OH266121   4.168   2.095   6.336 -1.2301 -0.3033 -0.6867
14877TIP3    H166122   4.086   2.056   6.308 -0.5107 -1.7050 -0.9134
14877TIP3    H266123   4.187   2.054   6.421  0.1378 -1.4090 -1.4847
14878TIP3   OH266124   5.295   3.696   1.663 -0.2556 -0.4578  0.5110
14878TIP3    H166125   5.386   3.678   1.639 -0.4923 -0.3339 -0.5375
14878TIP3    H266126   5.298   3.715   1.756  0.7914 -0.4598  0.4902
14879TIP3   OH266127   3.782   5.419   0.475  0.0790  0.1222 -0.3251
14879TIP3    H166128   3.869   5.440   0.441  0.1545 -1.9679 -1.5679
14879TIP3    H266129   3.727   5.411   0.397 -0.5249 -1.4951  0.2469
14880TIP3   OH266130   3.184   1.947  17.180 -0.3369 -0.0621  0.2163
14880TIP3    H166131   3.148   2.034  17.198  2.6121  1.4481 -0.6063
14880TIP3    H266132   3.263   1.942  17.234 -0.1881 -2.0664 -0.1044
14881TIP3   OH266133   4.359   1.617  13.684  0.5091 -0.0743  0.0104
14881TIP3    H166134   4.442   1.621  13.636  0.0872 -0.6569 -0.7882
14881TIP3    H266135   4.362   1.534  13.731  0.1377 -0.3681 -0.4789
14882TIP3   OH266136   6.196   4.764  10.957  0.4360 -0.5003  0.4653
14882TIP3    H166137   6.142   4.841  10.976  0.2011 -0.8635  1.3332
14882TIP3    H266138   6.141   4.711  10.899  0.7482  0.1527 -0.4378
14883TIP3   OH266139   4.993   5.756  15.275  0.0678 -0.4195  0.5642
14883TIP3    H166140   4.909   5.799  15.261 -0.3909 -1.6141 -0.6438
14883TIP3    H266141   5.049   5.790  15.205 -0.0074 -1.0275  0.1982
14884TIP3   OH266142   0.564   1.085  12.763  0.5021 -0.2318  0.0315
14884TIP3    H166143   0.502   1.053  12.829 -1.4524 -1.2125 -2.1479
14884TIP3    H266144   0.647   1.094  12.810 -0.9265 -0.2285  2.7539
14885TIP3   OH266145   5.576   4.639   1.343  0.1411 -0.4015  0.0183
14885TIP3    H166146   5.520   4.708   1.378  0.1011 -0.1963 -0.4327
14885TIP3    H266147   5.586   4.577   1.414 -2.7612 -1.7790 -0.6196
14886TIP3   OH266148   5.481   3.166  11.642  0.5303 -0.5147 -0.7803
14886TIP3    H166149   5.552   3.139  11.700 -0.3336 -1.4379 -0.1052
14886TIP3    H266150   5.514   3.147  11.554  1.4547 -0.0888 -0.5335
14887TIP3   OH266151   1.109   3.880   5.760  0.8790  0.8683 -0.3785
14887TIP3    H166152   1.031   3.890   5.813  0.1660  1.5281 -1.5000
14887TIP3    H266153   1.182   3.897   5.820  0.4202 -2.6929  1.4518
14888TIP3   OH266154   2.986   5.344  11.283 -0.1085  0.8288 -0.3029
14888TIP3    H166155   3.044   5.378  11.215  2.0761  0.0483  1.0460
14888TIP3    H266156   2.955   5.422  11.329  0.7716  1.2316 -0.3694
14889TIP3   OH266157   1.334   1.879  16.019  0.6623 -0.5602 -0.1812
14889TIP3    H166158   1.358   1.906  16.107 -0.5604  0.2851 -0.0852
14889TIP3    H266159   1.243   1.850  16.027  0.5359 -0.4617 -1.1701
14890TIP3   OH266160   1.939   3.979  14.855  0.0463  0.3795  0.1249
14890TIP3    H166161   1.904   4.027  14.930  1.1727 -1.5925  2.0101
14890TIP3    H266162   2.032   3.999  14.854  0.7712 -2.3805  1.6052
14891TIP3   OH266163   3.755   0.456  11.343 -0.8295  0.1834 -0.1976
14891TIP3    H166164   3.828   0.428  11.398 -1.8587 -2.4971 -0.0094
14891TIP3    H266165   3.791   0.456  11.254  0.1376  1.9109  0.1492
14892TIP3   OH266166   3.971   0.981   5.092 -0.5667 -0.0730  0.3198
14892TIP3    H166167   3.934   1.010   5.175 -0.0135 -0.9286  0.8839
14892TIP3    H266168   3.998   0.890   5.108  0.4256  0.0599 -0.4989
14893TIP3   OH266169   3.936   0.433  12.545 -0.1416 -0.4209  0.3315
14893TIP3    H166170   3.919   0.414  12.637 -4.5491 -0.1884 -0.1966
14893TIP3    H266171   3.896   0.519  12.530 -1.5749 -1.3998 -2.1442
14894TIP3   OH266172   1.996   2.421   5.715 -0.4586 -0.5837 -0.0384
14894TIP3    H166173   1.961   2.491   5.771  1.0932 -0.9298  1.4401
14894TIP3    H266174   1.943   2.426   5.635 -0.3660  2.3102 -0.0189
14895TIP3   OH266175   1.845   1.717  13.960 -0.3447 -0.1458  0.4420
14895TIP3    H166176   1.804   1.671  14.033  0.4500 -1.7554 -0.0856
14895TIP3    H266177   1.922   1.759  13.999 -0.6506  0.1179  0.7714
14896TIP3   OH266178   4.904   2.013  12.154  0.2354  0.0893 -0.0027
14896TIP3    H166179   4.837   1.948  12.132  1.3445 -0.9657 -0.4044
14896TIP3    H266180   4.982   1.961  12.171  1.2436  1.3522 -0.6446
14897TIP3   OH266181   4.692   4.831  14.323 -0.3458 -0.1640 -0.4935
14897TIP3    H166182   4.755   4.846  14.252  0.5394  0.6754  0.4322
14897TIP3    H266183   4.732   4.873  14.399 -1.1218 -1.3147  0.5883
14898TIP3   OH266184   4.778   6.143   0.046  0.3173  0.5807 -0.0911
14898TIP3    H166185   4.831   6.207   0.094 -1.6671  1.8500  0.5457
14898TIP3    H266186   4.823   6.060   0.058  1.1850  1.2899  1.9337
14899TIP3   OH266187   5.457   2.154  14.855 -0.0884 -0.3215 -0.5705
14899TIP3    H166188   5.508   2.235  14.858  0.6795 -0.7795 -0.8050
14899TIP3    H266189   5.375   2.179  14.813  0.3492  0.2399 -1.1229
14900TIP3   OH266190   2.236   3.949   4.605  0.8520  0.4029 -0.1633
14900TIP3    H166191   2.200   3.905   4.528  3.7639  1.6148 -2.4205
14900TIP3    H266192   2.251   3.879   4.668 -0.6597 -0.7887 -1.0534
14901TIP3   OH266193   1.113   2.417   2.504  0.0836  0.4438  0.0979
14901TIP3    H166194   1.022   2.432   2.529 -0.1997  1.5092 -1.4181
14901TIP3    H266195   1.108   2.361   2.427  0.6814  0.9095 -0.2839
14902TIP3   OH266196   3.517   0.179  15.772  0.5204 -0.5021 -0.4155
14902TIP3    H166197   3.572   0.242  15.818  2.3114 -2.3204  0.0728
14902TIP3    H266198   3.507   0.106  15.834 -2.2132 -0.4204 -0.6069
14903TIP3   OH266199   5.308   2.833   3.263  0.2771  0.0195  0.3091
14903TIP3    H166200   5.393   2.869   3.286  0.2837 -0.3841  0.9422
14903TIP3    H266201   5.246   2.881   3.318  0.2856 -0.9050  1.1648
14904TIP3   OH266202   2.082   2.146   2.303  0.3155 -0.1075  1.0339
14904TIP3    H166203   2.109   2.179   2.389  0.0436 -0.0111  1.0821
14904TIP3    H266204   1.996   2.185   2.288  0.7779  0.6525  0.2942
14905TIP3   OH266205   1.329   3.255   4.345  0.3093 -0.2638 -0.2247
14905TIP3    H166206   1.403   3.289   4.395  0.2881  0.6385 -0.7848
14905TIP3    H266207   1.364   3.178   4.300  0.3245 -1.0902  1.1612
14906TIP3   OH266208   6.461   0.345  13.017 -0.5306 -0.1811  0.1967
14906TIP3    H166209   6.426   0.433  13.032 -1.3644 -0.5975  0.8231
14906TIP3    H266210   6.521   0.355  12.944  1.7058  1.4946  2.1094
14907TIP3   OH266211   0.416   0.931  10.858  0.2072 -0.0622 -0.6368
14907TIP3    H166212   0.343   0.911  10.798  0.2705  3.0754 -1.9449
14907TIP3    H266213   0.492   0.937  10.801  1.2494 -1.6910  0.5077
14908TIP3   OH266214   1.473   5.177   1.700 -0.2189 -0.0844  0.1012
14908TIP3    H166215   1.461   5.104   1.640 -0.1565  0.8898 -1.1362
14908TIP3    H266216   1.565   5.173   1.724  0.1297  0.3826 -1.0716
14909TIP3   OH266217   0.141   1.775  11.752 -0.4845  0.0334  0.4720
14909TIP3    H166218   0.112   1.688  11.726  0.5071 -0.1224 -0.2040
14909TIP3    H266219   0.217   1.792  11.695 -1.8682  2.1756 -0.8537
14910TIP3   OH266220   1.836   0.659   5.508 -0.2583  0.5387  0.1542
14910TIP3    H166221   1.833   0.690   5.598  2.0875  0.0965  0.4598
14910TIP3    H266222   1.850   0.564   5.515  1.3532  0.6734 -0.5830
14911TIP3   OH266223   5.374   1.277  12.333  1.1385 -0.3989  0.2565
14911TIP3    H166224   5.436   1.302  12.401  1.2329 -0.7917  0.3163
14911TIP3    H266225   5.429   1.242  12.262  1.2990  2.5334 -1.2000
14912TIP3   OH266226   2.534   1.920  11.935 -0.1715  0.2001 -0.5481
14912TIP3    H166227   2.499   1.870  12.008  0.5351  0.5079  0.0047
14912TIP3    H266228   2.541   1.857  11.864 -0.3599 -0.2215 -0.1932
14913TIP3   OH266229   0.375   4.744  14.934 -0.0872 -0.1982 -0.3812
14913TIP3    H166230   0.391   4.669  14.877  0.0225 -1.6394  1.4332
14913TIP3    H266231   0.453   4.798  14.924  1.4877 -2.0998  0.8222
14914TIP3   OH266232   2.837   6.263  12.877 -0.2104  0.3581 -0.2599
14914TIP3    H166233   2.931   6.268  12.861  0.4888  0.8852  3.1034
14914TIP3    H266234   2.802   6.346  12.845  0.7471  0.7928 -0.2076
14915TIP3   OH266235   0.299   6.474  14.015  0.5640  0.0383 -0.0095
14915TIP3    H166236   0.278   6.385  13.986  2.0120 -0.1336 -0.6322
14915TIP3    H266237   0.311   6.524  13.934  1.6181  0.3127  0.2878
14916TIP3   OH266238   2.670   6.638   6.083  0.0139 -0.0487  0.1161
14916TIP3    H166239   2.745   6.697   6.093 -0.7267  1.0961 -0.7383
14916TIP3    H266240   2.634   6.631   6.172  0.2745  0.5837  0.2783
14917TIP3   OH266241   3.256   5.472  14.766 -0.1805  0.5962  0.4685
14917TIP3    H166242   3.269   5.390  14.717  1.2402  1.6452 -0.9976
14917TIP3    H266243   3.268   5.446  14.858 -0.3608 -0.9518  0.0920
14918TIP3   OH266244   6.489   0.254  13.283  0.1086  0.3333 -0.0344
14918TIP3    H166245   6.536   0.326  13.326  1.6889 -1.2173  0.9782
14918TIP3    H266246   6.502   0.269  13.190  3.0063 -0.2002  0.2001
14919TIP3   OH266247   5.596   4.424  11.393 -0.2075  0.0394  0.7293
14919TIP3    H166248   5.691   4.410  11.400  0.0053  0.2284 -1.2951
14919TIP3    H266249   5.561   4.340  11.365 -0.3274  0.5583 -0.7513
14920TIP3   OH266250   0.697   0.978  12.068 -0.1243 -0.4886  0.3137
14920TIP3    H166251   0.684   0.886  12.091 -2.0165 -0.6219 -1.1095
14920TIP3    H266252   0.656   0.988  11.982  0.9608  1.4639 -0.0323
14921TIP3   OH266253   4.729   2.959   5.453 -0.2685  0.0724 -0.6381
14921TIP3    H166254   4.794   2.992   5.390  0.4538  0.0662  0.0910
14921TIP3    H266255   4.681   2.892   5.404  0.1825  0.1718 -1.2376
14922TIP3   OH266256   3.427   3.532  15.405  0.2064 -0.0879 -0.1150
14922TIP3    H166257   3.406   3.599  15.339 -1.0508  0.6527  0.9948
14922TIP3    H266258   3.520   3.515  15.393 -0.4382 -2.0958 -4.0192
14923TIP3   OH266259   1.724   6.476   2.655  0.3503  0.3653  0.0120
14923TIP3    H166260   1.703   6.564   2.626 -0.1693  0.0629 -0.5530
14923TIP3    H266261   1.790   6.488   2.723  0.6196  1.1619 -0.3791
14924TIP3   OH266262   4.729   0.649  13.556 -0.4397 -0.5627  0.2360
14924TIP3    H166263   4.685   0.677  13.476  0.7889  1.1494  0.0962
14924TIP3    H266264   4.768   0.564  13.535  0.1579  0.0259 -1.0996
14925TIP3   OH266265   0.253   6.023  15.217 -0.0370 -0.1781 -0.0737
14925TIP3    H166266   0.294   5.953  15.268 -1.2328 -0.6145  0.3224
14925TIP3    H266267   0.193   5.978  15.158  2.2217  0.2027 -2.8506
14926TIP3   OH266268   5.177   4.875  14.600 -0.3527  0.2637 -0.2526
14926TIP3    H166269   5.240   4.814  14.637 -1.8645 -1.3477 -0.2363
14926TIP3    H266270   5.139   4.919  14.676  1.4412  2.0514 -0.3028
14927TIP3   OH266271   2.385   4.674   2.143  0.2754  0.1877  0.7654
14927TIP3    H166272   2.364   4.759   2.104  1.5062  0.5620  0.8520
14927TIP3    H266273   2.464   4.645   2.096 -0.0694 -0.8615  0.8056
14928TIP3   OH266274   5.438   1.251  16.239 -0.1823  0.0685 -0.6826
14928TIP3    H166275   5.527   1.286  16.232  0.1821 -0.7147 -0.0571
14928TIP3    H266276   5.382   1.327  16.223  0.5979  0.8261  0.0642
14929TIP3   OH266277   6.665   1.584  17.121 -0.4319  0.3050  0.4723
14929TIP3    H166278   6.710   1.509  17.081 -0.7263  0.9738 -1.1875
14929TIP3    H266279   6.572   1.568  17.104 -0.4890  1.0921 -0.0229
14930TIP3   OH266280   6.769   0.687  13.710  0.0089 -0.3766  0.5647
14930TIP3    H166281   6.810   0.762  13.754  0.2709  2.0183 -3.3359
14930TIP3    H266282   6.691   0.669  13.762  1.2750  0.8479  3.0902
14931TIP3   OH266283   0.559   3.379  13.038 -0.1694  0.0978 -0.1135
14931TIP3    H166284   0.640   3.418  13.071 -0.5574  0.8052  0.0234
14931TIP3    H266285   0.533   3.435  12.964 -0.3972 -0.2752 -0.3216
14932TIP3   OH266286   0.280   1.716   3.153  0.0260  0.0465 -0.0588
14932TIP3    H166287   0.296   1.806   3.180 -0.6917  0.1097  0.1830
14932TIP3    H266288   0.351   1.665   3.192  0.3614  0.4829 -0.0925
14933TIP3   OH266289   6.308   5.844  14.847  0.0867 -0.4020  0.3550
14933TIP3    H166290   6.346   5.758  14.830 -0.7323 -0.4019 -1.8834
14933TIP3    H266291   6.214   5.828  14.855 -0.2169  0.3665 -1.2505
14934TIP3   OH266292   2.689   3.120   2.313 -0.4204 -0.2367  0.5424
14934TIP3    H166293   2.607   3.138   2.358 -1.5695 -0.7565 -1.2542
14934TIP3    H266294   2.749   3.186   2.346 -2.0629  1.3031  0.5746
14935TIP3   OH266295   0.853   4.482  14.368  0.7326 -0.3565 -0.1895
14935TIP3    H166296   0.841   4.480  14.463  0.7217  0.6852 -0.1646
14935TIP3    H266297   0.945   4.459  14.355 -0.0691 -4.3148 -0.1645
14936TIP3   OH266298   5.152   6.292   4.994 -0.1905  0.2864 -0.1465
14936TIP3    H166299   5.217   6.223   4.986  0.3657  0.7600  0.1422
14936TIP3    H266300   5.094   6.281   4.919 -0.1550 -0.5312 -0.0596
14937TIP3   OH266301   5.463   1.951   5.165  0.4200  0.1088 -0.5077
14937TIP3    H166302   5.541   2.000   5.189 -0.3408  1.5777 -0.9024
14937TIP3    H266303   5.397   1.975   5.230  0.4916 -1.7936  0.3506
14938TIP3   OH266304   4.428   1.671   4.474  0.8130 -0.2045 -0.1322
14938TIP3    H166305   4.508   1.700   4.518  1.5079  0.5368 -1.8020
14938TIP3    H266306   4.458   1.616   4.402 -0.1857 -0.1261 -0.6364
14939TIP3   OH266307   5.852   1.774   0.900  0.8174 -0.2793 -0.1883
14939TIP3    H166308   5.853   1.860   0.942  0.9124  0.1286 -0.9923
14939TIP3    H266309   5.867   1.712   0.971 -2.0935  0.1252  0.9361
14940TIP3   OH266310   1.095   0.835  12.678 -0.1591 -0.3201 -0.1226
14940TIP3    H166311   1.085   0.920  12.721  1.2542  0.0396 -0.4621
14940TIP3    H266312   1.036   0.840  12.603 -0.4709  0.1614  0.1428
14941TIP3   OH266313   1.101   0.393   5.295  0.0396  0.2966 -0.6211
14941TIP3    H166314   1.058   0.315   5.331  0.0688  0.8087  0.5838
14941TIP3    H266315   1.170   0.358   5.238 -0.0385 -0.5614 -0.2103
14942TIP3   OH266316   1.492   2.926   6.393 -0.0565  0.6202  0.1304
14942TIP3    H166317   1.580   2.963   6.385  0.5162 -0.9091 -1.3676
14942TIP3    H266318   1.461   2.920   6.303 -1.1322 -0.1469  0.5315
14943TIP3   OH266319   4.973   2.610   0.661  0.3203 -0.7042  0.8165
14943TIP3    H166320   5.052   2.556   0.665  2.8028  2.5491  0.1982
14943TIP3    H266321   4.945   2.619   0.752  1.1452 -1.2793  1.1409
14944TIP3   OH266322   0.425   4.292  14.482 -0.0608  0.1247  0.7332
14944TIP3    H166323   0.342   4.309  14.527 -1.3451 -0.8874 -1.1310
14944TIP3    H266324   0.463   4.217  14.527 -1.7907 -1.4836 -0.3453
14945TIP3   OH266325   1.614   4.343   1.030 -0.5220  0.3499  0.2493
14945TIP3    H166326   1.699   4.327   0.989 -1.3343 -1.5676 -0.8571
14945TIP3    H266327   1.590   4.431   1.003  0.2817  0.2070 -1.0433
14946TIP3   OH266328   5.267   3.969  16.722  0.3234  0.5013  0.5895
14946TIP3    H166329   5.194   4.009  16.769 -0.7959 -0.5414 -0.2194
14946TIP3    H266330   5.228   3.899  16.671  1.4057  1.8090 -2.2600
14947TIP3   OH266331   0.909   3.765  11.340  0.7284 -0.4353 -0.1764
14947TIP3    H166332   0.945   3.848  11.307  1.4361 -0.5587  0.2718
14947TIP3    H266333   0.815   3.781  11.344  0.8530  0.3443 -0.1112
14948TIP3   OH266334   3.555   0.926  16.654 -0.0205 -0.9151 -0.1009
14948TIP3    H166335   3.601   0.918  16.571 -1.7009 -0.7511 -1.0958
14948TIP3    H266336   3.624   0.943  16.719  1.1206  1.3456 -1.7969
14949TIP3   OH266337   3.657   5.235  12.191 -0.0437  0.1745 -0.2968
14949TIP3    H166338   3.620   5.177  12.124 -2.5092  0.8680  0.3420
14949TIP3    H266339   3.741   5.197  12.212 -0.6823 -1.9970 -1.3718
14950TIP3   OH266340   0.783   3.562  11.113  0.0836 -0.2588  0.3197
14950TIP3    H166341   0.802   3.652  11.138  1.0286 -0.2990 -0.1992
14950TIP3    H266342   0.790   3.512  11.194  0.7808 -0.0391  0.3984
14951TIP3   OH266343   0.439   1.016   2.241  0.2536  0.4993 -0.2301
14951TIP3    H166344   0.444   1.084   2.309 -0.8334  1.4539 -1.0763
14951TIP3    H266345   0.358   0.969   2.260  0.1443  0.5228 -0.6284
14952TIP3   OH266346   2.329   3.887   5.627  0.3084  0.2851 -1.1225
14952TIP3    H166347   2.421   3.864   5.614  0.5075  2.0257 -3.4689
14952TIP3    H266348   2.294   3.895   5.538 -1.7152  1.1417 -0.2977
14953TIP3   OH266349   1.581   4.990   4.976 -0.5191  0.1074  0.5550
14953TIP3    H166350   1.512   4.971   4.913 -0.0311 -1.4076  0.4480
14953TIP3    H266351   1.539   4.983   5.061 -0.6024 -0.3651  0.4752
14954TIP3   OH266352   4.539   0.917   4.118 -0.6671 -0.2041 -0.8167
14954TIP3    H166353   4.475   0.942   4.183 -0.1186  0.8377 -0.6520
14954TIP3    H266354   4.519   0.825   4.098 -1.1166 -0.4055  0.4753
14955TIP3   OH266355   4.971   4.645  14.464  0.2963 -0.6171  0.0672
14955TIP3    H166356   5.066   4.649  14.471  0.3444 -0.3430 -0.6617
14955TIP3    H266357   4.943   4.736  14.471  0.1943 -0.5550 -1.0447
14956TIP3   OH266358   3.237   3.460  10.819 -0.1001  0.0270  0.1686
14956TIP3    H166359   3.288   3.450  10.739  0.9700 -1.3541  0.9820
14956TIP3    H266360   3.255   3.550  10.848  2.1801 -0.5030  0.5870
14957TIP3   OH266361   5.430   3.826  16.887 -0.0857 -0.8200  0.6490
14957TIP3    H166362   5.406   3.861  16.801  2.4516  0.4248  0.3681
14957TIP3    H266363   5.352   3.840  16.941 -2.3200 -2.9772 -1.6917
14958TIP3   OH266364   0.385   4.910   0.166  0.1168  0.3824 -0.3385
14958TIP3    H166365   0.382   5.005   0.152  2.2032  0.6756  0.7525
14958TIP3    H266366   0.359   4.898   0.257  0.3727 -0.0230 -0.3161
14959TIP3   OH266367   5.212   0.143  14.778  0.6860  0.1407 -0.0107
14959TIP3    H166368   5.223   0.222  14.832 -0.4095  0.2771  0.0315
14959TIP3    H266369   5.124   0.112  14.799  0.4325 -0.0936 -1.3376
14960TIP3   OH266370   2.755   6.598   5.643 -0.1545 -0.3916 -0.7061
14960TIP3    H166371   2.840   6.580   5.604  1.2506  2.5296  0.7437
14960TIP3    H266372   2.734   6.517   5.691  2.7931 -0.5568  0.5394
14961TIP3   OH266373   2.781   5.172   0.403  0.0543  0.2213  0.4668
14961TIP3    H166374   2.809   5.246   0.349  0.4433 -0.2387  0.0269
14961TIP3    H266375   2.827   5.185   0.486  1.7781 -0.6339 -0.3134
14962TIP3   OH266376   6.714   3.802   4.924 -0.1006 -0.5679 -0.1534
14962TIP3    H166377   6.659   3.762   4.990  1.1144  1.2473  2.1347
14962TIP3    H266378   6.802   3.801   4.963  0.5917  0.9005 -1.5533
14963TIP3   OH266379   6.491   4.891  17.197 -0.3734  0.1878  0.4680
14963TIP3    H166380   6.541   4.968  17.171  0.6037 -1.0713 -1.5496
14963TIP3    H266381   6.400   4.914  17.176  0.0745  0.2620 -1.6249
14964TIP3   OH266382   4.119   3.614   2.833 -0.5555  0.0218 -0.0564
14964TIP3    H166383   4.124   3.639   2.741 -0.0402 -0.4516 -0.1584
14964TIP3    H266384   4.155   3.525   2.837  1.3322  0.7739  0.9074
14965TIP3   OH266385   5.946   4.314   3.418  0.0654 -0.5589 -0.6743
14965TIP3    H166386   5.903   4.275   3.342  2.0271 -1.2456 -1.4710
14965TIP3    H266387   5.994   4.241   3.458  0.1508  0.0931  0.4612
14966TIP3   OH266388   6.659   1.689   5.095 -0.4002  0.4364  0.5214
14966TIP3    H166389   6.641   1.596   5.083 -1.0038  0.6414 -0.2023
14966TIP3    H266390   6.654   1.702   5.190  0.0070 -0.3270  0.6529
14967TIP3   OH266391   0.461   6.600  13.247  0.1742  0.9675 -0.1403
14967TIP3    H166392   0.508   6.517  13.246 -0.8278  0.3348  1.6147
14967TIP3    H266393   0.523   6.663  13.209  1.6475 -0.2053  0.2272
14968TIP3   OH266394   5.496   3.616   5.295  0.7761 -0.0016 -0.1446
14968TIP3    H166395   5.452   3.532   5.285  0.9306 -0.2577  1.1856
14968TIP3    H266396   5.559   3.602   5.366  0.9906  1.1515 -0.0899
14969TIP3   OH266397   6.214   1.702   4.289 -0.0275  0.4279 -0.2496
14969TIP3    H166398   6.120   1.703   4.302 -0.0318 -0.1280 -0.2029
14969TIP3    H266399   6.250   1.743   4.368 -0.2487  1.1548 -0.5197
14970TIP3   OH266400   5.031   6.024   0.775 -0.1117  0.8935 -0.0913
14970TIP3    H166401   4.964   5.974   0.728 -0.0519  0.5988  0.1367
14970TIP3    H266402   5.081   6.068   0.706  1.2863 -1.1323 -0.4635
14971TIP3   OH266403   6.010   3.267   4.218  0.2597  0.1216 -0.2783
14971TIP3    H166404   6.056   3.202   4.164  1.9876  1.3475 -0.3641
14971TIP3    H266405   6.029   3.351   4.177 -2.1194  0.7203 -0.2867
14972TIP3   OH266406   3.801   5.305  13.695  0.4523  0.4877  0.1598
14972TIP3    H166407   3.836   5.384  13.654 -0.2528  0.3429 -0.7650
14972TIP3    H266408   3.854   5.234  13.658 -1.0585  0.2122 -1.6564
14973TIP3   OH266409   2.371   2.444   0.598 -0.0280  0.4285 -0.0817
14973TIP3    H166410   2.405   2.372   0.544 -1.0581  1.5102 -2.3312
14973TIP3    H266411   2.355   2.404   0.683  1.2620 -1.5137 -0.6663
14974TIP3   OH266412   5.458   5.530  15.368 -0.0198 -0.0683  0.2016
14974TIP3    H166413   5.373   5.569  15.348  0.1147  2.1512  3.1534
14974TIP3    H266414   5.521   5.600  15.350  1.0593 -1.2096 -0.6163
14975TIP3   OH266415   1.763   1.762   2.240 -0.2140 -0.2726  0.3516
14975TIP3    H166416   1.708   1.793   2.168 -1.7624 -0.8198  1.2773
14975TIP3    H266417   1.747   1.668   2.246  2.3217 -0.8625 -0.5960
14976TIP3   OH266418   1.025   3.215   1.865  0.3176 -0.0716  0.1475
14976TIP3    H166419   0.957   3.221   1.933  2.1356 -1.0179  2.1453
14976TIP3    H266420   1.045   3.122   1.860  0.1370 -0.0384 -1.8572
14977TIP3   OH266421   1.435   1.895  14.868  0.2004 -0.4118  0.4098
14977TIP3    H166422   1.406   1.882  14.779 -0.9760  0.7693  0.5866
14977TIP3    H266423   1.467   1.986  14.870 -0.9327 -0.0088  1.4612
14978TIP3   OH266424   1.274   4.281  11.568  0.4196 -0.3914 -0.3802
14978TIP3    H166425   1.239   4.199  11.534 -1.3339 -0.0575  0.5241
14978TIP3    H266426   1.242   4.348  11.507 -1.4138  0.0241  0.9467
14979TIP3   OH266427   6.712   4.492  13.185 -0.1551 -0.1377 -0.0939
14979TIP3    H166428   6.630   4.473  13.141 -0.2569  0.3354 -0.1093
14979TIP3    H266429   6.763   4.412  13.176 -0.8590 -0.6606  0.4740
14980TIP3   OH266430   4.773   4.239   0.899 -0.2900 -0.3961 -0.2836
14980TIP3    H166431   4.809   4.323   0.871 -0.1063 -0.2282  0.4319
14980TIP3    H266432   4.811   4.224   0.986  0.1188 -1.4861 -0.6284
14981TIP3   OH266433   3.577   3.667  15.029  0.8203 -0.0405 -0.2323
14981TIP3    H166434   3.564   3.617  15.109  0.6542 -0.7814 -0.7153
14981TIP3    H266435   3.489   3.700  15.008  0.9673  0.6495  0.2032
14982TIP3   OH266436   6.121   6.256  10.343 -0.3945 -0.3925  0.2436
14982TIP3    H166437   6.190   6.244  10.277 -0.8516  2.9357 -1.0613
14982TIP3    H266438   6.167   6.290  10.420 -0.2782 -0.5965  0.2625
14983TIP3   OH266439   4.971   4.806   1.063 -0.3363  0.4512 -0.3292
14983TIP3    H166440   4.913   4.792   0.988  1.8198 -0.1660 -2.0102
14983TIP3    H266441   4.972   4.722   1.109 -0.3679  0.2978 -0.6054
14984TIP3   OH266442   2.258   5.527  15.643 -0.5017 -0.1889  0.0968
14984TIP3    H166443   2.259   5.495  15.553  1.0472  1.7843 -0.6805
14984TIP3    H266444   2.187   5.591  15.645 -0.5525 -0.2509  0.2787
14985TIP3   OH266445   0.731   6.591   0.006 -0.3142  0.0621 -0.1899
14985TIP3    H166446   0.774   6.676   0.002 -0.0182 -0.0501  0.5873
14985TIP3    H266447   0.749   6.552  -0.080 -0.7121  0.8957 -0.6677
14986TIP3   OH266448   1.046   0.742   0.290  0.4584 -0.2528 -0.0076
14986TIP3    H166449   1.012   0.820   0.247 -0.2424 -2.0782 -3.0614
14986TIP3    H266450   1.131   0.769   0.325 -0.4536  2.2374  0.4723
14987TIP3   OH266451   2.687   3.044  11.143 -0.7815  0.3866  0.1520
14987TIP3    H166452   2.759   3.014  11.199 -1.3226  1.7544  1.6243
14987TIP3    H266453   2.609   3.003  11.179 -1.1928  1.6132  0.7287
14988TIP3   OH266454   1.837   5.709  12.900  0.0904 -0.0403  0.1105
14988TIP3    H166455   1.850   5.674  12.812  1.7568 -2.8423  1.3449
14988TIP3    H266456   1.748   5.682  12.923 -0.6643  1.4097 -0.9351
14989TIP3   OH266457   1.064   3.468   2.666 -0.2079  0.1869 -0.1864
14989TIP3    H166458   1.138   3.493   2.720  1.0859 -0.8905 -1.3879
14989TIP3    H266459   0.990   3.466   2.727  0.7640  1.0447  1.0898
14990TIP3   OH266460   5.830   4.374  17.281  0.6329 -0.7850  0.2666
14990TIP3    H166461   5.787   4.460  17.280  2.6054  0.2532 -0.0523
14990TIP3    H266462   5.851   4.356  17.189  1.9572 -0.6648  0.5270
14991TIP3   OH266463   4.909   0.195   2.757  0.5167  0.0126 -0.5978
14991TIP3    H166464   4.935   0.169   2.669 -0.3844  1.2219 -1.2457
14991TIP3    H266465   4.816   0.218   2.749  0.5400  0.5889  0.5656
14992TIP3   OH266466   0.425   1.487   3.001  0.2005  0.5449  0.2571
14992TIP3    H166467   0.406   1.465   3.092 -1.9737  0.0328 -0.2557
14992TIP3    H266468   0.392   1.413   2.951  0.4238  1.2652 -1.0001
14993TIP3   OH266469   5.124   4.528  16.893  0.8698  0.3006  0.2891
14993TIP3    H166470   5.064   4.516  16.819  1.0847 -0.5876  0.2403
14993TIP3    H266471   5.122   4.444  16.939  2.7153 -0.0856 -0.2156
14994TIP3   OH266472   3.026   0.617  12.965 -0.1490  0.3305 -0.2687
14994TIP3    H166473   3.026   0.600  13.059  1.3724  1.8923  0.0642
14994TIP3    H266474   2.933   0.617  12.940 -0.8951  3.4198  1.9630
14995TIP3   OH266475   5.735   3.600  15.928 -0.1425  0.0338  0.1680
14995TIP3    H166476   5.753   3.530  15.991 -1.3408  0.6145  1.1941
14995TIP3    H266477   5.805   3.592  15.864  0.4800 -1.2929  0.9574
14996TIP3   OH266478   5.794   1.419  16.687  0.1827 -0.3829  0.4087
14996TIP3    H166479   5.749   1.429  16.771 -1.3850 -1.2728 -0.2655
14996TIP3    H266480   5.887   1.421  16.709 -0.1894 -0.4604  2.1456
14997TIP3   OH266481   2.834   0.161  11.019 -0.6543  0.4035  0.0638
14997TIP3    H166482   2.855   0.239  11.071 -5.3196  1.7828  0.4093
14997TIP3    H266483   2.780   0.108  11.077 -0.8999 -1.1099 -1.4777
14998TIP3   OH266484   4.303   5.910  14.205 -0.4931  0.2285 -0.4322
14998TIP3    H166485   4.311   5.817  14.224 -1.8635 -0.0263 -0.9812
14998TIP3    H266486   4.370   5.952  14.260 -0.5340 -0.9699  0.5696
14999TIP3   OH266487   1.309   0.800  12.002  0.0625 -0.0759 -0.3466
14999TIP3    H166488   1.323   0.893  12.017  1.1788 -0.3590  0.6065
14999TIP3    H266489   1.325   0.787  11.908  1.1995  0.5035 -0.2504
15000TIP3   OH266490   4.271   2.071   2.904  0.3396 -0.0322 -0.1829
15000TIP3    H166491   4.257   2.031   2.990 -0.2593  0.7200  0.0821
15000TIP3    H266492   4.242   2.162   2.915 -0.9153 -0.2444 -1.4989
15001TIP3   OH266493   0.887   2.664   5.396  0.4193  0.0050  0.1769
15001TIP3    H166494   0.817   2.600   5.385 -0.3662  1.1505 -2.1088
15001TIP3    H266495   0.849   2.733   5.450  0.8489 -0.7768  1.5383
15002TIP3   OH266496   3.868   5.847  10.814  0.1283 -0.4782 -0.3232
15002TIP3    H166497   3.903   5.910  10.876 -1.2572 -1.5449  1.6574
15002TIP3    H266498   3.939   5.831  10.752  1.3935  0.9783  0.6972
15003TIP3   OH266499   6.551   4.911   2.721  0.1767  0.0742 -0.3822
15003TIP3    H166500   6.502   4.992   2.703 -1.0216 -0.5195  0.0593
15003TIP3    H266501   6.594   4.928   2.805 -1.7733 -0.4415  0.7961
15004TIP3   OH266502   1.065   1.270  17.036  0.1347  0.4991 -0.5259
15004TIP3    H166503   1.045   1.182  17.068  1.7698  0.2934  0.0241
15004TIP3    H266504   1.062   1.262  16.940 -1.4954  0.3232 -0.5009
15005TIP3   OH266505   6.167   4.622   0.421 -0.4914  0.5331 -0.4212
15005TIP3    H166506   6.109   4.629   0.496  0.1585 -0.8700  0.2695
15005TIP3    H266507   6.255   4.620   0.460 -0.1892 -1.2297 -1.0831
15006TIP3   OH266508   0.560   1.718   4.636  0.4237 -0.0777 -0.2919
15006TIP3    H166509   0.607   1.801   4.651  0.3302  0.2311 -1.5852
15006TIP3    H266510   0.526   1.726   4.546  1.5162 -2.0581 -0.9247
15007TIP3   OH266511   1.931   3.191  12.386 -1.0809 -0.0798 -0.7370
15007TIP3    H166512   1.860   3.208  12.324 -1.2678 -1.0209 -0.7999
15007TIP3    H266513   1.924   3.098  12.406  0.7557 -0.4404 -1.5191
15008TIP3   OH266514   4.302   0.494   5.013 -0.0278  0.0826  0.3905
15008TIP3    H166515   4.248   0.552   4.959 -0.4058  1.4572  2.1634
15008TIP3    H266516   4.375   0.470   4.956 -0.5964  1.1617 -0.8507
15009TIP3   OH266517   2.243   2.408   3.645 -0.1328 -0.0216  0.0570
15009TIP3    H166518   2.337   2.392   3.654  0.1352  1.3043 -0.1241
15009TIP3    H266519   2.224   2.388   3.553  0.0128 -0.1257  0.0491
15010TIP3   OH266520   6.806   4.904   4.179 -0.7298  0.2557  0.3285
15010TIP3    H166521   6.854   4.977   4.218  1.5438 -0.9773 -0.0210
15010TIP3    H266522   6.820   4.831   4.238  0.5895 -0.9609 -1.3856
15011TIP3   OH266523   2.112   1.427  13.921 -0.9723  0.2939  0.3853
15011TIP3    H166524   2.170   1.495  13.956 -2.4797  0.7235  2.1924
15011TIP3    H266525   2.126   1.351  13.977  0.4536 -0.8662 -1.4204
15012TIP3   OH266526   3.589   1.749   2.777  0.4961 -0.2019  0.0715
15012TIP3    H166527   3.672   1.789   2.750  0.1624  0.5135  0.0739
15012TIP3    H266528   3.564   1.694   2.704  1.2166 -0.8134  0.2713
15013TIP3   OH266529   0.825   2.814  12.213 -0.1631  0.1165 -0.1305
15013TIP3    H166530   0.771   2.865  12.152 -0.3981  0.6499  0.5176
15013TIP3    H266531   0.786   2.830  12.299  0.1786 -0.6186  0.1682
15014TIP3   OH266532   0.109   6.667   2.582  0.0149  0.1807 -0.1638
15014TIP3    H166533   0.082   6.672   2.674  1.9391 -0.3452  0.4725
15014TIP3    H266534   0.053   6.598   2.545 -1.8377  1.4323  0.1764
15015TIP3   OH266535   5.686   5.583   3.553  0.1399 -0.2937  0.2860
15015TIP3    H166536   5.744   5.650   3.518  0.5621 -0.6615  0.2721
15015TIP3    H266537   5.598   5.617   3.538  0.3530  0.6283  1.0239
15016TIP3   OH266538   5.293   3.634   3.980 -0.1129 -0.6306 -0.1591
15016TIP3    H166539   5.349   3.655   3.905 -1.1961 -0.5068 -0.9540
15016TIP3    H266540   5.341   3.668   4.056  0.6634 -0.1084 -0.8674
15017TIP3   OH266541   1.264   3.036  12.972  0.2223  0.8191  0.2420
15017TIP3    H166542   1.223   3.101  13.029 -1.0099 -0.0527  0.4059
15017TIP3    H266543   1.270   3.079  12.886 -1.4348  0.8769  0.1138
15018TIP3   OH266544   2.441   4.814  11.021  0.3710 -0.1670 -0.6473
15018TIP3    H166545   2.346   4.824  11.029  0.2338 -1.4661 -0.5106
15018TIP3    H266546   2.477   4.876  11.085 -0.3933  0.0113 -0.3820
15019TIP3   OH266547   0.428   2.926   1.811 -0.3236  0.4729 -0.1277
15019TIP3    H166548   0.505   2.960   1.765 -0.7002  0.6072 -0.6629
15019TIP3    H266549   0.378   3.004   1.835  0.6312  0.5340  1.9191
15020TIP3   OH266550   3.630   0.031   3.045  0.4957  0.0662  0.2035
15020TIP3    H166551   3.622   0.119   3.082  1.4765  0.0466  0.4869
15020TIP3    H266552   3.570   0.030   2.971  0.9259  1.1749 -0.1693
15021TIP3   OH266553   3.736   3.941  13.594  0.4617 -0.3786  0.3196
15021TIP3    H166554   3.745   4.016  13.652 -0.1314  0.1830 -0.2993
15021TIP3    H266555   3.792   3.874  13.632  3.9720  1.5141 -1.0509
15022TIP3   OH266556   1.892   2.011  14.534 -0.6596  0.4709  0.0635
15022TIP3    H166557   1.854   1.979  14.452 -1.7866  0.1089  0.7023
15022TIP3    H266558   1.862   1.948  14.600  0.3257  0.6925  0.7356
15023TIP3   OH266559   4.078   4.410   4.490 -0.0692 -0.1519 -0.1237
15023TIP3    H166560   4.045   4.347   4.425  0.4560 -1.1607  0.5540
15023TIP3    H266561   4.008   4.416   4.555  0.2269 -0.6930  0.2473
15024TIP3   OH266562   0.309   5.086  12.717  0.4074  0.0700  0.5127
15024TIP3    H166563   0.244   5.022  12.686  0.6220 -0.4559  1.1231
15024TIP3    H266564   0.391   5.037  12.720  0.6445  0.4730  0.6673
15025TIP3   OH266565   5.631   4.038  14.313  0.4806  0.3863 -0.0789
15025TIP3    H166566   5.593   4.001  14.234 -3.2951 -1.0791  2.1528
15025TIP3    H266567   5.688   4.109  14.282  0.8645 -1.4409 -4.0889
15026TIP3   OH266568   3.223   0.488  14.965  0.7076  0.4745  0.7101
15026TIP3    H166569   3.282   0.526  14.901 -0.7768  0.2224 -0.8888
15026TIP3    H266570   3.271   0.414  15.001  0.7777 -0.8533 -1.8691
15027TIP3   OH266571   0.117   6.186  11.293 -0.0736  0.4526 -0.0331
15027TIP3    H166572   0.097   6.228  11.209  2.2578  0.9148 -0.4321
15027TIP3    H266573   0.190   6.237  11.328 -0.3363 -0.3701  1.8018
15028TIP3   OH266574   1.414   1.334   1.262  0.0834 -0.4366  0.7464
15028TIP3    H166575   1.413   1.303   1.352  1.2866 -0.8157  0.6456
15028TIP3    H266576   1.487   1.289   1.222  1.1851  1.6354  0.2713
15029TIP3   OH266577   6.573   5.329  14.627  0.1033 -0.1408  0.7475
15029TIP3    H166578   6.563   5.348  14.534  1.2692 -1.2561  0.3674
15029TIP3    H266579   6.645   5.266  14.631  0.5822  0.4588  2.4680
15030TIP3   OH266580   5.121   1.700  16.187 -0.1021  0.3254  0.8283
15030TIP3    H166581   5.202   1.725  16.143 -0.2484 -3.4587 -2.0501
15030TIP3    H266582   5.053   1.750  16.143  0.3215  1.1088  1.0429
15031TIP3   OH266583   0.093   6.412  10.361 -0.3509  0.4879  0.6528
15031TIP3    H166584   0.160   6.360  10.316  0.2867  2.9349 -1.4883
15031TIP3    H266585   0.120   6.411  10.453  2.0703  0.5482  0.0092
15032TIP3   OH266586   6.281   4.500  16.081  0.2730  0.8648  0.2559
15032TIP3    H166587   6.197   4.484  16.038  0.2856  1.6744 -0.0903
15032TIP3    H266588   6.282   4.595  16.096  1.7950  1.1089 -1.1635
15033TIP3   OH266589   4.664   1.221  11.850  0.3301  0.0216 -0.7535
15033TIP3    H166590   4.598   1.152  11.863  0.6946 -0.5367 -1.7239
15033TIP3    H266591   4.739   1.192  11.902 -0.0794  0.4952  0.1004
15034TIP3   OH266592   4.480   3.005  12.507 -0.8964  0.1364  0.0361
15034TIP3    H166593   4.499   2.960  12.425  0.0004 -1.3056  0.9758
15034TIP3    H266594   4.545   2.971  12.568 -3.9286 -1.9997  2.4289
15035TIP3   OH266595   5.335   2.841   2.369  0.3905 -0.0315 -0.2329
15035TIP3    H166596   5.285   2.923   2.367  0.8606  0.2480 -1.0738
15035TIP3    H266597   5.334   2.815   2.461  0.7913  1.2720  0.1697
15036TIP3   OH266598   4.312   3.427   2.064 -0.2376  0.5847 -0.1181
15036TIP3    H166599   4.220   3.402   2.075 -0.4376  1.9666  2.0156
15036TIP3    H266600   4.319   3.452   1.971 -1.1970 -2.3702 -1.0975
15037TIP3   OH266601   0.121   5.305  13.693  0.5023 -0.1061  0.1224
15037TIP3    H166602   0.097   5.272  13.606  0.3931  3.1081 -1.2133
15037TIP3    H266603   0.039   5.342  13.728  0.6395 -0.9931  1.4427
15038TIP3   OH266604   2.215   0.234  13.424  0.1621  0.3766  0.4181
15038TIP3    H166605   2.134   0.284  13.425  0.7699  1.3832  0.6726
15038TIP3    H266606   2.282   0.295  13.457  1.0553 -0.3600  0.0276
15039TIP3   OH266607   1.048   1.071   6.131  0.1902  0.1656  0.8223
15039TIP3    H166608   1.109   1.101   6.064 -1.4836 -1.3433 -1.5780
15039TIP3    H266609   1.058   1.133   6.203  2.8600  1.2723 -0.3773
15040TIP3   OH266610   1.039   0.555  15.325  0.2266  0.3009 -0.1998
15040TIP3    H166611   1.123   0.582  15.287  0.3567  0.2376  0.0403
15040TIP3    H266612   1.023   0.617  15.396 -0.7267  1.3169 -1.2691
15041TIP3   OH266613   2.218   2.910  16.735  0.5985  0.2536 -0.5277
15041TIP3    H166614   2.123   2.903  16.748  0.3835 -0.6635 -2.2835
15041TIP3    H266615   2.251   2.823  16.758  0.3951 -0.8968 -3.9836
15042TIP3   OH266616   3.858   5.299  12.652 -0.2434  0.1782  0.0664
15042TIP3    H166617   3.880   5.254  12.734 -0.4285 -1.5728 -0.7998
15042TIP3    H266618   3.792   5.363  12.677  0.5465  0.4843  1.4746
15043TIP3   OH266619   5.935   2.149  13.351 -0.4487  0.2086 -0.0466
15043TIP3    H166620   6.001   2.210  13.320 -1.0775  0.4913 -0.8582
15043TIP3    H266621   5.856   2.172  13.303 -0.8137 -0.9474 -0.0350
15044TIP3   OH266622   3.131   5.441  15.809  0.3880  0.2371 -0.3553
15044TIP3    H166623   3.138   5.508  15.877  0.5686  0.9640 -1.0675
15044TIP3    H266624   3.221   5.419  15.787  0.3517  0.6475 -0.9585
15045TIP3   OH266625   5.389   2.231   0.302  0.2812  0.1481  0.1689
15045TIP3    H166626   5.483   2.229   0.286  0.4982  1.0072  1.2965
15045TIP3    H266627   5.359   2.143   0.278  1.2888 -0.0079 -0.5861
15046TIP3   OH266628   6.556   4.616   4.286 -0.4147  0.7435 -0.0488
15046TIP3    H166629   6.534   4.694   4.234 -2.4362  0.6428  0.5672
15046TIP3    H266630   6.630   4.577   4.240 -0.4262  2.1161 -1.3244
15047TIP3   OH266631   6.580   4.447  16.352  0.1386  0.0396  0.1446
15047TIP3    H166632   6.498   4.496  16.351 -0.1163 -0.3555  0.8730
15047TIP3    H266633   6.648   4.514  16.355 -0.2081  0.3580  1.2697
15048TIP3   OH266634   3.526   3.526  14.105  0.3208 -0.4914  0.7296
15048TIP3    H166635   3.499   3.596  14.165 -0.2166  0.0972 -0.1610
15048TIP3    H266636   3.517   3.566  14.018  3.6414 -0.4052  0.3093
15049TIP3   OH266637   0.953   6.198  13.909  0.2584  0.0111  0.4869
15049TIP3    H166638   0.865   6.161  13.916  0.0989  0.0923 -0.8300
15049TIP3    H266639   0.963   6.252  13.988 -0.2325 -1.2944  1.4704
15050TIP3   OH266640   4.867   1.884  12.732  0.0020  0.1723  0.3766
15050TIP3    H166641   4.773   1.869  12.725  0.1845 -0.1670 -2.2716
15050TIP3    H266642   4.899   1.883  12.642  2.5758  0.1885  1.1934
15051TIP3   OH266643   2.108   5.638   1.673 -0.4581  0.1615  0.1105
15051TIP3    H166644   2.084   5.680   1.756 -0.6775 -0.4256  0.3456
15051TIP3    H266645   2.186   5.686   1.644 -0.0103 -0.0280  0.9638
15052TIP3   OH266646   6.739   1.167  15.167 -0.5897  0.8370  0.0641
15052TIP3    H166647   6.710   1.090  15.118  0.5023  0.6738 -0.3683
15052TIP3    H266648   6.671   1.181  15.232 -0.5937 -0.8039  0.4732
15053TIP3   OH266649   4.758   4.060  16.953  0.7310  0.1824  0.0418
15053TIP3    H166650   4.706   4.121  17.005  1.1825 -0.1862  0.9454
15053TIP3    H266651   4.772   3.985  17.010 -0.5629 -1.1898 -1.3407
15054TIP3   OH266652   1.600   2.979  15.796  0.1947 -0.6781 -0.1808
15054TIP3    H166653   1.534   2.920  15.834  1.0348 -1.9512 -0.6440
15054TIP3    H266654   1.674   2.972  15.856  0.9761 -1.5366 -1.2256
15055TIP3   OH266655   1.363   3.246  10.455  0.0695 -0.2919  0.4675
15055TIP3    H166656   1.303   3.226  10.383 -0.8923 -0.3883  1.2774
15055TIP3    H266657   1.438   3.189  10.440  0.5870  0.7687 -1.3027
15056TIP3   OH266658   1.734   5.824  14.365 -0.2840  0.6140 -0.3561
15056TIP3    H166659   1.685   5.745  14.387 -1.8335  1.1566 -1.6504
15056TIP3    H266660   1.699   5.851  14.280  1.3360  1.8110 -0.7030
15057TIP3   OH266661   6.307   6.786  11.366 -0.1751 -0.0405  0.4625
15057TIP3    H166662   6.297   6.733  11.287 -0.5188 -2.7045  2.1574
15057TIP3    H266663   6.324   6.722  11.435 -0.8345  2.0851  2.7175
15058TIP3   OH266664   6.646   4.318   1.392 -0.6201 -0.1212  0.2988
15058TIP3    H166665   6.665   4.235   1.349 -1.1014  1.1273 -2.5127
15058TIP3    H266666   6.558   4.308   1.426 -1.2824 -0.2929 -1.3766
15059TIP3   OH266667   1.340   4.201  12.223  0.4025  0.4681 -0.3990
15059TIP3    H166668   1.328   4.170  12.133  0.7207 -0.4206 -0.1445
15059TIP3    H266669   1.252   4.219  12.255  0.2690  0.5160 -0.7952
15060TIP3   OH266670   3.677   6.389  13.879  0.3557 -0.5709  0.0329
15060TIP3    H166671   3.714   6.301  13.885 -0.7678 -1.0888 -0.2608
15060TIP3    H266672   3.646   6.395  13.788 -1.0153 -0.4884  0.4865
15061TIP3   OH266673   0.129   0.038  13.096 -0.1888 -0.4342 -0.8133
15061TIP3    H166674   0.094   0.103  13.036 -1.0349 -0.2788 -0.1682
15061TIP3    H266675   0.129  -0.044  13.046 -0.6807 -0.2643 -1.0944
15062TIP3   OH266676   6.081   0.288   3.450 -0.1711 -0.0324  0.2433
15062TIP3    H166677   6.055   0.368   3.495  1.6044  0.5853  0.2278
15062TIP3    H266678   6.126   0.317   3.372  0.4917 -1.0429  0.2286
15063TIP3   OH266679   6.471   0.356  12.555  0.5016  0.4248 -0.4596
15063TIP3    H166680   6.480   0.308  12.473 -2.5815 -2.1521  0.4789
15063TIP3    H266681   6.377   0.354  12.573  0.8564  2.5345  2.2147
15064TIP3   OH266682   0.510   0.204  13.807  0.3231 -0.8262 -0.0238
15064TIP3    H166683   0.510   0.191  13.712 -0.7080 -1.5473  0.0547
15064TIP3    H266684   0.458   0.284  13.819 -1.7026 -2.0770  0.0428
15065TIP3   OH266685   2.038   1.486   5.061  0.2505  0.0298 -0.2117
15065TIP3    H166686   2.105   1.432   5.019 -1.0217 -0.2135 -2.0596
15065TIP3    H266687   2.087   1.543   5.121  2.0760 -0.2667 -1.3476
15066TIP3   OH266688   4.952   2.938  10.932 -0.2195 -0.1806  0.3396
15066TIP3    H166689   4.918   3.016  10.888 -0.2866  0.1192  0.9048
15066TIP3    H266690   4.996   2.972  11.010  1.0621 -0.5988 -0.1808
15067TIP3   OH266691   1.634   0.699  15.098  0.0002 -0.0316 -0.1586
15067TIP3    H166692   1.553   0.724  15.053 -0.2863 -2.2742 -1.0312
15067TIP3    H266693   1.666   0.623  15.049  0.7623 -1.3677  2.2513
15068TIP3   OH266694   0.055   6.342   3.626  0.1541 -0.0412 -0.4068
15068TIP3    H166695   0.108   6.404   3.676 -0.6719 -0.1434  0.6310
15068TIP3    H266696  -0.027   6.336   3.674 -0.6197 -0.2792 -1.7017
15069TIP3   OH266697   5.791   1.541   0.151  0.0479 -0.1510  0.4276
15069TIP3    H166698   5.705   1.542   0.193 -0.3274 -2.6168 -0.0991
15069TIP3    H266699   5.853   1.538   0.224 -0.5304 -2.6632  0.9151
15070TIP3   OH266700   3.960   3.972  15.818 -0.2830  0.4850 -0.9544
15070TIP3    H166701   3.866   3.962  15.828 -0.2779  1.9085  1.1902
15070TIP3    H266702   3.983   4.044  15.876  2.3464 -0.8004 -0.2131
15071TIP3   OH266703   0.295   3.621  12.660 -0.5634  0.2148  0.3308
15071TIP3    H166704   0.275   3.606  12.567 -0.7145  1.4732  0.1461
15071TIP3    H266705   0.311   3.715  12.666  0.9141 -0.0625  1.3190
15072TIP3   OH266706   5.608   1.497  14.116  0.1962 -0.0946  0.3877
15072TIP3    H166707   5.681   1.436  14.124  0.2818 -0.2559 -1.2993
15072TIP3    H266708   5.533   1.442  14.093  0.0584  0.3287 -0.1902
15073TIP3   OH266709   2.100   3.141   0.733  0.3503  0.2186 -0.3719
15073TIP3    H166710   2.175   3.085   0.710  0.1278 -0.5909  0.7965
15073TIP3    H266711   2.050   3.089   0.796 -0.9620  0.9307 -0.7845
15074TIP3   OH266712   6.777   4.310   2.121 -0.4597 -0.3579 -0.1821
15074TIP3    H166713   6.746   4.380   2.063  0.1219 -1.1856 -1.5283
15074TIP3    H266714   6.838   4.259   2.068  0.3057 -1.0037  1.2467
15075TIP3   OH266715   0.900   6.248   1.613  0.2862  0.9093 -0.1881
15075TIP3    H166716   0.915   6.296   1.695 -0.3979 -0.2438  0.6474
15075TIP3    H266717   0.987   6.217   1.588  0.3807  0.5325  0.5793
15076TIP3   OH266718   2.374   5.979  12.189 -0.4994 -0.2132 -0.5004
15076TIP3    H166719   2.327   5.900  12.216 -1.1563  0.7680  1.4486
15076TIP3    H266720   2.453   5.980  12.243  1.8375 -1.7305 -3.5967
15077TIP3   OH266721   6.625   1.907  11.311 -0.2389  0.0294 -0.0360
15077TIP3    H166722   6.698   1.875  11.365 -0.7591 -0.0513  0.6301
15077TIP3    H266723   6.594   1.829  11.265 -1.2681 -0.3877  1.3067
15078TIP3   OH266724   2.998   2.072  14.848  0.0124 -0.3098  0.1154
15078TIP3    H166725   2.977   1.985  14.883  0.1843 -0.5772 -0.4379
15078TIP3    H266726   2.966   2.133  14.914 -0.7032 -0.7711  0.2000
15079TIP3   OH266727   4.414   1.418   2.637 -0.1900 -1.0703  0.9365
15079TIP3    H166728   4.348   1.485   2.624 -0.8445 -1.6429  1.2456
15079TIP3    H266729   4.492   1.452   2.593 -0.6888 -0.3953  0.5599
15080TIP3   OH266730   0.581   3.761  16.796  0.1746  0.3159 -0.6221
15080TIP3    H166731   0.598   3.787  16.706  0.3023 -1.6261 -1.2187
15080TIP3    H266732   0.520   3.827  16.830  0.1485  1.0935 -2.1097
15081TIP3   OH266733   3.145   3.232  12.539  0.3775 -0.5799  0.5504
15081TIP3    H166734   3.072   3.292  12.549  0.9093  0.4468 -1.2413
15081TIP3    H266735   3.223   3.286  12.555  0.8107 -1.6191  2.2903
15082TIP3   OH266736   1.181   4.037  17.031 -0.6921  0.5754 -0.6576
15082TIP3    H166737   1.216   4.006  17.114 -0.6230 -0.0710 -0.9239
15082TIP3    H266738   1.150   4.126  17.050 -0.7757  0.3953  0.0816
15083TIP3   OH266739   0.102   4.198   0.608 -0.2554 -0.0068 -0.1644
15083TIP3    H166740   0.075   4.277   0.655 -1.6717 -2.1556  3.0171
15083TIP3    H266741   0.021   4.152   0.589  0.5212 -0.6400 -2.2413
15084TIP3   OH266742   3.994   0.725  16.462 -0.2069 -0.5307  0.3594
15084TIP3    H166743   3.907   0.734  16.500 -0.1581  2.3001  0.0165
15084TIP3    H266744   4.037   0.808  16.481  3.3370 -2.5884  2.5626
15085TIP3   OH266745   1.625   5.915   2.803  0.1315 -0.1233  0.3462
15085TIP3    H166746   1.578   5.891   2.883 -0.8137  1.2042  0.2147
15085TIP3    H266747   1.584   5.996   2.774  0.0574 -0.8880 -1.8323
15086TIP3   OH266748   5.684   4.674   2.396 -0.2839  0.0925 -0.3762
15086TIP3    H166749   5.685   4.713   2.309 -1.5102  3.1174  0.8011
15086TIP3    H266750   5.770   4.636   2.407 -0.0701 -0.2724 -2.8460
15087TIP3   OH266751   1.377   1.546   4.437  0.6217  0.1666  0.1553
15087TIP3    H166752   1.436   1.502   4.498 -0.7445 -1.8390  0.1213
15087TIP3    H266753   1.435   1.591   4.376  2.2090 -2.4846 -0.4517
15088TIP3   OH266754   1.820   5.339   5.183 -0.0152 -0.1071 -0.2477
15088TIP3    H166755   1.857   5.264   5.135 -0.8724 -0.4384 -0.4057
15088TIP3    H266756   1.841   5.321   5.275  0.6818 -0.0179 -0.3854
15089TIP3   OH266757   4.783   4.880   5.153 -0.5465  0.0257  0.0998
15089TIP3    H166758   4.717   4.948   5.165 -1.7318 -1.4032  2.1752
15089TIP3    H266759   4.750   4.804   5.200  1.9886 -1.1865  0.1365
15090TIP3   OH266760   4.835   0.382   1.176  0.3064  0.4579 -0.1544
15090TIP3    H166761   4.923   0.408   1.150  0.5497 -0.6528 -0.4844
15090TIP3    H266762   4.828   0.410   1.268  0.2868  2.2670 -0.6628
15091TIP3   OH266763   4.682   0.044  12.609 -0.6129  0.1670 -0.1614
15091TIP3    H166764   4.768   0.079  12.634 -0.9027  0.1206  0.9929
15091TIP3    H266765   4.670   0.071  12.518  0.0223  1.3701  0.0915
15092TIP3   OH266766   6.012   4.395  13.866 -0.1462 -0.3890  0.1088
15092TIP3    H166767   6.033   4.308  13.899  0.8361 -0.4153 -0.5558
15092TIP3    H266768   6.064   4.404  13.786 -1.2235  0.3102 -0.5380
15093TIP3   OH266769   6.318   6.433   0.009 -0.1452  0.1054  0.7808
15093TIP3    H166770   6.280   6.476  -0.068  1.5736 -2.9243 -1.9814
15093TIP3    H266771   6.399   6.481   0.026 -0.1698  0.3340  0.2540
15094TIP3   OH266772   3.526   5.104   3.100 -0.4718 -0.1526  0.0148
15094TIP3    H166773   3.475   5.081   3.178 -0.1157  0.6859  0.5142
15094TIP3    H266774   3.475   5.172   3.057 -0.0612  0.2908  0.2131
15095TIP3   OH266775   5.304   5.409  15.560  1.1359  0.3711  0.4263
15095TIP3    H166776   5.268   5.349  15.495  2.1580  0.2671 -0.0719
15095TIP3    H266777   5.365   5.464  15.511  0.2810  1.7801  0.8877
15096TIP3   OH266778   2.902   2.579   2.340  0.2307 -0.0134 -0.4509
15096TIP3    H166779   2.819   2.600   2.298  0.1354  0.2309 -0.1408
15096TIP3    H266780   2.900   2.626   2.423  0.3076 -0.6964 -0.0560
15097TIP3   OH266781   6.307   6.252   4.540  0.2078 -0.1887 -0.1621
15097TIP3    H166782   6.390   6.275   4.499 -0.1349  1.3426 -0.0485
15097TIP3    H266783   6.273   6.179   4.487  0.3548  0.9326 -1.8697
15098TIP3   OH266784   3.163   5.885   6.380  0.2504  0.0677  0.1682
15098TIP3    H166785   3.081   5.841   6.402  0.9075 -1.9088 -1.0130
15098TIP3    H266786   3.159   5.897   6.285  0.9254  0.8060  0.2249
15099TIP3   OH266787   5.669   0.060   6.239 -0.3824  0.2492  0.1800
15099TIP3    H166788   5.624   0.097   6.315  0.1266  0.4646  0.3816
15099TIP3    H266789   5.758   0.093   6.246 -0.2752  0.0875 -0.3919
15100TIP3   OH266790   0.819   5.345   2.993  0.1357 -0.7973  0.4547
15100TIP3    H166791   0.818   5.397   3.073  1.6081 -0.3617  0.2148
15100TIP3    H266792   0.736   5.297   2.995 -1.0455  1.1805  0.9037
15101TIP3   OH266793   3.191   0.244   2.849  0.2116 -0.1364  0.0048
15101TIP3    H166794   3.200   0.203   2.763  0.2290 -1.1450  0.4779
15101TIP3    H266795   3.197   0.338   2.831  1.4332 -0.3732 -0.9454
15102TIP3   OH266796   5.455   2.569   4.821  0.2276  0.4565  0.1943
15102TIP3    H166797   5.498   2.487   4.845  0.0447  0.6675  1.3154
15102TIP3    H266798   5.364   2.558   4.850  0.1861  1.0292  0.3056
15103TIP3   OH266799   3.192   2.723   0.803  0.5462 -0.0555 -0.4161
15103TIP3    H166800   3.236   2.641   0.824 -0.5075 -0.9409 -1.5617
15103TIP3    H266801   3.150   2.749   0.885 -1.3624 -2.0999 -0.6665
15104TIP3   OH266802   6.127   0.492   4.822 -0.3854 -0.0385 -0.6413
15104TIP3    H166803   6.141   0.426   4.754  0.4559  0.3412 -0.8557
15104TIP3    H266804   6.124   0.575   4.774 -2.3599  0.0328 -0.4749
15105TIP3   OH266805   0.940   4.194   5.052  0.2046  0.1548  0.5842
15105TIP3    H166806   0.955   4.157   4.965 -1.6527 -3.4904  1.6126
15105TIP3    H266807   1.026   4.196   5.093  0.6165 -1.7719 -0.0884
15106TIP3   OH266808   2.157   3.699   3.905 -0.5328  0.1701  0.4385
15106TIP3    H166809   2.244   3.708   3.865 -0.4722 -0.6742  0.3656
15106TIP3    H266810   2.166   3.628   3.968 -1.3036 -0.3066  0.0325
15107TIP3   OH266811   1.081   5.032  15.722 -0.6690 -0.0396 -0.1354
15107TIP3    H166812   1.012   5.021  15.787 -0.3045  0.9858  0.4479
15107TIP3    H266813   1.041   5.087  15.654 -0.7245 -0.2615 -0.2848
15108TIP3   OH266814   6.518   1.327   1.017  0.1577  0.3591  0.6192
15108TIP3    H166815   6.569   1.407   1.028  3.3928 -1.2371 -1.1846
15108TIP3    H266816   6.563   1.262   1.072 -0.3468 -0.9676 -0.4809
15109TIP3   OH266817   5.836   5.916   4.834  0.2359 -0.0512  0.4056
15109TIP3    H166818   5.927   5.886   4.834 -0.3136 -2.0843  3.2504
15109TIP3    H266819   5.803   5.891   4.747  2.0538 -0.2530 -0.2750
15110TIP3   OH266820   6.417   3.145  13.334 -0.9059 -0.3277 -0.0542
15110TIP3    H166821   6.364   3.209  13.382  1.6127 -0.5255  3.2793
15110TIP3    H266822   6.421   3.069  13.391  0.4643 -1.4820 -1.5881
15111TIP3   OH266823   3.501   0.868   0.371  0.7028  0.0371  0.2886
15111TIP3    H166824   3.418   0.913   0.387 -1.9431 -3.6081 -1.6918
15111TIP3    H266825   3.520   0.886   0.279  1.4915 -0.1088  0.4188
15112TIP3   OH266826   1.329   6.271  13.021  0.1432 -0.7309 -0.3622
15112TIP3    H166827   1.377   6.299  12.943  0.2342 -2.1579 -0.8529
15112TIP3    H266828   1.395   6.232  13.077 -0.2451 -1.6286 -0.5167
15113TIP3   OH266829   0.803   3.957   4.510  0.0703 -0.2925 -0.2416
15113TIP3    H166830   0.716   3.965   4.471 -0.2026 -1.3703  0.1002
15113TIP3    H266831   0.841   3.880   4.466 -0.7993 -2.4880  2.5407
15114TIP3   OH266832   3.624   0.071  14.448  0.5184 -0.4300  0.0823
15114TIP3    H166833   3.530   0.086  14.460  0.3508 -1.0302 -0.3942
15114TIP3    H266834   3.630  -0.019  14.415  1.4606 -1.4766  2.8096
15115TIP3   OH266835   3.198   4.645   2.430  0.7102 -0.4427  0.1419
15115TIP3    H166836   3.274   4.702   2.419  1.2737 -1.5185 -2.2588
15115TIP3    H266837   3.129   4.688   2.380  0.7774 -1.2144 -0.6263
15116TIP3   OH266838   2.679   6.666   0.534 -0.1832 -0.2218 -0.9643
15116TIP3    H166839   2.632   6.612   0.470  2.4105 -0.6027 -2.7039
15116TIP3    H266840   2.640   6.753   0.525 -2.8508 -1.1783  0.2292
15117TIP3   OH266841   1.597   3.321  12.352  0.0533 -0.0477  0.0375
15117TIP3    H166842   1.623   3.383  12.284  0.6150  0.4008  0.6487
15117TIP3    H266843   1.628   3.360  12.433 -1.2133 -0.2507  0.6403
15118TIP3   OH266844   5.176   0.650   6.140 -0.4736 -0.2763  0.0773
15118TIP3    H166845   5.206   0.559   6.143  1.8691  0.3812 -0.8566
15118TIP3    H266846   5.237   0.697   6.195 -2.0261  0.6959  1.0329
15119TIP3   OH266847   1.064   1.586  12.080 -0.0895  1.1352  0.0219
15119TIP3    H166848   1.065   1.679  12.099  3.6679  1.1592  0.5265
15119TIP3    H266849   1.127   1.576  12.008 -1.2424 -0.9188 -0.7856
15120TIP3   OH266850   5.541   6.105  14.846 -0.1092  0.3160 -0.0080
15120TIP3    H166851   5.448   6.093  14.826  0.1693  0.6043 -1.6316
15120TIP3    H266852   5.568   6.178  14.790  0.9417  0.6935  0.9672
15121TIP3   OH266853   0.460   5.847   3.539 -0.4012  0.6605  0.4327
15121TIP3    H166854   0.427   5.881   3.622  0.9344 -1.5853  2.0187
15121TIP3    H266855   0.392   5.787   3.508  0.0696 -0.3268  1.2233
15122TIP3   OH266856   4.660   4.056  15.333 -0.0392 -0.1426  0.3927
15122TIP3    H166857   4.645   3.991  15.401  1.1332  0.1470  0.9685
15122TIP3    H266858   4.716   4.122  15.375  0.5929  0.1177 -0.8017
15123TIP3   OH266859   0.558   3.336  16.378  0.1629  0.1963  0.5101
15123TIP3    H166860   0.587   3.331  16.287 -1.0860 -0.6660  0.1258
15123TIP3    H266861   0.531   3.247  16.399 -0.9337  0.6801  1.2346
15124TIP3   OH266862   2.067   1.885  16.546  0.4515  0.2806 -0.0677
15124TIP3    H166863   2.156   1.887  16.510  0.8286  3.0002  0.7709
15124TIP3    H266864   2.047   1.792  16.555  2.8947 -0.4231 -0.9988
15125TIP3   OH266865   2.229   2.847  14.240  0.0247  0.2336  0.0804
15125TIP3    H166866   2.305   2.816  14.291 -0.2449  0.9862  0.9680
15125TIP3    H266867   2.224   2.786  14.166  1.9629  0.6187 -0.4340
15126TIP3   OH266868   5.433   4.898  12.137 -0.1393  0.3056  0.4096
15126TIP3    H166869   5.430   4.859  12.224  2.2232 -1.9942 -0.3817
15126TIP3    H266870   5.462   4.988  12.151 -1.4567  0.5140  2.0507
15127TIP3   OH266871   5.009   2.137   3.725 -0.1818 -0.4676  0.2046
15127TIP3    H166872   4.922   2.097   3.719 -0.2098 -0.2019 -1.5199
15127TIP3    H266873   5.066   2.076   3.679  1.0006 -1.6699  3.0015
15128TIP3   OH266874   2.826   5.409  12.116 -0.4801 -0.5689  0.2335
15128TIP3    H166875   2.890   5.417  12.045 -0.2374 -0.9114  0.4140
15128TIP3    H266876   2.878   5.412  12.196 -0.8704  1.1633  0.4542
15129TIP3   OH266877   5.343   2.745   5.455 -0.5532  0.2341 -0.1026
15129TIP3    H166878   5.401   2.679   5.493  1.9339  1.7634 -1.0225
15129TIP3    H266879   5.325   2.805   5.527  0.0040  0.3848 -0.0813
15130TIP3   OH266880   6.429   4.641  11.110  0.2059  0.7155  0.4820
15130TIP3    H166881   6.388   4.678  11.032  1.0907 -1.0444 -0.8677
15130TIP3    H266882   6.362   4.584  11.148  0.2961  0.3681  0.1224
15131TIP3   OH266883   0.176   1.778  15.475 -0.7663  0.0033 -0.5331
15131TIP3    H166884   0.261   1.734  15.468 -0.1406  1.0128  0.3875
15131TIP3    H266885   0.186   1.858  15.423 -0.2106  1.4391  1.6515
15132TIP3   OH266886   3.159   2.653  11.832  0.5979  0.3258  0.1867
15132TIP3    H166887   3.189   2.736  11.869 -0.4109  0.4406  0.8013
15132TIP3    H266888   3.205   2.645  11.749 -1.2038  2.8058 -1.1964
15133TIP3   OH266889   6.657   2.105   4.266 -0.0353  0.5447 -0.0858
15133TIP3    H166890   6.746   2.134   4.245  0.2457 -0.7708 -0.8737
15133TIP3    H266891   6.611   2.109   4.182 -0.2437 -0.3298 -0.0242
15134TIP3   OH266892   2.258   1.999   0.296  0.1771 -0.0854 -1.0012
15134TIP3    H166893   2.352   2.010   0.307 -0.1452  1.9719  0.1471
15134TIP3    H266894   2.230   2.073   0.243 -0.9224 -0.1510 -0.5525
15135TIP3   OH266895   3.366   2.234  17.135 -0.6515 -0.4040  0.6120
15135TIP3    H166896   3.322   2.207  17.055 -2.2210  0.8496  0.9960
15135TIP3    H266897   3.388   2.326  17.120 -1.9343  0.1761  1.9573
15136TIP3   OH266898   4.316   5.527   6.585  0.0751  0.2489  0.2870
15136TIP3    H166899   4.267   5.607   6.563 -0.8290 -0.3343  0.1059
15136TIP3    H266900   4.392   5.558   6.633  0.7946  1.3914 -1.4684
15137TIP3   OH266901   5.842   0.815  13.446  0.5458  0.2866 -0.3101
15137TIP3    H166902   5.849   0.846  13.356  2.5193 -2.4048 -1.2224
15137TIP3    H266903   5.932   0.807  13.477  0.0227 -0.9821  1.0605
15138TIP3   OH266904   4.356   3.641   5.924  0.1149  0.2221 -0.3468
15138TIP3    H166905   4.441   3.648   5.881  0.5207 -0.4210  0.3292
15138TIP3    H266906   4.376   3.628   6.016 -0.7265  0.3576 -0.1293
15139TIP3   OH266907   4.504   4.628   1.360 -0.4346  0.2239  0.8198
15139TIP3    H166908   4.446   4.561   1.395 -0.7019  0.0571  0.0826
15139TIP3    H266909   4.466   4.651   1.275  0.7679 -0.1478  0.1595
15140TIP3   OH266910   6.719   1.903   4.725 -0.4392 -0.2862  0.2075
15140TIP3    H166911   6.767   1.861   4.654 -1.3725 -1.0515  0.0215
15140TIP3    H266912   6.707   1.994   4.696  0.0715 -0.3335 -0.1544
15141TIP3   OH266913   6.776   2.977   2.746 -0.6620  0.3007  0.2230
15141TIP3    H166914   6.811   2.953   2.831 -0.1720 -1.8292 -0.5181
15141TIP3    H266915   6.847   3.023   2.702 -0.0151 -0.7864  0.0840
15142TIP3   OH266916   3.002   6.765  12.878  0.0620  0.2941  0.0894
15142TIP3    H166917   3.066   6.695  12.893  0.7208  0.7627 -0.4704
15142TIP3    H266918   2.971   6.788  12.966 -0.3420 -0.8459  0.2748
15143TIP3   OH266919   2.825   1.695  14.717  0.3895  0.0385 -0.2246
15143TIP3    H166920   2.911   1.737  14.713 -0.3985  1.5760 -2.1403
15143TIP3    H266921   2.804   1.693  14.810  1.8420  1.0043  0.1597
15144TIP3   OH266922   5.893   5.088  13.250 -0.2761 -0.0027  0.4354
15144TIP3    H166923   5.836   5.110  13.176 -1.5596  0.4663  1.5083
15144TIP3    H266924   5.843   5.023  13.300  0.2761  0.1495  1.2105
15145TIP3   OH266925   4.759   1.582  15.769 -0.3187  0.1020 -0.2099
15145TIP3    H166926   4.847   1.567  15.804 -0.4678 -1.1039 -0.2940
15145TIP3    H266927   4.703   1.591  15.846 -0.2086  0.3165 -0.1549
15146TIP3   OH266928   2.661   6.552   5.218  0.6980 -0.2819  0.4665
15146TIP3    H166929   2.608   6.511   5.286  1.8113 -0.4680  1.2467
15146TIP3    H266930   2.680   6.639   5.252  2.4874 -0.8771  1.1160
15147TIP3   OH266931   4.772   0.566   0.699  0.1677 -0.1693  0.7911
15147TIP3    H166932   4.773   0.478   0.662 -0.2016  0.3305 -0.4461
15147TIP3    H266933   4.731   0.620   0.632  2.2747  1.3402  0.6159
15148TIP3   OH266934   0.757   0.035   5.596 -0.2932  0.3588 -0.5092
15148TIP3    H166935   0.721  -0.053   5.607  1.7625 -0.5484 -0.6543
15148TIP3    H266936   0.689   0.093   5.631 -1.7047 -1.2631 -0.4338
15149TIP3   OH266937   0.786   0.862   3.462 -0.2881 -0.1496  0.1340
15149TIP3    H166938   0.717   0.816   3.511 -1.2127  1.0986  0.0635
15149TIP3    H266939   0.765   0.955   3.474  0.5636  0.2151 -1.0785
15150TIP3   OH266940   1.208   2.271   0.405  0.0835 -0.0394 -0.1729
15150TIP3    H166941   1.159   2.221   0.340 -2.4414 -0.7210  2.0999
15150TIP3    H266942   1.182   2.362   0.389  1.4910  0.1516 -1.6705
15151TIP3   OH266943   1.865   3.056   4.788  0.2894 -0.2047  0.3641
15151TIP3    H166944   1.959   3.055   4.771  0.3078 -1.0482  0.4646
15151TIP3    H266945   1.859   3.053   4.884  0.1854  4.0114  0.6942
15152TIP3   OH266946   3.626   4.142   1.436  0.2165  0.1653 -0.4336
15152TIP3    H166947   3.688   4.090   1.487  0.1142  2.3443  2.1448
15152TIP3    H266948   3.540   4.114   1.466  0.0866  0.3724 -0.6053
15153TIP3   OH266949   2.078   2.377   3.159  0.0004  0.7467  0.1656
15153TIP3    H166950   2.104   2.468   3.155  0.0471  0.8250  1.6541
15153TIP3    H266951   2.119   2.336   3.083  1.5698  1.5704  0.5464
15154TIP3   OH266952   4.666   3.323  12.739 -0.5881 -0.0902  0.7269
15154TIP3    H166953   4.670   3.412  12.704  0.0684 -0.7383 -0.9727
15154TIP3    H266954   4.573   3.302  12.741 -0.6742  0.1170 -0.3306
15155TIP3   OH266955   0.106   1.516  16.408 -0.4540 -0.1928 -0.1265
15155TIP3    H166956   0.027   1.558  16.374  0.1673  0.6736 -0.5105
15155TIP3    H266957   0.161   1.500  16.331 -0.2161 -0.7230  0.1454
15156TIP3   OH266958   3.620   0.534   2.437 -0.0105  0.1524 -0.2247
15156TIP3    H166959   3.689   0.504   2.495  0.8818  0.0704 -1.3017
15156TIP3    H266960   3.666   0.572   2.362 -1.1297  0.6423 -0.6884
15157TIP3   OH266961   3.701   4.158  11.279 -0.1814  0.0567  0.1248
15157TIP3    H166962   3.659   4.144  11.194 -1.7787  0.3493  0.8421
15157TIP3    H266963   3.697   4.073  11.322  2.4815 -0.6614 -0.8201
15158TIP3   OH266964   2.808   4.162  16.168  0.5085  0.2402  0.3667
15158TIP3    H166965   2.759   4.235  16.128 -0.2568 -1.2251 -1.5250
15158TIP3    H266966   2.754   4.135  16.242 -0.8796 -0.4100 -0.8328
15159TIP3   OH266967   2.056   2.200  14.645 -0.2851 -0.0515 -0.0228
15159TIP3    H166968   2.006   2.130  14.604  0.8347 -1.6967  1.2883
15159TIP3    H266969   2.145   2.187  14.614 -0.0589  0.7852  0.2630
15160TIP3   OH266970   1.862   1.733   0.135 -0.2489  0.7545 -0.5504
15160TIP3    H166971   1.956   1.743   0.150  0.2396 -1.4819 -1.6058
15160TIP3    H266972   1.831   1.686   0.213 -0.3545  0.8805 -0.5170
15161TIP3   OH266973   3.977   5.158   2.663 -0.0413 -0.3912  0.4907
15161TIP3    H166974   3.909   5.189   2.602  1.2695  1.8385  0.0494
15161TIP3    H266975   4.049   5.132   2.606  1.0503  1.3450  0.9972
15162TIP3   OH266976   2.205   2.403   2.461  0.0458  0.2602  0.6576
15162TIP3    H166977   2.242   2.471   2.518  0.5838  0.3439  0.2161
15162TIP3    H266978   2.261   2.404   2.384 -0.6433  0.1108  0.1463
15163TIP3   OH266979   5.299   3.464  12.071  0.4850  0.1606  0.0822
15163TIP3    H166980   5.329   3.423  11.990  1.1692  0.1495  0.3403
15163TIP3    H266981   5.366   3.443  12.136 -0.2798 -0.2105  0.7750
15164TIP3   OH266982   0.480   5.759   5.229 -0.3767 -0.3488  0.0664
15164TIP3    H166983   0.437   5.675   5.212 -0.4931  0.0456 -1.7707
15164TIP3    H266984   0.553   5.762   5.167 -0.2499  0.8274  0.2421
15165TIP3   OH266985   4.395   6.232  13.300  0.0998 -0.4124 -0.0663
15165TIP3    H166986   4.438   6.317  13.305 -0.3585 -0.2138  0.7796
15165TIP3    H266987   4.406   6.194  13.388 -2.8938  0.3905  0.7574
15166TIP3   OH266988   6.672   2.063   2.506  0.0185  0.1993 -0.1836
15166TIP3    H166989   6.645   2.029   2.590 -0.9412  0.6692 -0.2891
15166TIP3    H266990   6.762   2.031   2.494  0.3335  0.5114  1.2182
15167TIP3   OH266991   0.386   1.080   1.714  0.3701  0.4865 -0.2676
15167TIP3    H166992   0.373   1.051   1.804 -0.3536  0.4231 -0.3868
15167TIP3    H266993   0.373   1.001   1.661  0.6119  0.5622 -0.4417
15168TIP3   OH266994   2.316   2.076   0.758  0.1711  0.5601  0.1927
15168TIP3    H166995   2.403   2.113   0.775  0.7790 -0.2773 -0.9265
15168TIP3    H266996   2.256   2.134   0.805  1.2898  1.4189  0.6281
15169TIP3   OH266997   4.200   2.010  16.489 -0.4514  0.1460 -0.0117
15169TIP3    H166998   4.132   2.075  16.472 -0.3590  0.2425 -0.0138
15169TIP3    H266999   4.158   1.947  16.548 -0.3244  0.5906  0.5717
15170TIP3   OH267000   2.258   0.917  17.158  0.1045  0.2370 -0.0145
15170TIP3    H167001   2.312   0.910  17.079  0.2585  0.4680  0.0692
15170TIP3    H267002   2.258   0.829  17.195  1.8307  0.5939  0.9131
15171TIP3   OH267003   2.256   3.557   0.560  0.4270 -0.4194  0.0955
15171TIP3    H167004   2.181   3.568   0.619  0.8668 -0.2153  0.6204
15171TIP3    H267005   2.236   3.477   0.511  0.4084 -1.0194  1.0564
15172TIP3   OH267006   1.002   1.810  14.830  0.1920 -0.3366 -0.1872
15172TIP3    H167007   1.061   1.783  14.901 -0.2929 -0.3962  0.1970
15172TIP3    H267008   0.962   1.729  14.800  0.4016 -0.3129 -0.5432
15173TIP3   OH267009   4.334   6.192  17.142  0.5466  0.3821  0.5489
15173TIP3    H167010   4.400   6.124  17.160 -0.0762 -0.0375  1.2953
15173TIP3    H267011   4.308   6.224  17.228 -1.4421 -0.6467  0.3942
15174TIP3   OH267012   1.139   3.119   4.538 -0.2875  0.3014 -0.0875
15174TIP3    H167013   1.172   3.150   4.623  1.2911  0.0319 -0.5604
15174TIP3    H267014   1.196   3.161   4.474 -0.4473 -0.7363 -0.9343
15175TIP3   OH267015   6.036   0.896  10.803 -0.0011  0.5587 -0.2871
15175TIP3    H167016   6.016   0.937  10.887 -0.5190 -0.2849  0.0084
15175TIP3    H267017   5.961   0.840  10.784 -0.8530  2.2280 -2.3015
15176TIP3   OH267018   5.974   5.445  13.469 -0.1119  0.2639 -0.2486
15176TIP3    H167019   5.943   5.457  13.379 -1.9276 -1.4887  0.0658
15176TIP3    H267020   5.899   5.408  13.515  1.6006 -1.4436  1.3412
15177TIP3   OH267021   4.357   3.278   6.736 -0.3240 -0.2806 -0.0965
15177TIP3    H167022   4.349   3.372   6.753 -0.1546 -0.4811  1.1828
15177TIP3    H267023   4.278   3.256   6.686  0.3895  0.8215 -1.7965
15178TIP3   OH267024   1.977   5.082  14.191 -0.4159 -0.6434 -0.2372
15178TIP3    H167025   2.035   5.006  14.179 -1.0269 -1.0196 -0.8704
15178TIP3    H267026   1.927   5.060  14.270 -0.6181 -0.9225 -0.4395
15179TIP3   OH267027   5.083   3.058  14.059  0.2565 -0.1949  0.0356
15179TIP3    H167028   4.987   3.060  14.060  0.2574  1.2591 -0.0308
15179TIP3    H267029   5.106   3.022  13.973 -0.2144 -1.6122  0.4865
15180TIP3   OH267030   3.602   2.672  15.295 -0.0615  0.2326  0.4838
15180TIP3    H167031   3.662   2.703  15.363 -0.8926  1.2395  0.8016
15180TIP3    H267032   3.549   2.604  15.338  0.1849  0.0525  0.5006
15181TIP3   OH267033   1.184   6.049  16.116 -0.0790 -0.0113 -0.1269
15181TIP3    H167034   1.236   6.011  16.045 -1.5605  1.0560 -1.8851
15181TIP3    H267035   1.175   6.142  16.091  1.3773  1.0073  2.7333
15182TIP3   OH267036   5.689   1.653   5.737 -0.5741  0.6584 -0.0093
15182TIP3    H167037   5.604   1.650   5.694 -0.3441  1.6480 -0.5645
15182TIP3    H267038   5.741   1.586   5.692 -0.9618  0.2743  0.1151
15183TIP3   OH267039   2.354   6.195   2.127 -0.0347  0.0578  0.6651
15183TIP3    H167040   2.378   6.137   2.200  1.3770  0.9325  0.9338
15183TIP3    H267041   2.259   6.190   2.124  0.0268 -3.9048 -0.6652
15184TIP3   OH267042   5.047   1.153  10.941 -0.2358  0.0369 -0.3496
15184TIP3    H167043   4.978   1.119  10.884  0.0608  0.0849 -0.7465
15184TIP3    H267044   5.088   1.222  10.890 -0.0130  0.1320 -0.0451
15185TIP3   OH267045   0.948   2.472   0.614  0.0600 -0.9932 -0.0222
15185TIP3    H167046   1.037   2.449   0.641 -0.2890 -1.8038  0.4792
15185TIP3    H267047   0.933   2.559   0.652  0.8242 -0.6205 -0.5606
15186TIP3   OH267048   2.045   2.787   2.820 -0.4235  0.1747  0.2001
15186TIP3    H167049   1.957   2.749   2.826 -1.0505  1.4815 -0.0606
15186TIP3    H267050   2.088   2.738   2.750 -1.5994  0.6551 -0.9078
15187TIP3   OH267051   2.941   5.986  11.453 -0.2459  0.9360  0.4468
15187TIP3    H167052   3.028   5.995  11.492 -0.0832  0.3580  0.2319
15187TIP3    H267053   2.958   5.970  11.360 -0.4905 -0.9139  0.6687
15188TIP3   OH267054   4.742   3.097  12.864  0.1319 -0.0917 -0.3548
15188TIP3    H167055   4.813   3.126  12.920 -0.2251  0.0665  0.0196
15188TIP3    H267056   4.703   3.178  12.831  0.2288 -0.1806 -0.6961
15189TIP3   OH267057   1.124   6.605   4.536  0.3662  0.0654 -0.7139
15189TIP3    H167058   1.114   6.536   4.470  0.9381  0.2078 -0.9586
15189TIP3    H267059   1.146   6.683   4.485  2.2435 -0.1351 -0.2865
15190TIP3   OH267060   6.773   4.297  14.222 -0.0768  0.3849  0.5334
15190TIP3    H167061   6.716   4.229  14.257 -0.4229  0.9351  1.0595
15190TIP3    H267062   6.741   4.378  14.262 -1.3783  1.2672 -2.0930
15191TIP3   OH267063   1.186   2.240   4.366  0.1014  0.1191 -0.7039
15191TIP3    H167064   1.178   2.334   4.382  3.2965  0.3170  0.2661
15191TIP3    H267065   1.142   2.199   4.440  0.0138  0.8417 -0.3490
15192TIP3   OH267066   2.630   5.604   5.230  0.3514 -0.8300 -0.0693
15192TIP3    H167067   2.614   5.524   5.279  1.0840 -0.3471  1.0063
15192TIP3    H267068   2.724   5.604   5.214  0.6862  0.6786  1.5753
15193TIP3   OH267069   6.129   2.394  14.219 -0.0040 -0.3574 -0.4481
15193TIP3    H167070   6.067   2.347  14.275  0.9134  0.8721  1.6959
15193TIP3    H267071   6.119   2.352  14.133  0.2542 -3.9796  1.1056
15194TIP3   OH267072   5.455   2.838  11.787  0.3338  0.1158  0.0903
15194TIP3    H167073   5.520   2.780  11.825 -0.3283  0.9828  2.7735
15194TIP3    H267074   5.428   2.896  11.859 -1.7008  1.3237 -1.4922
15195TIP3   OH267075   6.317   4.073  12.760 -0.5029 -0.0836  0.3121
15195TIP3    H167076   6.276   4.160  12.767 -0.9149 -0.2132 -0.4425
15195TIP3    H267077   6.399   4.082  12.810 -0.5767  0.7162  0.3071
15196TIP3   OH267078   3.702   1.628  14.453 -0.0547  0.2436 -0.2096
15196TIP3    H167079   3.645   1.645  14.528 -1.1089  0.9090 -1.1223
15196TIP3    H267080   3.774   1.691  14.463 -0.1937  0.3328  0.2326
15197TIP3   OH267081   6.054   5.629  16.675  0.6581 -0.5152  0.1645
15197TIP3    H167082   6.067   5.644  16.768  0.3536 -2.1051  0.5007
15197TIP3    H267083   5.975   5.678  16.653  1.7337  1.3502  0.2955
15198TIP3   OH267084   3.407   3.978   2.611  0.0140  0.6050 -0.1043
15198TIP3    H167085   3.443   4.059   2.646 -0.0364 -0.4101  2.5019
15198TIP3    H267086   3.432   3.910   2.674 -0.7246 -1.2694 -1.7032
15199TIP3   OH267087   1.538   3.266  14.262 -0.4698  0.5684  0.5756
15199TIP3    H167088   1.526   3.350  14.219 -1.6292 -0.5009 -1.3259
15199TIP3    H267089   1.576   3.209  14.195 -0.4697 -0.6332  1.5523
15200TIP3   OH267090   4.389   5.868  16.203 -0.4100  0.2800  0.4115
15200TIP3    H167091   4.443   5.946  16.190  0.6035 -0.5272 -0.4043
15200TIP3    H267092   4.451   5.795  16.202 -1.6087 -0.8448 -2.3046
15201TIP3   OH267093   1.194   0.869  12.965  0.5021  0.0998 -0.2352
15201TIP3    H167094   1.153   0.946  12.926  1.9495  0.7432 -0.5394
15201TIP3    H267095   1.120   0.811  12.986 -0.7449  2.0577  1.1532
15202TIP3   OH267096   3.359   5.779   1.024 -0.0139 -0.3943 -0.1796
15202TIP3    H167097   3.399   5.720   0.961  0.0605 -1.1348  0.5442
15202TIP3    H267098   3.266   5.755   1.024  0.2665 -1.6467  1.2782
15203TIP3   OH267099   2.694   0.498   1.622  0.1386  0.5836  0.4997
15203TIP3    H167100   2.688   0.453   1.706  0.1622  1.6203  1.0623
15203TIP3    H267101   2.681   0.428   1.557  0.4331 -0.2819  1.3414
15204TIP3   OH267102   0.840   2.762  10.809  0.5477 -0.4607 -0.3235
15204TIP3    H167103   0.860   2.853  10.829 -0.7412  0.0633 -1.2982
15204TIP3    H267104   0.823   2.760  10.715 -1.7431 -1.2084  0.0227
15205TIP3   OH267105   0.384   2.754   4.202  0.5186  0.9633 -0.2560
15205TIP3    H167106   0.426   2.816   4.261 -0.2977  0.4172  0.9491
15205TIP3    H267107   0.291   2.777   4.206  0.1932 -0.3080  0.2330
15206TIP3   OH267108   6.335   0.457  11.895  0.1769  0.5650  0.1382
15206TIP3    H167109   6.370   0.484  11.810 -0.6099  0.3073 -0.2728
15206TIP3    H267110   6.404   0.403  11.934  0.6004  0.8105 -0.2677
15207TIP3   OH267111   0.701   0.061   3.754  0.1723 -0.4774  0.1344
15207TIP3    H167112   0.646  -0.013   3.780  0.8358 -0.8730  0.4229
15207TIP3    H267113   0.787   0.023   3.736  0.8598  0.3688  1.4262
15208TIP3   OH267114   2.269   1.555  14.778  0.0639 -0.2453  0.4310
15208TIP3    H167115   2.325   1.584  14.707 -0.3700  1.9898  0.9286
15208TIP3    H267116   2.329   1.540  14.851  0.4464 -2.0244 -0.2110
15209TIP3   OH267117   5.625   5.314   6.041  0.1438  0.5355  0.0266
15209TIP3    H167118   5.554   5.285   5.984  1.3706 -1.6149 -0.5061
15209TIP3    H267119   5.660   5.392   5.998 -2.0195  1.8175  0.4554
15210TIP3   OH267120   1.824   3.376  14.100 -0.3034  0.3961 -0.2422
15210TIP3    H167121   1.780   3.374  14.015 -0.8010  0.4940  0.0053
15210TIP3    H267122   1.844   3.284  14.120 -3.4839 -0.1171  1.1887
15211TIP3   OH267123   0.937   2.428   3.917  0.1749  0.1334  0.7003
15211TIP3    H167124   0.889   2.506   3.945  0.2494  0.7513 -0.8197
15211TIP3    H267125   0.870   2.373   3.876  0.4286  0.1792  0.2195
15212TIP3   OH267126   4.432   5.301   6.860 -0.6868  0.0124  0.2283
15212TIP3    H167127   4.356   5.302   6.802  0.4090  0.5891 -1.2519
15212TIP3    H267128   4.495   5.245   6.815 -0.5002 -1.1275  1.8336
15213TIP3   OH267129   5.528   6.780  12.190  0.7177 -0.3694 -0.1144
15213TIP3    H167130   5.525   6.720  12.265 -1.0704 -1.3251 -0.8882
15213TIP3    H267131   5.619   6.778  12.161  1.4153 -0.1048  1.8904
15214TIP3   OH267132   4.048   3.545  13.147 -0.1899 -0.4854 -0.3177
15214TIP3    H167133   4.072   3.576  13.235 -1.5642 -1.0545  0.3024
15214TIP3    H267134   4.093   3.604  13.087  1.1966 -0.4000  0.7540
15215TIP3   OH267135   4.077   2.587  14.679  0.2668  0.7837  0.2109
15215TIP3    H167136   4.132   2.636  14.618 -0.8570 -0.3542 -1.8290
15215TIP3    H267137   3.987   2.600  14.646 -0.5970  1.5036  2.6545
15216TIP3   OH267138   5.321   1.917   0.804 -0.1764 -0.1739 -0.2519
15216TIP3    H167139   5.382   1.849   0.776 -0.6048 -1.0551  0.9135
15216TIP3    H267140   5.375   1.995   0.816  0.7054 -0.9092  0.6403
15217TIP3   OH267141   6.052   5.125   4.652  0.0887  0.1215  0.2689
15217TIP3    H167142   6.050   5.030   4.642  1.2743 -0.0129  1.0453
15217TIP3    H267143   6.106   5.156   4.579 -1.7959  0.4173 -1.0770
15218TIP3   OH267144   1.971   6.103   5.308  0.4179 -0.3236  0.4091
15218TIP3    H167145   1.960   6.122   5.215 -2.4532 -0.9965  0.5177
15218TIP3    H267146   2.026   6.175   5.340 -2.5615  2.8637 -0.9191
15219TIP3   OH267147   2.010   1.265  11.260 -0.4125 -0.1157 -0.3145
15219TIP3    H167148   2.019   1.232  11.171  1.0046  0.9297 -0.5917
15219TIP3    H267149   1.964   1.348  11.251 -1.1753 -0.4870  0.0524
15220TIP3   OH267150   0.978   0.354   5.821  0.3627 -0.2990 -0.4772
15220TIP3    H167151   0.982   0.355   5.917  1.7374 -0.1456 -0.5187
15220TIP3    H267152   0.891   0.319   5.801  0.8527 -2.4407  0.8245
15221TIP3   OH267153   1.966   3.847   5.063 -0.1338 -0.5216 -0.0814
15221TIP3    H167154   1.880   3.827   5.025 -0.4981 -1.9586  1.3884
15221TIP3    H267155   2.001   3.761   5.089  1.3008  0.1466  0.2854
15222TIP3   OH267156   2.043   1.767   5.463  0.5361 -0.0671 -0.1791
15222TIP3    H167157   1.987   1.841   5.487 -0.1222 -1.2311  2.1619
15222TIP3    H267158   2.121   1.778   5.518  0.5998 -0.9045 -0.0929
15223TIP3   OH267159   2.403   1.600  13.350 -0.0303  0.0151  0.1828
15223TIP3    H167160   2.456   1.616  13.272 -0.7304  0.8665 -0.1331
15223TIP3    H267161   2.467   1.577  13.418  0.5080 -1.8901 -0.9015
15224TIP3   OH267162   2.566   0.462  17.169  0.6722  0.0429  0.0922
15224TIP3    H167163   2.479   0.496  17.193  1.1137  2.8195 -1.7366
15224TIP3    H267164   2.624   0.537  17.182  2.5504 -1.3015 -0.2058
15225TIP3   OH267165   5.280   3.212   0.259  0.2704 -0.1129  0.5481
15225TIP3    H167166   5.238   3.193   0.175 -0.1018 -0.3090  0.7798
15225TIP3    H267167   5.368   3.243   0.235  0.3210 -0.5873  0.1072
15226TIP3   OH267168   3.839   2.702  14.618  0.4428 -0.1984  0.6111
15226TIP3    H167169   3.852   2.771  14.683 -1.2640 -0.9545  1.8210
15226TIP3    H267170   3.809   2.626  14.668 -1.9680 -0.5057 -1.1004
15227TIP3   OH267171   4.121   0.137   2.381 -0.0834 -0.4610 -0.2411
15227TIP3    H167172   4.115   0.068   2.314  3.3759 -0.0267 -1.2166
15227TIP3    H267173   4.103   0.093   2.463  2.0348 -2.6113 -0.8384
15228TIP3   OH267174   0.680   6.079   6.203  0.3626 -0.0238 -0.0155
15228TIP3    H167175   0.716   6.159   6.242  2.7142 -1.2249  0.4451
15228TIP3    H267176   0.731   6.066   6.123 -0.2280 -0.8898 -0.2678
15229TIP3   OH267177   5.589   0.917   1.899  0.6652 -0.2695  0.7460
15229TIP3    H167178   5.550   0.830   1.904  0.3745 -0.5815 -3.4917
15229TIP3    H267179   5.518   0.973   1.867  1.6878  0.7867  0.2414
15230TIP3   OH267180   2.217   6.079   5.829  0.1640  0.5425  0.4228
15230TIP3    H167181   2.217   5.988   5.800 -2.7131  0.7271 -0.5055
15230TIP3    H267182   2.307   6.095   5.860  0.6107 -2.7087  1.1274
15231TIP3   OH267183   6.468   5.953  11.800 -0.0986  0.1966 -0.9199
15231TIP3    H167184   6.408   5.914  11.736 -0.0176  1.5894 -1.8789
15231TIP3    H267185   6.551   5.962  11.752  0.6903 -1.0338  0.1667
15232TIP3   OH267186   1.684   3.590   1.494 -0.8558  0.0920 -0.2893
15232TIP3    H167187   1.775   3.560   1.496 -0.7025  0.5637 -0.1968
15232TIP3    H267188   1.666   3.617   1.584 -1.4767 -1.1511 -0.0111
15233TIP3   OH267189   2.522   5.416  15.736 -0.0874 -0.1313 -0.3609
15233TIP3    H167190   2.437   5.457  15.720  0.5822  0.8744 -1.4377
15233TIP3    H267191   2.502   5.322  15.746 -1.2076 -0.0377 -1.5346
15234TIP3   OH267192   1.669   1.776  11.509 -0.0521 -0.6635  0.0182
15234TIP3    H167193   1.699   1.701  11.562  1.0220 -0.7571 -0.6786
15234TIP3    H267194   1.718   1.768  11.427  1.3786  1.7158  0.5316
15235TIP3   OH267195   1.838   5.997  15.116 -0.1664 -0.8155  0.2970
15235TIP3    H167196   1.765   6.058  15.134  1.2099  0.6392  1.2524
15235TIP3    H267197   1.799   5.929  15.061 -2.1030  0.2376  0.2565
15236TIP3   OH267198   0.865   3.156   5.873 -0.2782  0.0276  0.0903
15236TIP3    H167199   0.832   3.244   5.859 -1.8619 -0.5844 -0.1809
15236TIP3    H267200   0.833   3.132   5.960  2.3443  0.6352  1.3415
15237TIP3   OH267201   1.828   2.657  15.297  0.2989  0.4862  0.4147
15237TIP3    H167202   1.747   2.680  15.341  0.6178  0.4192  1.0496
15237TIP3    H267203   1.895   2.711  15.339  0.6035  0.4541 -0.0182
15238TIP3   OH267204   0.610   0.713   5.112 -0.2042 -0.0553  0.5543
15238TIP3    H167205   0.674   0.777   5.082 -0.5529  0.6092  1.1900
15238TIP3    H267206   0.647   0.628   5.088  0.1014  0.3929 -0.6221
15239TIP3   OH267207   1.185   5.720  11.670  0.5156  0.4326 -0.7068
15239TIP3    H167208   1.236   5.750  11.595 -0.8820 -0.1148 -1.9180
15239TIP3    H267209   1.102   5.691  11.633  0.1078 -0.6740  0.9563
15240TIP3   OH267210   5.798   3.486   4.563  0.3117  0.3171 -0.3551
15240TIP3    H167211   5.870   3.531   4.519 -0.9999  2.0372 -0.8516
15240TIP3    H267212   5.807   3.394   4.536  2.4369  0.4265 -0.1924
15241TIP3   OH267213   1.579   5.112  14.306 -0.3054  0.5467  0.1785
15241TIP3    H167214   1.599   5.201  14.336 -0.5359 -0.0938  2.4184
15241TIP3    H267215   1.496   5.091  14.349 -0.5717 -0.5367 -0.8323
15242TIP3   OH267216   2.056   5.727   5.767  0.0296  0.8458  0.2989
15242TIP3    H167217   2.134   5.782   5.759 -0.1171  1.3952  2.0955
15242TIP3    H267218   2.088   5.645   5.804  0.0548  0.1857 -1.1304
15243TIP3   OH267219   1.303   6.516   0.013 -0.2269  0.4754  1.0896
15243TIP3    H167220   1.368   6.579   0.043  1.2617 -1.2858  1.7582
15243TIP3    H267221   1.324   6.502  -0.079 -0.3020  0.6477  1.0457
15244TIP3   OH267222   1.017   2.849  13.129  0.4992  0.2876  0.0682
15244TIP3    H167223   0.923   2.832  13.127  0.6994 -1.2936  1.5599
15244TIP3    H267224   1.044   2.845  13.037 -0.9679  1.3703 -0.4328
15245TIP3   OH267225   6.590   5.122  15.815  1.0494  0.5545  0.1641
15245TIP3    H167226   6.605   5.029  15.835  0.6358  0.1327 -1.3426
15245TIP3    H267227   6.566   5.161  15.899 -2.9787 -1.5771  0.2482
15246TIP3   OH267228   6.795   2.211  13.786 -0.4974 -0.0233 -0.2800
15246TIP3    H167229   6.830   2.181  13.702 -0.6288 -0.3424 -0.2214
15246TIP3    H267230   6.779   2.304  13.773  0.2195  0.0970 -0.3615
15247TIP3   OH267231   5.652   3.523  11.276 -0.3050 -0.4027  0.5195
15247TIP3    H167232   5.686   3.455  11.218 -0.5294 -0.7527  0.7944
15247TIP3    H267233   5.725   3.543  11.334  1.1372  2.4103 -2.0003
15248TIP3   OH267234   6.697   6.725  14.122 -0.1402 -0.1195 -0.0705
15248TIP3    H167235   6.642   6.776  14.181  0.3415 -0.2268  0.4769
15248TIP3    H267236   6.772   6.698  14.175 -1.7116 -3.8551  0.5694
15249TIP3   OH267237   0.275   2.589  11.761 -0.2089  0.4102  0.5725
15249TIP3    H167238   0.260   2.519  11.825  2.4715 -0.5560  0.2446
15249TIP3    H267239   0.270   2.670  11.812 -0.0879 -0.2190  1.6058
15250TIP3   OH267240   0.184   3.137  14.737 -0.4797  0.2788  0.1929
15250TIP3    H167241   0.210   3.228  14.724 -0.8755  0.0951 -2.3796
15250TIP3    H267242   0.267   3.090  14.749 -0.2686  0.9091  1.3915
15251TIP3   OH267243   1.163   3.897  14.493  0.0279  0.8128  0.4578
15251TIP3    H167244   1.210   3.827  14.448 -0.7615  1.3700 -1.3357
15251TIP3    H267245   1.183   3.976  14.442  1.5091  2.1118  2.8516
15252TIP3   OH267246   6.402   0.467   3.186 -0.1468 -0.0636  0.2134
15252TIP3    H167247   6.432   0.550   3.148 -0.3758  1.0330  2.3140
15252TIP3    H267248   6.477   0.435   3.237 -0.2775 -0.8695 -0.0707
15253TIP3   OH267249   3.426   5.978   6.405  0.2073 -0.2332  0.2440
15253TIP3    H167250   3.477   5.898   6.396  2.1438  0.8485  0.9507
15253TIP3    H267251   3.337   5.948   6.425  0.9181 -2.1906  0.7169
15254TIP3   OH267252   5.282   2.651   4.220 -0.2576 -0.2098  0.2127
15254TIP3    H167253   5.259   2.710   4.149  0.1655  0.1492  0.3723
15254TIP3    H267254   5.368   2.680   4.249  0.0852 -1.0889  0.1008
15255TIP3   OH267255   2.111   0.676  13.681 -0.6998 -0.1413  0.0473
15255TIP3    H167256   2.187   0.733  13.667 -0.7705 -0.4894 -2.1707
15255TIP3    H267257   2.041   0.734  13.708  0.1176  0.2951  1.3267
15256TIP3   OH267258   4.574   2.654   1.242 -0.4478  0.1474  0.6939
15256TIP3    H167259   4.630   2.580   1.218 -1.8918 -1.4332  1.9858
15256TIP3    H267260   4.569   2.650   1.338  0.6787  2.8964  0.9615
15257TIP3   OH267261   6.344   4.082   0.862 -0.1765 -0.6414  0.3191
15257TIP3    H167262   6.346   4.161   0.809  2.0303 -0.9330 -0.1426
15257TIP3    H267263   6.307   4.110   0.946 -1.6975  0.2998 -0.6325
15258TIP3   OH267264   4.037   6.269  13.670  0.2655 -0.2154  0.3104
15258TIP3    H167265   3.951   6.228  13.670 -0.8346  1.8138  2.8793
15258TIP3    H267266   4.095   6.204  13.709 -0.3284 -1.1936 -0.4152
15259TIP3   OH267267   1.263   3.768  17.263  0.1692  0.1596  0.2920
15259TIP3    H167268   1.273   3.812  17.348  1.5137 -0.7779  0.6485
15259TIP3    H267269   1.244   3.677  17.285 -1.4290  0.2816 -0.4455
15260TIP3   OH267270   4.678   0.946   1.154 -0.3350 -0.0881 -0.2561
15260TIP3    H167271   4.724   0.880   1.205 -0.7468 -0.7154 -0.6902
15260TIP3    H267272   4.748   0.988   1.103 -0.3674 -2.2104 -2.2373
15261TIP3   OH267273   4.076   5.643   5.280 -0.0683  0.0014  0.1385
15261TIP3    H167274   4.065   5.638   5.185  0.0004  0.1769  0.1217
15261TIP3    H267275   4.011   5.708   5.308  0.6458  0.7416  0.0892
15262TIP3   OH267276   6.186   2.928   1.296 -0.1903 -0.3005 -0.3687
15262TIP3    H167277   6.105   2.973   1.271 -1.7218 -2.9546 -0.5034
15262TIP3    H267278   6.230   2.911   1.213 -0.4004 -0.4548 -0.4493
15263TIP3   OH267279   5.168   0.195   5.856  0.0829  0.7879 -0.5225
15263TIP3    H167280   5.192   0.113   5.812 -0.2680 -0.7791  2.0118
15263TIP3    H267281   5.237   0.208   5.921  0.0991  2.5124 -0.8563
15264TIP3   OH267282   0.554   0.717   0.046  0.4287 -0.4474  0.1030
15264TIP3    H167283   0.479   0.778   0.040  1.5988  1.2005  1.2365
15264TIP3    H267284   0.535   0.649  -0.018 -1.5810  0.4362 -0.3159
15265TIP3   OH267285   5.464   3.063   2.806  0.6241  0.8018 -0.3518
15265TIP3    H167286   5.472   3.150   2.845  1.6765  0.1910  0.8650
15265TIP3    H267287   5.389   3.023   2.851  0.4469  0.9015 -0.5584
15266TIP3   OH267288   1.130   0.880   2.569 -0.4292 -0.8361 -0.1698
15266TIP3    H167289   1.038   0.901   2.553 -0.3408 -0.5360 -0.2862
15266TIP3    H267290   1.163   0.848   2.485 -0.3644 -0.7132 -0.1916
15267TIP3   OH267291   2.992   4.871   2.754  0.1246  0.8898  0.0513
15267TIP3    H167292   3.031   4.794   2.712  1.2963  0.9219  1.0191
15267TIP3    H267293   2.903   4.874   2.720  1.5443  2.2123 -4.1350
15268TIP3   OH267294   5.239   6.429   3.549  0.5404  0.0223 -0.3857
15268TIP3    H167295   5.211   6.408   3.638  0.4480 -0.7628 -0.5961
15268TIP3    H267296   5.315   6.486   3.561 -0.4940  1.3547  0.1887
15269TIP3   OH267297   1.451   5.533  11.597 -0.3227 -0.1893 -0.4099
15269TIP3    H167298   1.528   5.501  11.550 -0.7409 -0.8116 -0.6742
15269TIP3    H267299   1.430   5.617  11.554 -0.7130 -0.7580 -1.3546
15270TIP3   OH267300   2.630   5.642   4.302 -0.5710  0.5132 -0.1178
15270TIP3    H167301   2.598   5.639   4.212  1.7745 -1.0628 -1.0135
15270TIP3    H267302   2.710   5.696   4.297  0.8827 -1.4612  0.4573
15271TIP3   OH267303   5.392   4.145   3.563  0.4367  0.3441 -0.4589
15271TIP3    H167304   5.405   4.057   3.597 -1.1856  0.2961  0.1129
15271TIP3    H267305   5.416   4.203   3.635 -0.3307  0.3088 -0.1664
15272TIP3   OH267306   4.346   1.488   3.149  0.0251 -0.1883  0.8256
15272TIP3    H167307   4.396   1.528   3.078 -1.7031  1.0819  0.2456
15272TIP3    H267308   4.405   1.422   3.185  2.3928  1.6298  0.6319
15273TIP3   OH267309   0.499   3.063  11.129 -0.5793  0.7172  0.0630
15273TIP3    H167310   0.457   3.006  11.064  0.9525  0.3877 -0.6930
15273TIP3    H267311   0.466   3.032  11.213  1.0992 -2.1970 -0.2049
15274TIP3   OH267312   5.874   0.267  12.304  0.0656  0.1212 -0.3573
15274TIP3    H167313   5.920   0.190  12.270 -0.9714 -0.0560 -1.4291
15274TIP3    H267314   5.930   0.299  12.375  1.2102 -0.7921 -0.8140
15275TIP3   OH267315   1.524   1.262   0.276  0.2062  0.3493  0.1339
15275TIP3    H167316   1.478   1.188   0.314 -3.1096  1.5756 -1.1252
15275TIP3    H267317   1.474   1.284   0.197  1.5344  3.3704 -0.0283
15276TIP3   OH267318   5.346   4.414   3.274  0.3842  0.1272 -0.1196
15276TIP3    H167319   5.262   4.377   3.302 -0.7203 -0.4608 -3.6968
15276TIP3    H267320   5.411   4.350   3.302 -0.3531  0.2977  2.2011
15277TIP3   OH267321   5.682   0.393  15.191  0.2544 -0.2110 -0.2618
15277TIP3    H167322   5.706   0.303  15.171 -0.2807 -0.2009 -1.0098
15277TIP3    H267323   5.750   0.446  15.151  1.2334 -0.3074  1.2207
15278TIP3   OH267324   4.651   5.415   6.221  0.0804 -0.3047 -0.5713
15278TIP3    H167325   4.680   5.507   6.222 -0.0166 -0.2755  0.6437
15278TIP3    H267326   4.556   5.420   6.233  0.3028 -0.6141  1.6727
15279TIP3   OH267327   3.123   6.086  16.429 -0.1865 -0.1266  0.1616
15279TIP3    H167328   3.154   6.009  16.382  2.3437  2.0860 -2.1224
15279TIP3    H267329   3.030   6.091  16.408  0.2299 -0.9354 -2.1955
15280TIP3   OH267330   5.887   4.837   4.117 -0.4142 -0.5837  0.4030
15280TIP3    H167331   5.938   4.756   4.123 -0.5883 -0.6352  1.2211
15280TIP3    H267332   5.886   4.857   4.023  1.2588 -0.4868  0.3796
15281TIP3   OH267333   3.571   0.613  16.896 -0.0902 -0.2662 -0.0880
15281TIP3    H167334   3.629   0.562  16.953  2.3393 -0.3935 -2.4570
15281TIP3    H267335   3.551   0.554  16.823 -1.8268  0.3813 -0.1685
15282TIP3   OH267336   3.186   3.435  14.228 -0.0412  0.3910 -0.0585
15282TIP3    H167337   3.171   3.520  14.185 -0.4747  0.7920  0.8661
15282TIP3    H267338   3.217   3.458  14.315 -1.9050 -0.3688  0.8365
15283TIP3   OH267339   4.587   1.974  15.420  0.0560 -0.0624 -0.1315
15283TIP3    H167340   4.582   1.892  15.372 -0.8205  1.0761 -2.0757
15283TIP3    H267341   4.645   2.029  15.367 -2.0362  1.7051 -0.6979
15284TIP3   OH267342   2.590   4.614   0.106 -0.2190  0.0401  0.1023
15284TIP3    H167343   2.559   4.674   0.039  0.6038  0.7755  0.3670
15284TIP3    H267344   2.532   4.630   0.181 -0.3246  0.1369  0.0003
15285TIP3   OH267345   3.063   1.413  10.604 -0.1763 -0.6408  0.5274
15285TIP3    H167346   2.971   1.420  10.632 -0.6209 -2.3024 -0.3149
15285TIP3    H267347   3.083   1.319  10.613  1.2861 -0.3807  0.2356
15286TIP3   OH267348   4.667   5.674  13.152 -0.2533 -0.4397 -0.6059
15286TIP3    H167349   4.667   5.586  13.189  0.1426 -0.1541  0.0913
15286TIP3    H267350   4.575   5.699  13.148 -0.3885 -0.9916 -1.0828
15287TIP3   OH267351   1.049   4.228   2.425 -0.0894  0.2714 -0.5067
15287TIP3    H167352   1.068   4.286   2.351  2.6897 -0.7658 -0.7612
15287TIP3    H267353   1.043   4.141   2.385 -0.6874 -0.0455  0.2603
15288TIP3   OH267354   0.975   0.578   2.682 -0.2260  0.0983 -0.9522
15288TIP3    H167355   0.952   0.509   2.621  0.2651 -2.4066  1.5025
15288TIP3    H267356   0.892   0.614   2.711 -0.4918  0.4060 -2.0453
15289TIP3   OH267357   4.120   5.956   4.489  0.0743  0.5915  0.4967
15289TIP3    H167358   4.107   5.916   4.575  2.1350  1.0580  1.0874
15289TIP3    H267359   4.117   5.883   4.427  0.5874 -0.0305  1.1959
15290TIP3   OH267360   3.862   6.294   0.503 -0.4003  0.6027 -0.1332
15290TIP3    H167361   3.802   6.221   0.516  0.9603 -0.5813 -0.2600
15290TIP3    H267362   3.840   6.328   0.417 -1.4952  0.8034  0.2061
15291TIP3   OH267363   2.120   1.129   5.031  0.3147  0.2593  0.1731
15291TIP3    H167364   2.172   1.055   5.061 -0.5348  0.2581  1.7728
15291TIP3    H267365   2.061   1.148   5.104  2.2341  4.1878  0.9459
15292TIP3   OH267366   0.361   2.151  14.483  0.0583 -0.1389  0.1818
15292TIP3    H167367   0.457   2.152  14.492  0.0607  0.0869  0.1458
15292TIP3    H267368   0.331   2.217  14.546 -0.0124  0.4741 -0.4795
15293TIP3   OH267369   0.604   3.517  14.260 -0.4288 -0.2087 -0.2741
15293TIP3    H167370   0.557   3.445  14.220 -2.4181  1.0908 -0.4304
15293TIP3    H267371   0.689   3.480  14.285 -0.7577 -2.1404 -1.7898
15294TIP3   OH267372   4.873   5.091  11.783 -0.3986 -0.0400 -0.1282
15294TIP3    H167373   4.811   5.063  11.851 -2.2860 -0.7827 -2.0406
15294TIP3    H267374   4.832   5.167  11.743  0.8094  0.5428 -0.2995
15295TIP3   OH267375   4.825   3.434   5.412  0.1389 -0.3773 -0.2991
15295TIP3    H167376   4.787   3.390   5.335 -1.0070 -0.3822  0.2439
15295TIP3    H267377   4.918   3.412   5.408  0.3987  0.7912 -2.4698
15296TIP3   OH267378   1.011   1.796   2.059  0.6407  0.3964  0.1339
15296TIP3    H167379   0.982   1.821   1.972  2.1269  1.5677 -0.0597
15296TIP3    H267380   0.983   1.705   2.069 -2.1027  1.1006 -0.4024
15297TIP3   OH267381   4.098   5.922   0.861  0.1554 -0.5545 -0.7098
15297TIP3    H167382   4.036   5.988   0.830  0.2470 -0.2730 -0.3158
15297TIP3    H267383   4.170   5.924   0.798  2.7227  3.4434  1.8169
15298TIP3   OH267384   4.916   6.473  16.129  0.7514 -0.2382 -0.5458
15298TIP3    H167385   4.863   6.474  16.209  0.3441  0.0362 -0.8142
15298TIP3    H267386   4.998   6.431  16.155  1.2965  1.3394  0.4491
15299TIP3   OH267387   2.969   5.229   3.008 -0.0120  0.1874 -0.4867
15299TIP3    H167388   2.900   5.165   2.990 -0.5700  0.6120  0.1092
15299TIP3    H267389   2.928   5.294   3.065  0.8342  0.5351 -0.2532
15300TIP3   OH267390   0.434   4.193  17.260  0.1455  0.6751 -0.3962
15300TIP3    H167391   0.433   4.098  17.248 -0.5375  0.4156  1.3884
15300TIP3    H267392   0.486   4.226  17.187  1.1053 -1.1318 -0.5863
15301TIP3   OH267393   0.961   3.788   0.129  0.1515 -0.2212 -0.6768
15301TIP3    H167394   0.975   3.868   0.179 -1.5940 -0.0975 -0.2959
15301TIP3    H267395   0.922   3.817   0.047  0.7156 -0.5988 -1.0863
15302TIP3   OH267396   0.623   0.826   0.504 -0.0542 -0.8340  0.1042
15302TIP3    H167397   0.554   0.876   0.458 -0.6006 -0.3691  1.3830
15302TIP3    H267398   0.628   0.867   0.590  1.0491 -1.6036  0.4179
15303TIP3   OH267399   6.309   4.032  13.932 -0.6189  0.0465  0.1316
15303TIP3    H167400   6.347   3.967  13.873 -0.0686  0.3927  0.0904
15303TIP3    H267401   6.377   4.099  13.940 -0.4181 -0.2991  1.6476
15304TIP3   OH267402   3.858   3.119   0.730  0.1412  0.3056  0.0230
15304TIP3    H167403   3.824   3.209   0.733 -0.6683 -0.0054  1.0623
15304TIP3    H267404   3.950   3.129   0.708 -0.0988  1.3440 -0.5915
15305TIP3   OH267405   3.913   4.668  14.556 -0.3435  0.4544  0.1495
15305TIP3    H167406   3.928   4.585  14.600 -0.9984  0.7835  1.0224
15305TIP3    H267407   3.819   4.680  14.558 -0.6333 -0.3850 -3.0195
15306TIP3   OH267408   4.003   0.047   2.634  1.1211 -0.2976 -0.4572
15306TIP3    H167409   3.980   0.135   2.663 -0.3268 -0.6481 -0.4691
15306TIP3    H267410   4.009  -0.004   2.714  3.0871  0.0174 -0.3506
15307TIP3   OH267411   2.940   1.925  14.152  0.1003 -0.4590 -0.5420
15307TIP3    H167412   2.964   1.871  14.227 -0.8727 -0.4236 -0.1878
15307TIP3    H267413   2.881   1.991  14.188  0.2021  0.0070 -1.2134
15308TIP3   OH267414   2.410   3.231   5.409 -0.1640  0.1709  0.1853
15308TIP3    H167415   2.454   3.160   5.456  0.2050  0.3866  0.1654
15308TIP3    H267416   2.451   3.232   5.323 -0.7956 -0.1832 -0.1352
15309TIP3   OH267417   5.470   5.843  16.759 -0.0266 -0.1562  0.1835
15309TIP3    H167418   5.474   5.749  16.744  1.0624 -0.2016  0.6848
15309TIP3    H267419   5.481   5.853  16.854 -0.9484  0.4362  0.2441
15310TIP3   OH267420   0.261   2.458  14.389 -0.2068 -0.6062  0.2600
15310TIP3    H167421   0.232   2.501  14.309  0.8973 -0.0501  0.1344
15310TIP3    H267422   0.182   2.418  14.425 -1.2759  1.3339  0.2480
15311TIP3   OH267423   2.789   2.176   5.650  0.1304  0.1923 -0.1347
15311TIP3    H167424   2.852   2.184   5.578 -0.0368  2.9553 -0.0882
15311TIP3    H267425   2.843   2.157   5.727  0.9303  1.9509 -0.2041
15312TIP3   OH267426   1.986   6.521  16.772 -0.1736 -0.2524  0.0301
15312TIP3    H167427   1.984   6.616  16.786  1.1957 -0.5162  2.6395
15312TIP3    H267428   2.075   6.495  16.797 -0.5498 -2.2418 -0.5374
15313TIP3   OH267429   0.638   2.169  15.743 -0.4369 -0.0401  0.3387
15313TIP3    H167430   0.592   2.252  15.749  1.1876  0.8831  0.4451
15313TIP3    H267431   0.623   2.139  15.653 -2.4435 -0.5174  0.7920
15314TIP3   OH267432   3.537   2.469  14.961 -0.4193 -0.0988  0.1744
15314TIP3    H167433   3.540   2.388  15.012 -0.6589  0.0766  0.4746
15314TIP3    H267434   3.459   2.514  14.994 -0.0673  0.4335  0.2806
15315TIP3   OH267435   0.889   2.731   1.241  0.3901 -0.3366 -0.0476
15315TIP3    H167436   0.895   2.823   1.216  0.4804 -0.8128 -1.9897
15315TIP3    H267437   0.978   2.707   1.265  0.4182  0.0101  0.2080
15316TIP3   OH267438   0.611   3.278   1.790 -0.7798  0.5202  0.4700
15316TIP3    H167439   0.624   3.362   1.833  0.9091  0.1715  0.7210
15316TIP3    H267440   0.657   3.215   1.845 -1.0533 -0.3926 -0.3091
15317TIP3   OH267441   0.188   5.898  14.954  0.3141  0.4618  0.0355
15317TIP3    H167442   0.153   5.842  14.886  1.2650 -0.9431  0.6517
15317TIP3    H267443   0.246   5.841  15.005  1.2135  1.9708  0.7767
15318TIP3   OH267444   3.706   0.285   1.139 -0.0079  0.2781 -0.0454
15318TIP3    H167445   3.792   0.299   1.100 -0.6615  0.8450 -1.3618
15318TIP3    H267446   3.721   0.290   1.233  1.1143  2.2749 -0.2657
15319TIP3   OH267447   6.218   2.695   4.993 -0.0031 -0.4793  0.3785
15319TIP3    H167448   6.267   2.721   4.915  0.3949 -1.3972  0.3129
15319TIP3    H267449   6.129   2.680   4.961 -0.0075 -0.1706  0.2373
15320TIP3   OH267450   2.399   2.033   3.031  0.5132  0.4652  0.6589
15320TIP3    H167451   2.308   2.053   3.010  0.8322  0.3913 -0.8864
15320TIP3    H267452   2.450   2.082   2.966  1.5772  0.4293  1.4400
15321TIP3   OH267453   5.132   5.070  11.672 -0.4582  0.0816 -0.3804
15321TIP3    H167454   5.180   5.151  11.660  0.6816 -0.4171  0.5698
15321TIP3    H267455   5.049   5.096  11.712  0.4302  0.6901  1.1558
15322TIP3   OH267456   2.935   3.781  14.726 -0.1596  0.4671  0.8251
15322TIP3    H167457   2.854   3.734  14.744 -0.0223 -0.4079 -0.7163
15322TIP3    H267458   2.967   3.744  14.644  1.0382  1.8197  0.6391
15323TIP3   OH267459   1.095   5.422  15.582 -0.0800 -0.0060  0.8142
15323TIP3    H167460   1.178   5.410  15.628 -0.1366 -0.3813  0.8207
15323TIP3    H267461   1.060   5.333  15.572  0.0198  0.0570 -0.1335
15324TIP3   OH267462   5.775   1.735  12.360  0.1772  0.7249  0.1516
15324TIP3    H167463   5.751   1.760  12.271  0.4788  1.1561  0.1880
15324TIP3    H267464   5.795   1.642  12.354 -0.8927  0.4924  0.0001
15325TIP3   OH267465   1.723   1.027   2.852  0.2164  0.2258  0.0156
15325TIP3    H167466   1.796   1.074   2.891 -1.3956  2.8264  0.1655
15325TIP3    H267467   1.762   0.947   2.817  3.2144  1.6914 -0.3616
15326TIP3   OH267468   6.434   4.136  14.231 -0.2120 -0.5696 -0.2478
15326TIP3    H167469   6.400   4.058  14.189 -1.1953 -0.0255 -0.4935
15326TIP3    H267470   6.487   4.103  14.304 -0.1193 -1.4635 -0.7059
15327TIP3   OH267471   1.671   3.562  15.002 -0.2554 -0.3260  0.2374
15327TIP3    H167472   1.689   3.470  15.021  0.4061 -0.8151 -2.2932
15327TIP3    H267473   1.757   3.601  14.986 -0.6322  0.2988 -0.3279
15328TIP3   OH267474   1.125   1.122   4.337 -0.7590 -0.0770 -0.0166
15328TIP3    H167475   1.179   1.043   4.345  0.4106  0.5315 -1.4156
15328TIP3    H267476   1.036   1.091   4.353 -0.1068 -1.2224  1.8156
15329TIP3   OH267477   1.745   1.105  11.278  0.3090 -0.0245 -0.5311
15329TIP3    H167478   1.741   1.194  11.243  0.9119  0.7977  1.3671
15329TIP3    H267479   1.659   1.092  11.317  0.4461 -0.0178 -0.2268
15330TIP3   OH267480   1.118   6.431  14.531  0.0607 -0.9673  0.4186
15330TIP3    H167481   1.086   6.377  14.459  1.2573  0.0885 -0.9418
15330TIP3    H267482   1.071   6.514  14.522  0.6972 -0.5989  0.4593
15331TIP3   OH267483   2.586   5.865   5.138 -0.3246 -0.4437  0.3699
15331TIP3    H167484   2.647   5.895   5.070 -0.8392  1.0198  0.5043
15331TIP3    H267485   2.606   5.773   5.150  0.3303 -0.5367 -1.1948
15332TIP3   OH267486   2.020   5.051   6.056 -0.5247 -0.1143  0.0486
15332TIP3    H167487   2.080   4.994   6.008  0.3189  0.5877  0.2442
15332TIP3    H267488   1.957   4.991   6.096  1.1845 -1.0699  1.4390
15333TIP3   OH267489   0.188   1.867  10.974 -0.4104  0.0269  0.6734
15333TIP3    H167490   0.119   1.849  10.910 -0.4340  0.2729  0.6262
15333TIP3    H267491   0.196   1.786  11.024  0.3651 -0.5430 -0.3349
15334TIP3   OH267492   6.115   1.703  11.208  0.9632  0.2234 -0.5224
15334TIP3    H167493   6.069   1.620  11.220  1.0366  0.1135 -0.9857
15334TIP3    H267494   6.120   1.715  11.113  0.0553  1.2581 -0.4683
15335TIP3   OH267495   4.981   0.974  12.847  0.4077  0.6637  0.3964
15335TIP3    H167496   4.927   0.977  12.926  0.0421  0.3732  0.1636
15335TIP3    H267497   4.928   1.017  12.780 -1.1306 -2.6414 -0.7475
15336TIP3   OH267498   1.842   6.596   5.995 -0.5853 -0.1670 -0.1531
15336TIP3    H167499   1.810   6.582   6.084  0.2520  0.6022  0.2756
15336TIP3    H267500   1.932   6.625   6.006 -0.8495  1.1313 -1.1933
15337TIP3   OH267501   1.009   0.794  11.302  0.0690  0.3310  0.0158
15337TIP3    H167502   1.033   0.706  11.331  0.0019  0.2696 -0.1124
15337TIP3    H267503   0.998   0.786  11.207 -2.0432 -0.0432  0.2285
15338TIP3   OH267504   3.854   2.536   4.339  0.5643  0.5224  0.5371
15338TIP3    H167505   3.804   2.568   4.414  0.2901 -0.2795  0.7073
15338TIP3    H267506   3.789   2.528   4.269  0.3199 -1.0074  0.9021
15339TIP3   OH267507   3.033   5.971  12.935  0.2522  0.0442  0.6322
15339TIP3    H167508   3.088   5.948  13.010  1.2648 -1.7451 -0.5883
15339TIP3    H267509   2.987   5.890  12.913 -1.8090  1.1312  0.6901
15340TIP3   OH267510   5.143   4.790  12.977 -0.7947  0.4759 -0.0363
15340TIP3    H167511   5.064   4.738  12.964 -1.5457  1.9579 -1.9119
15340TIP3    H267512   5.116   4.861  13.036 -0.3636  0.0247  0.7264
15341TIP3   OH267513   1.237   6.493  11.709 -0.1466  0.7669  0.6936
15341TIP3    H167514   1.242   6.529  11.798  1.6383 -1.3159  1.5347
15341TIP3    H267515   1.163   6.433  11.711 -1.0551  1.8357  0.2739
15342TIP3   OH267516   0.020   2.814  11.237  0.4940  0.3524  0.1636
15342TIP3    H167517  -0.039   2.828  11.311 -0.2852  0.9488 -0.5524
15342TIP3    H267518   0.048   2.722  11.245 -0.5993  0.0359  0.4702
15343TIP3   OH267519   4.707   3.104  16.924  0.4528  0.4602 -0.3840
15343TIP3    H167520   4.736   3.150  17.002 -0.1290  0.6784 -0.2944
15343TIP3    H267521   4.703   3.171  16.856  1.7883  0.1211 -0.8395
15344TIP3   OH267522   3.174   6.139   4.460  0.4684 -0.3062 -0.5725
15344TIP3    H167523   3.093   6.166   4.503  0.1770 -1.3733 -0.4162
15344TIP3    H267524   3.177   6.044   4.473  0.6217 -0.6064 -2.4439
15345TIP3   OH267525   6.155   6.286   5.027 -0.4342 -0.0527 -0.4174
15345TIP3    H167526   6.097   6.211   5.043 -0.1907 -0.4050 -1.1728
15345TIP3    H267527   6.098   6.352   4.988 -0.5145 -0.0654 -0.3241
15346TIP3   OH267528   2.118   5.072   1.879  0.2789 -0.0155  0.2820
15346TIP3    H167529   2.038   5.034   1.917 -0.2120  0.8663  0.1529
15346TIP3    H267530   2.114   5.165   1.902  1.6467 -0.0963  0.8955
15347TIP3   OH267531   5.461   5.824  13.662 -0.4946 -0.3351  0.0757
15347TIP3    H167532   5.553   5.799  13.661 -0.2189  0.6820 -0.5009
15347TIP3    H267533   5.432   5.811  13.572 -0.7272  0.0339  0.0957
15348TIP3   OH267534   1.103   2.201  11.854  0.2225  0.2245  0.3642
15348TIP3    H167535   1.182   2.202  11.908  0.7349 -0.7843 -0.3222
15348TIP3    H267536   1.134   2.178  11.767 -0.4266  2.9903 -0.6932
15349TIP3   OH267537   6.354   6.449  15.858  0.1899 -0.5983 -0.4663
15349TIP3    H167538   6.389   6.538  15.851  2.0131 -1.0693  1.4889
15349TIP3    H267539   6.426   6.393  15.830 -0.5571 -1.5098 -0.6155
15350TIP3   OH267540   2.467   0.248  11.507 -0.4041 -0.1681  0.6575
15350TIP3    H167541   2.487   0.306  11.433 -1.5903  0.4150  0.7865
15350TIP3    H267542   2.502   0.294  11.583  1.0812 -0.9016  0.4687
15351TIP3   OH267543   3.749   1.490   6.503  0.1229  0.2163  0.3574
15351TIP3    H167544   3.833   1.474   6.545 -0.6027 -0.4223  1.6205
15351TIP3    H267545   3.715   1.568   6.546 -1.0596 -0.9915  1.7255
15352TIP3   OH267546   2.081   5.263  12.631 -0.2109  0.3164  0.3286
15352TIP3    H167547   2.014   5.296  12.690  1.7339 -0.9939  3.5424
15352TIP3    H267548   2.145   5.334  12.624 -0.3108  0.3755 -0.0093
15353TIP3   OH267549   3.086   1.607   4.868  0.0991  0.1220  0.1455
15353TIP3    H167550   3.017   1.667   4.895 -0.2896 -1.3597  2.8312
15353TIP3    H267551   3.042   1.541   4.815  0.1166  0.9176 -0.8965
15354TIP3   OH267552   3.047   6.719   5.301 -0.4805 -0.5405 -0.1491
15354TIP3    H167553   3.075   6.677   5.220  0.7320 -0.8669  0.4235
15354TIP3    H267554   3.039   6.648   5.365 -0.0157 -0.1153  0.3957
15355TIP3   OH267555   5.608   3.594  10.646  0.3999 -0.0526  0.5557
15355TIP3    H167556   5.675   3.526  10.642 -1.3645 -1.8961  0.8647
15355TIP3    H267557   5.656   3.676  10.635  2.4438 -1.4064 -1.5850
15356TIP3   OH267558   0.541   5.832  14.906  0.3025  0.1805  0.0478
15356TIP3    H167559   0.538   5.764  14.839  0.8875  1.1902 -1.0605
15356TIP3    H267560   0.487   5.799  14.977  0.3038 -1.2788 -0.5944
15357TIP3   OH267561   5.718   1.159  15.641 -0.7197  0.1808 -0.0362
15357TIP3    H167562   5.804   1.149  15.681 -0.7118 -0.0132 -0.0984
15357TIP3    H267563   5.734   1.150  15.547 -0.8505 -0.1885 -0.0280
15358TIP3   OH267564   0.891   6.589  15.426 -0.7835 -0.5488  0.2702
15358TIP3    H167565   0.959   6.636  15.473  0.3959 -1.8709 -0.0583
15358TIP3    H267566   0.900   6.618  15.335 -3.2264  2.2034  0.7246
15359TIP3   OH267567   4.586   5.380  14.593  0.2962  0.3942 -0.2187
15359TIP3    H167568   4.654   5.443  14.569  0.6269 -0.4225 -1.4989
15359TIP3    H267569   4.628   5.325  14.660  0.9413 -0.1269 -1.0241
15360TIP3   OH267570   5.905   1.974   4.027  0.2042 -0.1393  0.2028
15360TIP3    H167571   5.900   2.051   3.970  1.0477  0.8285  1.3970
15360TIP3    H267572   5.816   1.938   4.026 -0.0277  0.4132 -0.9407
15361TIP3   OH267573   2.430   0.604   0.711  0.5006  0.0157 -0.9328
15361TIP3    H167574   2.408   0.685   0.757  0.7356 -1.5024  2.0958
15361TIP3    H267575   2.379   0.607   0.631 -3.3419  1.0081  1.3294
15362TIP3   OH267576   4.072   2.260   3.823  0.2908 -0.0304  0.3970
15362TIP3    H167577   4.094   2.335   3.767 -1.5041  0.0546 -0.2650
15362TIP3    H267578   4.059   2.299   3.910  0.5304  0.2538  0.3058
15363TIP3   OH267579   4.215   4.932   4.235 -0.6085  0.1957 -0.2453
15363TIP3    H167580   4.216   5.003   4.171  0.3618 -1.0719 -1.7361
15363TIP3    H267581   4.305   4.929   4.269 -1.2611  1.2447  1.6884
15364TIP3   OH267582   1.072   3.362   5.211 -0.3312 -0.5757  0.2901
15364TIP3    H167583   1.065   3.441   5.157  2.7760 -0.3412  0.0841
15364TIP3    H267584   1.073   3.395   5.301 -1.0422 -0.5961  0.3158
15365TIP3   OH267585   1.861   1.927   1.504  0.1006 -0.4515  0.2389
15365TIP3    H167586   1.773   1.905   1.472  0.0324  0.3558 -0.1771
15365TIP3    H267587   1.880   2.012   1.463  1.4779 -1.0684 -0.4481
15366TIP3   OH267588   2.424   4.879  12.339 -0.2401  0.1489  0.0602
15366TIP3    H167589   2.452   4.897  12.429 -1.6916  2.2132  0.1647
15366TIP3    H267590   2.330   4.858  12.347 -0.3328  0.1304 -0.9564
15367TIP3   OH267591   0.608   3.739   4.633  0.3240  0.5269 -0.7951
15367TIP3    H167592   0.681   3.711   4.576  0.9966 -0.2551  0.4105
15367TIP3    H267593   0.595   3.666   4.693 -0.2506  1.4076  0.1823
15368TIP3   OH267594   1.440   2.222   5.646 -0.4368 -0.0362 -0.0576
15368TIP3    H167595   1.355   2.264   5.633  0.4833  2.0363  0.1996
15368TIP3    H267596   1.483   2.274   5.714  1.2040 -0.7621 -0.4737
15369TIP3   OH267597   6.583   3.991   2.928 -1.1016  0.0365  0.4762
15369TIP3    H167598   6.564   3.949   3.011  0.0343  1.2668  1.4020
15369TIP3    H267599   6.679   3.991   2.922 -1.1454  0.5258 -0.5124
15370TIP3   OH267600   2.031   0.171   4.483 -0.0745  0.4526  0.4195
15370TIP3    H167601   1.957   0.219   4.446 -0.9997  0.5317  2.2763
15370TIP3    H267602   2.074   0.131   4.407 -0.8957  1.9392 -0.8908
15371TIP3   OH267603   4.654   6.051   2.363 -0.3230  0.2035 -0.0192
15371TIP3    H167604   4.660   5.973   2.418  1.5845  0.2572 -0.0654
15371TIP3    H267605   4.683   6.122   2.420 -1.6017  0.8191 -0.1176
15372TIP3   OH267606   3.476   4.254  13.114 -0.4695 -0.8283  0.1947
15372TIP3    H167607   3.526   4.334  13.130  0.3058 -1.1756 -0.4258
15372TIP3    H267608   3.445   4.227  13.200 -2.9804  1.5446  0.1824
15373TIP3   OH267609   1.922   1.867   6.276  0.5552 -0.1887 -0.4676
15373TIP3    H167610   2.012   1.896   6.259  1.0153 -0.6191  1.0155
15373TIP3    H267611   1.918   1.779   6.239  0.6523 -0.0438 -0.8208
15374TIP3   OH267612   4.088   2.373   1.529  0.1417 -0.2767  0.2010
15374TIP3    H167613   4.157   2.308   1.541  0.0502 -0.0917  2.0053
15374TIP3    H267614   4.093   2.396   1.437  1.6893 -1.1599  0.0225
15375TIP3   OH267615   2.899   0.623   1.224  0.0345  0.6561 -0.3178
15375TIP3    H167616   2.948   0.578   1.155 -0.7737 -0.0827 -0.4162
15375TIP3    H267617   2.958   0.621   1.300  0.0719 -0.4382 -0.3621
15376TIP3   OH267618   4.864   3.544   3.537  0.0054  0.0210 -0.3535
15376TIP3    H167619   4.868   3.534   3.632 -0.2869  1.7021 -0.1274
15376TIP3    H267620   4.777   3.580   3.520  0.5615  1.0752 -1.0972
15377TIP3   OH267621   1.762   6.608   5.011 -0.8644  0.0194 -0.1035
15377TIP3    H167622   1.824   6.657   4.958 -2.8691  1.6058 -1.0893
15377TIP3    H267623   1.744   6.665   5.086 -1.3334 -0.3168  0.0470
15378TIP3   OH267624   5.773   2.343   2.081 -0.7424 -0.0168 -0.1811
15378TIP3    H167625   5.697   2.288   2.061 -0.8547 -0.0674  0.3744
15378TIP3    H267626   5.782   2.400   2.004  0.8554 -2.4197 -1.9460
15379TIP3   OH267627   5.729   5.821  17.305  0.1599 -0.1040  0.2260
15379TIP3    H167628   5.728   5.823  17.401  0.8076 -0.5194  0.2431
15379TIP3    H267629   5.636   5.820  17.280 -0.0604 -2.6528  0.9100
15380TIP3   OH267630   6.303   4.472  10.364  0.2623  0.3425 -0.8207
15380TIP3    H167631   6.369   4.531  10.399  0.1554  1.3526 -2.2196
15380TIP3    H267632   6.226   4.486  10.419 -0.0550  2.2353 -1.6610
15381TIP3   OH267633   2.147   5.330   3.535  0.8079  0.0525 -0.6210
15381TIP3    H167634   2.136   5.252   3.480 -3.1457 -0.3509  0.4700
15381TIP3    H267635   2.080   5.391   3.506  0.2767  0.8700  1.9914
15382TIP3   OH267636   2.404   2.729   2.277  0.0762 -0.6521  0.5331
15382TIP3    H167637   2.330   2.778   2.312  0.5426  0.2005  0.3557
15382TIP3    H267638   2.382   2.713   2.186 -0.9340 -2.4748  1.0565
15383TIP3   OH267639   6.038   6.758   0.372  0.4923  0.1835  0.2279
15383TIP3    H167640   6.048   6.716   0.286  1.6209 -1.1747  0.9615
15383TIP3    H267641   6.128   6.773   0.402  0.1402  3.1792  0.0501
15384TIP3   OH267642   5.361   6.574   3.235 -0.2144  0.4736 -0.7096
15384TIP3    H167643   5.373   6.606   3.145 -0.1013 -1.5065 -1.4401
15384TIP3    H267644   5.374   6.479   3.229 -1.2858  0.1525  1.2166
15385TIP3   OH267645   0.236   2.841   1.661  0.4566  0.4000 -0.5483
15385TIP3    H167646   0.203   2.915   1.610  0.9703  1.5582  0.7172
15385TIP3    H267647   0.325   2.868   1.686 -0.3367  0.6830  2.3278
15386TIP3   OH267648   4.484   1.677  15.723 -0.2235  0.1355 -0.0337
15386TIP3    H167649   4.404   1.712  15.762 -0.9795  0.3045 -1.6914
15386TIP3    H267650   4.478   1.582  15.737 -1.4774 -0.0186 -1.4939
15387TIP3   OH267651   2.824   4.793  16.892  0.4625 -0.2218 -0.7349
15387TIP3    H167652   2.793   4.884  16.886  0.6287  0.2193  2.7061
15387TIP3    H267653   2.840   4.780  16.986  2.4883 -3.1724 -1.3655
15388TIP3   OH267654   6.372   5.926  12.750 -0.0076 -0.5456  0.8898
15388TIP3    H167655   6.353   6.007  12.798 -0.0168  0.0962 -0.1696
15388TIP3    H267656   6.313   5.861  12.788 -0.3645  0.0644  1.4034
15389TIP3   OH267657   1.127   6.256   0.860 -0.4044 -0.0951 -0.1574
15389TIP3    H167658   1.073   6.187   0.898  0.4601 -0.5807  0.2130
15389TIP3    H267659   1.185   6.211   0.799 -1.1159  0.5550 -1.3550
15390TIP3   OH267660   3.641   0.903  11.576 -0.3987  0.0187 -0.2598
15390TIP3    H167661   3.671   0.990  11.551 -0.2644 -0.1097 -0.5547
15390TIP3    H267662   3.721   0.855  11.598 -0.6460  1.0253  3.5325
15391TIP3   OH267663   1.297   6.030  10.824 -0.1791 -0.0294 -0.2719
15391TIP3    H167664   1.375   5.984  10.855  0.1282  0.8139  0.2451
15391TIP3    H267665   1.231   5.962  10.814 -0.2706 -0.3777  2.1480
15392TIP3   OH267666   5.395   4.829  12.404  0.2441  0.7637  0.0747
15392TIP3    H167667   5.341   4.896  12.445 -1.8656 -0.5711 -0.3444
15392TIP3    H267668   5.408   4.763  12.473  0.6604  0.6992 -0.0620
15393TIP3   OH267669   1.660   1.021   4.176  0.4363 -0.3974  0.2282
15393TIP3    H167670   1.601   1.097   4.166 -0.5320 -1.3017 -1.3588
15393TIP3    H267671   1.627   0.975   4.253  0.4142  0.2596  0.6183
15394TIP3   OH267672   4.936   0.101   3.685  0.1256  0.1078 -0.1282
15394TIP3    H167673   5.010   0.106   3.746 -0.4421 -1.0621  0.7051
15394TIP3    H267674   4.882   0.177   3.707  0.4536  0.2701  0.1301
15395TIP3   OH267675   3.973   1.517  16.918 -0.0111 -0.8972  0.0457
15395TIP3    H167676   3.927   1.439  16.948 -1.2468 -0.5420 -0.8417
15395TIP3    H267677   3.972   1.511  16.822  0.7182 -0.2730 -0.0108
15396TIP3   OH267678   1.936   1.256  16.593  0.2519  0.8413  0.0264
15396TIP3    H167679   2.001   1.217  16.534  0.0262 -1.3535  1.0954
15396TIP3    H267680   1.860   1.271  16.538 -0.5128 -2.5987 -0.1323
15397TIP3   OH267681   0.169   0.142   4.586 -0.0875 -0.2929  0.6688
15397TIP3    H167682   0.149   0.129   4.679  1.5581  0.5091  1.1708
15397TIP3    H267683   0.209   0.060   4.558 -0.8944 -0.6573  0.5726
15398TIP3   OH267684   1.502   4.084  12.415  0.1851  0.3335  0.3056
15398TIP3    H167685   1.470   4.100  12.326  1.3368  0.3176 -0.1294
15398TIP3    H267686   1.423   4.067  12.466 -0.5350  0.8101 -0.6116
15399TIP3   OH267687   6.462   5.871   0.249  1.1178 -0.1584 -0.0694
15399TIP3    H167688   6.447   5.941   0.186  1.1227  1.8560  2.0037
15399TIP3    H267689   6.556   5.874   0.267  1.2834 -1.3649 -0.6334
15400TIP3   OH267690   3.428   0.938  12.151  0.2617  0.5467  0.1640
15400TIP3    H167691   3.428   0.858  12.100  2.2707  1.5794 -1.5714
15400TIP3    H267692   3.520   0.956  12.170 -0.3092  0.5824  3.6925
15401TIP3   OH267693   1.682   2.957   2.406  0.2814 -0.1911 -0.5527
15401TIP3    H167694   1.733   2.892   2.359  1.3304 -0.4128  0.8398
15401TIP3    H267695   1.611   2.907   2.447 -0.0834 -0.1365 -1.1044
15402TIP3   OH267696   5.178   5.203   0.864  0.0785  0.5525  0.2577
15402TIP3    H167697   5.169   5.259   0.788 -0.3736 -1.1731 -1.0216
15402TIP3    H267698   5.191   5.115   0.828  1.6390 -0.0770  2.1575
15403TIP3   OH267699   2.971   3.565  10.356 -0.1648  0.4033  0.3795
15403TIP3    H167700   2.897   3.524  10.401  0.9604 -2.6028 -0.3006
15403TIP3    H267701   3.004   3.629  10.419  0.5341 -2.7069  3.4791
15404TIP3   OH267702   3.284   1.430  14.339  0.1425 -0.5780 -0.6399
15404TIP3    H167703   3.201   1.469  14.312 -0.1328  0.1658  1.1608
15404TIP3    H267704   3.262   1.342  14.368 -0.0049 -0.3915 -0.1923
15405TIP3   OH267705   3.710   1.367  13.082 -0.0613  0.1304 -0.1735
15405TIP3    H167706   3.637   1.310  13.058 -2.6544  1.7456  3.0906
15405TIP3    H267707   3.683   1.454  13.053  0.9981  0.6441  0.3338
15406TIP3   OH267708   2.059   0.743  16.985 -0.5095  0.0950  0.6892
15406TIP3    H167709   2.004   0.800  16.932 -0.9732  0.0880  1.1511
15406TIP3    H267710   2.017   0.656  16.979 -0.7984  0.1763  1.3697
15407TIP3   OH267711   3.733   6.663   3.939  0.2073 -0.0376  0.1499
15407TIP3    H167712   3.772   6.576   3.929 -0.5225 -0.1988 -1.6529
15407TIP3    H267713   3.639   6.649   3.935  0.0826  0.8709 -0.6954
15408TIP3   OH267714   0.396   2.341  15.124 -0.4763 -0.1102 -0.0747
15408TIP3    H167715   0.398   2.318  15.217  0.4236  0.6226  0.1128
15408TIP3    H267716   0.459   2.282  15.083  0.5139  0.7734  0.1139
15409TIP3   OH267717   3.318   6.097  17.225  0.1684  0.6282  0.0333
15409TIP3    H167718   3.399   6.149  17.226  0.4898  0.1439  0.8870
15409TIP3    H267719   3.271   6.127  17.148  0.7304  1.5972  0.0476
15410TIP3   OH267720   5.385   2.488   6.059 -1.1267  0.0030  0.1285
15410TIP3    H167721   5.381   2.532   6.143 -0.3824 -0.5368  0.4559
15410TIP3    H267722   5.417   2.400   6.079 -1.8020 -0.4246 -0.6121
15411TIP3   OH267723   6.310   6.394  14.773  0.2597  0.0782 -0.1105
15411TIP3    H167724   6.260   6.384  14.692  2.4988  0.2372 -1.6268
15411TIP3    H267725   6.306   6.308  14.814 -0.2336 -0.2524 -0.8315
15412TIP3   OH267726   5.031   4.023  16.874  0.0865  0.0600 -0.6302
15412TIP3    H167727   5.053   3.938  16.912  0.0631 -1.2505 -3.3019
15412TIP3    H267728   4.941   4.040  16.903  0.4315 -0.3020  0.7288
15413TIP3   OH267729   3.085   1.498   2.398 -0.3987 -0.4289 -0.1152
15413TIP3    H167730   3.133   1.496   2.315  0.3524 -2.4643  0.2896
15413TIP3    H267731   3.127   1.567   2.449  1.4816 -1.4542 -0.1704
15414TIP3   OH267732   3.862   4.013   1.593  0.2840  0.3740  0.3550
15414TIP3    H167733   3.822   4.071   1.658 -1.9995  0.9136 -1.4104
15414TIP3    H267734   3.926   4.067   1.548 -0.9406  1.1927 -0.4442
15415TIP3   OH267735   6.280   3.969  16.215 -0.1749  0.1681 -0.5348
15415TIP3    H167736   6.286   3.898  16.278 -1.7778 -0.2972 -0.8673
15415TIP3    H267737   6.357   4.023  16.232 -0.1000 -0.4420  1.1952
15416TIP3   OH267738   5.957   6.599  12.954  0.3724 -0.1640  0.5103
15416TIP3    H167739   5.987   6.635  13.038  1.8865 -0.8172  0.2892
15416TIP3    H267740   6.000   6.653  12.888  0.8980 -0.9515  0.1830
15417TIP3   OH267741   4.349   4.082   2.527 -0.2404 -0.1949  0.0922
15417TIP3    H167742   4.399   4.156   2.563  1.1487 -1.3739  0.6957
15417TIP3    H267743   4.395   4.004   2.560 -1.3967 -1.3301 -0.8899
15418TIP3   OH267744   1.867   4.160   4.409  0.2620  0.1818 -0.1376
15418TIP3    H167745   1.938   4.157   4.345  1.3663  0.5307  1.0401
15418TIP3    H267746   1.867   4.250   4.441  0.8099 -0.3710  1.5139
15419TIP3   OH267747   6.063   1.256  13.536  0.1960 -0.1153  0.4365
15419TIP3    H167748   5.973   1.290  13.539 -0.2694 -1.3906  1.5955
15419TIP3    H267749   6.117   1.335  13.526 -1.0081  0.7218  0.2175
15420TIP3   OH267750   1.667   1.589   4.249 -0.3692 -0.0909  0.4482
15420TIP3    H167751   1.722   1.592   4.327 -1.5723  1.5270  1.2714
15420TIP3    H267752   1.700   1.659   4.193 -1.3967  0.7395  0.8467
15421TIP3   OH267753   6.101   2.254  15.782  0.1568  0.1101  0.0123
15421TIP3    H167754   6.021   2.202  15.779 -0.8406  1.3552  2.5004
15421TIP3    H267755   6.141   2.232  15.866  2.5058 -0.4997 -1.1862
15422TIP3   OH267756   5.388   1.522   4.238 -0.3616  0.0050  0.0557
15422TIP3    H167757   5.353   1.444   4.281  0.9203 -0.0547  1.0372
15422TIP3    H267758   5.320   1.588   4.251 -0.8782 -0.5729  0.3794
15423TIP3   OH267759   3.590   6.359   4.608 -0.4519  0.4175 -0.2603
15423TIP3    H167760   3.623   6.312   4.685 -1.8670  2.5419  1.8136
15423TIP3    H267761   3.495   6.350   4.614 -0.6327  1.5596 -1.0952
15424TIP3   OH267762   2.438   1.789   2.183 -0.5986 -1.2068 -0.1229
15424TIP3    H167763   2.401   1.877   2.191  2.2446  0.1254 -0.4552
15424TIP3    H267764   2.409   1.758   2.096  0.8763  0.7479 -1.3862
15425TIP3   OH267765   2.987   0.135   0.296  0.5151  0.3743  0.4421
15425TIP3    H167766   2.962   0.196   0.227  1.7018  2.1805  1.5162
15425TIP3    H267767   3.075   0.106   0.272 -0.3275 -1.6089 -0.4616
15426TIP3   OH267768   5.358   2.846  15.502 -0.6783  0.0059  0.3836
15426TIP3    H167769   5.265   2.826  15.511 -0.7240  0.2694  0.5109
15426TIP3    H267770   5.364   2.940  15.521 -0.4674  0.1098 -0.1834
15427TIP3   OH267771   0.511   0.839  11.626  0.1767 -0.0393 -0.0621
15427TIP3    H167772   0.536   0.812  11.537 -2.4057 -2.2806 -0.2451
15427TIP3    H267773   0.462   0.920  11.613  0.7944  0.2701 -0.5292
15428TIP3   OH267774   0.466   1.323  15.806 -0.5596  0.0226  0.1879
15428TIP3    H167775   0.435   1.409  15.781  0.5174  0.4565  0.2919
15428TIP3    H267776   0.555   1.318  15.771 -0.6940 -1.1425 -0.0340
15429TIP3   OH267777   5.560   4.116   4.921 -0.1071  0.8894 -0.0400
15429TIP3    H167778   5.522   4.146   4.839  0.9083 -0.8871 -1.2328
15429TIP3    H267779   5.489   4.124   4.985 -1.5243  0.5013 -1.5102
15430TIP3   OH267780   0.901   3.184  16.168 -0.4136  0.5182 -0.2317
15430TIP3    H167781   0.883   3.161  16.259 -0.6752 -1.2346 -0.6855
15430TIP3    H267782   0.996   3.186  16.161 -0.3950  0.4511  0.0304
15431TIP3   OH267783   0.406   6.049  12.850 -0.1750 -0.1599 -0.3616
15431TIP3    H167784   0.403   6.031  12.944  1.6055 -0.7192 -0.3911
15431TIP3    H267785   0.321   6.017  12.817 -0.6939 -0.2415  0.9861
15432TIP3   OH267786   4.794   2.896   5.729 -0.0230  0.0601  0.1379
15432TIP3    H167787   4.785   2.917   5.636 -3.8471 -1.6315 -0.0379
15432TIP3    H267788   4.813   2.802   5.730 -0.5319 -0.0375  1.0683
15433TIP3   OH267789   2.997   3.840  16.735  0.3385 -0.3069  0.4328
15433TIP3    H167790   2.913   3.800  16.715  0.1594 -0.2494  1.0273
15433TIP3    H267791   2.975   3.915  16.791  0.8325 -0.7211  1.1948
15434TIP3   OH267792   0.788   3.601   4.499  0.6665  0.0644 -0.1183
15434TIP3    H167793   0.850   3.654   4.450  1.5025 -0.5968  0.2038
15434TIP3    H267794   0.841   3.533   4.539 -0.4664 -1.4732 -1.1141
15435TIP3   OH267795   3.156   6.340  15.955  0.0374  0.6272 -0.5611
15435TIP3    H167796   3.116   6.301  15.877 -3.0287  0.8258  0.7852
15435TIP3    H267797   3.250   6.336  15.938 -0.3599 -2.2943 -2.8477
15436TIP3   OH267798   5.719   5.138  12.580  0.1583  0.5045  0.1236
15436TIP3    H167799   5.802   5.182  12.596 -0.2557  1.1472  0.5443
15436TIP3    H267800   5.668   5.201  12.527  0.5015 -0.4930 -1.4771
15437TIP3   OH267801   2.601   3.226  11.377  0.5152  0.0040 -0.1242
15437TIP3    H167802   2.548   3.286  11.430  0.1619  0.0335 -0.5074
15437TIP3    H267803   2.690   3.262  11.382  0.4782  0.0420  0.3906
15438TIP3   OH267804   3.370   0.150  14.551  0.4344 -0.5203 -0.4399
15438TIP3    H167805   3.287   0.191  14.524  1.1116  0.2896 -1.3861
15438TIP3    H267806   3.371   0.158  14.646 -0.1511  0.3131 -0.4881
15439TIP3   OH267807   1.313   0.461   3.853 -0.5507  0.0426 -0.5291
15439TIP3    H167808   1.301   0.535   3.913  0.1529  0.1862 -0.5670
15439TIP3    H267809   1.356   0.498   3.777 -0.1534 -0.4177 -0.5290
15440TIP3   OH267810   1.302   2.423  15.817  0.2131 -0.3111  0.0066
15440TIP3    H167811   1.298   2.365  15.740  0.0920 -0.8153  0.3855
15440TIP3    H267812   1.216   2.464  15.820  0.6560  0.7275 -0.8933
15441TIP3   OH267813   2.665   5.933   0.359 -0.4028 -0.6382  0.4387
15441TIP3    H167814   2.695   5.888   0.280  0.6324 -1.2286  1.1473
15441TIP3    H267815   2.736   5.921   0.422 -0.2468  1.7077  0.7711
15442TIP3   OH267816   4.686   4.145   0.175 -0.0106  0.5542 -0.4690
15442TIP3    H167817   4.636   4.218   0.210 -1.7159 -0.1037 -1.4220
15442TIP3    H267818   4.620   4.086   0.138  1.3044 -1.4217  0.1669
15443TIP3   OH267819   4.810   3.906  15.163  0.0399  0.3376  0.1189
15443TIP3    H167820   4.753   3.966  15.211 -0.3157  0.4771 -0.4581
15443TIP3    H267821   4.773   3.903  15.075  0.8469  0.3267 -0.2355
15444TIP3   OH267822   1.025   5.100   1.624  0.2622 -0.0123  0.2901
15444TIP3    H167823   0.958   5.168   1.621  1.3516  1.0743 -0.2967
15444TIP3    H267824   1.060   5.096   1.534  1.4945 -0.0016  0.7399
15445TIP3   OH267825   6.694   5.652   4.466  0.3274 -0.0263 -0.1386
15445TIP3    H167826   6.661   5.685   4.383 -0.2347  1.8651  0.7785
15445TIP3    H267827   6.641   5.573   4.483 -1.0858  0.8001 -0.5438
15446TIP3   OH267828   4.944   0.133   1.097 -0.1311  0.3495 -0.0914
15446TIP3    H167829   4.993   0.134   1.014  0.4606 -1.2529  0.1934
15446TIP3    H267830   4.901   0.218   1.101 -0.7769  0.1942 -2.4139
15447TIP3   OH267831   5.664   3.956  14.934 -0.1660 -0.0156 -0.1127
15447TIP3    H167832   5.694   3.877  14.888  0.9992  0.8516 -0.9123
15447TIP3    H267833   5.624   4.010  14.865  1.6384  1.3164 -0.2182
15448TIP3   OH267834   2.106   3.066   5.598  0.1498  0.0007  0.6969
15448TIP3    H167835   2.124   3.155   5.568 -1.1147 -0.6042 -2.2146
15448TIP3    H267836   2.021   3.073   5.642 -0.2654  0.1795 -0.1019
15449TIP3   OH267837   1.215   2.608   1.086 -0.2530 -0.2776  0.1563
15449TIP3    H167838   1.197   2.523   1.128  1.0488  0.0543  1.4406
15449TIP3    H267839   1.159   2.670   1.133 -1.1039 -0.3609 -0.6951
15450TIP3   OH267840   5.419   0.283  13.237  0.1987 -0.1755  0.5997
15450TIP3    H167841   5.445   0.224  13.166 -2.2495 -0.9673  0.2425
15450TIP3    H267842   5.372   0.226  13.299 -3.2796  1.4019 -0.3128
15451TIP3   OH267843   6.117   4.515  14.804  0.1807  0.1385  0.1341
15451TIP3    H167844   6.201   4.528  14.847  1.2783  1.3433 -2.1915
15451TIP3    H267845   6.088   4.603  14.780 -0.7240 -0.4158 -0.8981
15452TIP3   OH267846   1.601   5.666   4.446  0.2561 -0.1083  0.1875
15452TIP3    H167847   1.589   5.639   4.355 -0.1437 -0.3987  0.3264
15452TIP3    H267848   1.566   5.755   4.450 -1.4756 -0.7718  0.4822
15453TIP3   OH267849   3.325   1.152  11.971 -0.3197 -0.4993 -0.2433
15453TIP3    H167850   3.411   1.155  11.929 -0.6322 -0.3043 -0.8727
15453TIP3    H267851   3.302   1.059  11.973  0.6745 -0.7583  1.5324
15454TIP3   OH267852   3.246   3.125  12.836 -0.3137  0.2116 -0.1011
15454TIP3    H167853   3.228   3.084  12.751 -1.0548  1.0427 -0.3640
15454TIP3    H267854   3.341   3.116  12.847  0.1093  1.6650 -1.8962
15455TIP3   OH267855   2.777   3.042   0.814 -0.3772 -0.6233  0.2645
15455TIP3    H167856   2.859   3.010   0.776 -0.1984 -1.8576  1.6024
15455TIP3    H267857   2.741   2.966   0.859 -1.2787  0.4210  1.3457
15456TIP3   OH267858   6.339   6.218  10.179  0.7416 -0.6044  0.4068
15456TIP3    H167859   6.330   6.125  10.199 -0.1065 -0.2165  2.0569
15456TIP3    H267860   6.412   6.247  10.235 -0.6525  0.1954  1.9130
15457TIP3   OH267861   0.885   1.027   4.071  0.1547  0.0389  0.0977
15457TIP3    H167862   0.791   1.025   4.088 -0.0630  0.0430 -1.0300
15457TIP3    H267863   0.892   1.046   3.977  1.2197 -2.5332 -0.4408
15458TIP3   OH267864   0.243   2.136  13.054 -0.4796 -0.2819  0.0951
15458TIP3    H167865   0.310   2.194  13.017 -0.7053 -0.1188 -0.0630
15458TIP3    H267866   0.230   2.069  12.986 -0.5307 -0.2695  0.0925
15459TIP3   OH267867   1.569   5.262   4.983  0.0816 -0.1728 -0.1467
15459TIP3    H167868   1.590   5.168   4.984  0.5471 -0.1469 -2.3674
15459TIP3    H267869   1.486   5.268   4.937  0.1118  0.5314 -0.1223
15460TIP3   OH267870   1.713   3.529  11.461  0.3862  0.6973 -0.0761
15460TIP3    H167871   1.724   3.466  11.390 -0.6195 -0.5543  0.8121
15460TIP3    H267872   1.710   3.475  11.540  0.5692  1.9662  0.8253
15461TIP3   OH267873   2.404   5.800  11.904  0.3461 -0.6226  0.0168
15461TIP3    H167874   2.386   5.717  11.948 -1.2319  0.7877  2.2339
15461TIP3    H267875   2.472   5.841  11.958  0.3368  0.0095 -0.4410
15462TIP3   OH267876   5.122   6.284  11.240  0.1002 -0.1497 -0.9544
15462TIP3    H167877   5.042   6.330  11.214 -0.2250 -0.0282  0.1704
15462TIP3    H267878   5.109   6.194  11.210 -0.4027 -0.0917 -0.9227
15463TIP3   OH267879   1.881   5.736   2.148 -0.5837 -0.1332 -0.2821
15463TIP3    H167880   1.859   5.792   2.223  0.2351  0.1573 -0.2465
15463TIP3    H267881   1.915   5.656   2.188 -0.4511 -0.1038 -0.3333
15464TIP3   OH267882   2.800   0.889   3.639  0.2480 -0.5764  0.3058
15464TIP3    H167883   2.748   0.826   3.691 -0.8861  0.1472  0.0805
15464TIP3    H267884   2.881   0.900   3.689  0.0672 -1.5034  0.8294
15465TIP3   OH267885   5.191   5.998  14.343  0.3151 -0.3227 -0.2094
15465TIP3    H167886   5.197   6.085  14.383  0.6527 -0.1878 -0.5483
15465TIP3    H267887   5.243   5.942  14.400 -0.1444 -0.3636  0.1739
15466TIP3   OH267888   3.842   1.358  16.626 -0.3079 -0.5746  0.0463
15466TIP3    H167889   3.818   1.446  16.597 -1.1702 -1.2211 -1.2980
15466TIP3    H267890   3.762   1.306  16.616  0.7204 -2.0115 -1.3061
15467TIP3   OH267891   0.447   3.355   4.317 -0.3494 -0.6055  0.8391
15467TIP3    H167892   0.514   3.298   4.278 -1.2793  0.1370 -2.0515
15467TIP3    H267893   0.472   3.443   4.291 -1.0411 -0.0475  1.9969
15468TIP3   OH267894   0.592   0.144  11.830 -0.1821  0.2627  0.1149
15468TIP3    H167895   0.561   0.205  11.896 -2.4608 -0.6439 -0.0070
15468TIP3    H267896   0.574   0.057  11.866  0.5778 -0.2947 -0.7816
15469TIP3   OH267897   3.458   3.595  13.557  0.4820  0.1290  0.2912
15469TIP3    H167898   3.370   3.601  13.522  0.7180  1.2156 -0.1674
15469TIP3    H267899   3.504   3.671  13.521  1.7898 -0.7517  0.0145
15470TIP3   OH267900   0.926   5.691  14.653  0.3025 -0.1178  0.2872
15470TIP3    H167901   0.907   5.667  14.562 -0.4437 -0.7900  0.6085
15470TIP3    H267902   0.921   5.608  14.701 -0.3685  0.3869  1.1134
15471TIP3   OH267903   1.043   3.658  12.918 -0.1763  0.2981 -0.0440
15471TIP3    H167904   0.975   3.683  12.981 -0.9703  0.9378 -1.1252
15471TIP3    H267905   0.995   3.642  12.836  1.0321  1.4381 -1.0187
15472TIP3   OH267906   2.142   5.367   4.182 -0.7639 -0.1278 -0.4464
15472TIP3    H167907   2.135   5.459   4.155  0.0578  0.7960  2.1643
15472TIP3    H267908   2.152   5.371   4.277 -1.3448 -2.9849 -0.1797
15473TIP3   OH267909   4.619   2.302   3.251  0.4950  0.2963  0.3363
15473TIP3    H167910   4.654   2.224   3.294  0.1549  0.6845  1.3312
15473TIP3    H267911   4.618   2.369   3.319 -0.2987  0.8482 -0.2018
15474TIP3   OH267912   2.063   3.255  14.264 -0.3108 -0.3299 -0.0381
15474TIP3    H167913   1.992   3.241  14.327  1.1126  1.0253  1.9858
15474TIP3    H267914   2.138   3.210  14.302  1.4814  3.2827  1.1315
15475TIP3   OH267915   2.636   4.223  17.115 -0.4567  0.2220 -0.1104
15475TIP3    H167916   2.679   4.281  17.052 -2.9665  1.0890 -1.1520
15475TIP3    H267917   2.627   4.277  17.194  0.7939 -0.1536  0.3102
15476TIP3   OH267918   2.599   0.281   0.196 -0.3380 -0.0776  0.8418
15476TIP3    H167919   2.639   0.362   0.226 -0.1242 -0.6626  2.2074
15476TIP3    H267920   2.513   0.307   0.163  1.0389  1.1812 -2.0657
15477TIP3   OH267921   0.841   0.472   3.817 -0.6065 -0.1957  0.1902
15477TIP3    H167922   0.874   0.506   3.900 -0.2139 -0.1067 -0.0001
15477TIP3    H267923   0.879   0.385   3.809  0.5096  0.3317 -0.5565
15478TIP3   OH267924   2.932   1.746  15.663 -0.6387  0.4732  0.2362
15478TIP3    H167925   2.874   1.775  15.592 -1.0911  0.7892  0.7260
15478TIP3    H267926   2.948   1.654  15.644 -0.0759  0.7600 -0.7369
15479TIP3   OH267927   1.424   5.826   5.527  0.1744  0.6422  0.1293
15479TIP3    H167928   1.361   5.820   5.598 -1.2166  4.1634 -0.6169
15479TIP3    H267929   1.478   5.902   5.550 -0.6726  2.2375 -2.7043
15480TIP3   OH267930   3.145   2.371   2.390  0.2613  0.0487 -0.3231
15480TIP3    H167931   3.057   2.336   2.378  0.7796 -1.1144 -0.8027
15480TIP3    H267932   3.134   2.466   2.381 -0.9687 -0.0644 -0.1550
15481TIP3   OH267933   0.964   2.189  12.713 -0.4325 -0.1656  0.2217
15481TIP3    H167934   1.058   2.205  12.703 -0.1799  0.2634  2.6507
15481TIP3    H267935   0.955   2.094  12.699  0.2732 -0.1375 -0.4931
15482TIP3   OH267936   6.457   2.909  10.329 -0.6620  0.2492  0.3694
15482TIP3    H167937   6.448   3.000  10.359  0.0737 -0.5621  3.3638
15482TIP3    H267938   6.550   2.899  10.310 -0.7282  0.0658  0.1306
15483TIP3   OH267939   0.947   1.286   0.901 -0.3628 -0.3076  0.2543
15483TIP3    H167940   0.931   1.222   0.970  0.0625  0.1921  0.8332
15483TIP3    H267941   0.872   1.345   0.905 -0.9701 -0.9937 -0.5637
15484TIP3   OH267942   5.257   6.180  14.825 -0.4590  0.1392  0.5929
15484TIP3    H167943   5.224   6.133  14.902  1.3451  0.4379  1.5925
15484TIP3    H267944   5.215   6.266  14.829  0.2148  0.4353  1.7195
15485TIP3   OH267945   0.017   5.388  12.884 -0.5311 -0.1675 -0.0917
15485TIP3    H167946   0.112   5.375  12.882 -0.5631 -0.4164 -2.1415
15485TIP3    H267947  -0.019   5.299  12.890 -0.6261 -0.1871 -0.8277
15486TIP3   OH267948   6.490   2.271  16.284 -0.1331 -0.1476 -0.4961
15486TIP3    H167949   6.539   2.304  16.209 -1.4117  1.0787 -0.8327
15486TIP3    H267950   6.532   2.312  16.360 -0.3432  0.5435 -0.7472
15487TIP3   OH267951   1.913   2.279   3.594  0.1600  0.0802 -0.0558
15487TIP3    H167952   1.936   2.355   3.541  1.2588  0.1870  0.5558
15487TIP3    H267953   1.985   2.217   3.580 -1.4203 -1.5299 -1.7548
15488TIP3   OH267954   5.336   3.217   1.106 -0.1348  0.6200  0.2611
15488TIP3    H167955   5.302   3.157   1.039  0.8374  1.4008 -0.9809
15488TIP3    H267956   5.262   3.276   1.124 -0.3174  0.6086 -0.3924
15489TIP3   OH267957   4.950   4.336  11.968 -0.4125  0.0351  0.4239
15489TIP3    H167958   4.902   4.413  11.935 -2.3843 -0.6725  1.5033
15489TIP3    H267959   4.990   4.366  12.049  2.6205  1.1461 -1.3412
15490TIP3   OH267960   6.666   4.598   1.063  0.0287  0.2341 -0.1159
15490TIP3    H167961   6.599   4.534   1.041  0.2994 -0.1865  0.2647
15490TIP3    H267962   6.629   4.647   1.137  0.0485  0.1435 -0.0454
15491TIP3   OH267963   0.468   2.856  15.569  0.0104  0.1912  0.1362
15491TIP3    H167964   0.543   2.884  15.517 -0.9204  2.2136 -0.2215
15491TIP3    H267965   0.396   2.853  15.507 -0.3794 -0.9519  0.6271
15492TIP3   OH267966   0.622   5.650  16.429 -0.2176  0.6054  0.2278
15492TIP3    H167967   0.615   5.737  16.391  2.0160  0.5039 -0.5627
15492TIP3    H267968   0.638   5.592  16.354  1.0560 -0.0733  0.9977
15493TIP3   OH267969   2.746   2.782  14.082  0.4735 -0.6120  0.4660
15493TIP3    H167970   2.681   2.718  14.053  0.3440  0.0653 -0.7928
15493TIP3    H267971   2.736   2.856  14.022  1.8769 -0.1761  0.7228
15494TIP3   OH267972   4.591   3.735   5.839  0.2580 -0.1561  0.6645
15494TIP3    H167973   4.686   3.735   5.852 -0.0430 -0.2771  3.5268
15494TIP3    H267974   4.574   3.812   5.786  1.9599 -0.2003 -0.0018
15495TIP3   OH267975   4.982   5.727  13.154  0.2251  0.5219  0.7267
15495TIP3    H167976   4.969   5.809  13.107  0.0910 -0.1503 -0.4376
15495TIP3    H267977   4.897   5.711  13.196 -0.4212 -0.0709 -0.7617
15496TIP3   OH267978   3.264   0.507  16.665 -0.0385 -0.1443  0.2394
15496TIP3    H167979   3.270   0.433  16.725 -0.3454 -1.4599 -1.2834
15496TIP3    H267980   3.347   0.506  16.618 -0.4913 -0.2417 -0.5736
15497TIP3   OH267981   6.605   2.682  15.550 -0.0257  0.1041  0.0807
15497TIP3    H167982   6.627   2.624  15.477 -0.3662 -0.1051  0.1459
15497TIP3    H267983   6.519   2.653  15.580 -0.4226  0.9556 -0.1980
15498TIP3   OH267984   6.034   6.082  14.506 -0.2856  0.6170  0.1257
15498TIP3    H167985   5.972   6.150  14.479 -0.5665  0.2851 -0.0772
15498TIP3    H267986   5.988   5.999  14.489 -0.2850  0.3820  1.1484
15499TIP3   OH267987   5.633   2.704  17.007 -0.3768 -0.3823 -0.5119
15499TIP3    H167988   5.601   2.668  17.089  1.1489 -2.5545 -0.7838
15499TIP3    H267989   5.705   2.761  17.032  0.4405 -1.4559 -0.3042
15500TIP3   OH267990   3.912   5.081  13.589 -0.2405 -0.1764 -0.0449
15500TIP3    H167991   3.889   4.996  13.627 -0.2842 -0.0746  0.1550
15500TIP3    H267992   3.989   5.062  13.535 -0.1496 -0.3123  0.1288
15501TIP3   OH267993   6.704   0.223  12.735 -0.0211 -0.4037 -0.0544
15501TIP3    H167994   6.663   0.289  12.679  0.0592 -0.2561  0.0615
15501TIP3    H267995   6.759   0.173  12.675 -0.1070 -0.3874 -0.1483
15502TIP3   OH267996   5.980   5.008  10.748  0.4463  0.2196 -0.0453
15502TIP3    H167997   6.073   5.029  10.760  0.5626 -0.2398 -0.1130
15502TIP3    H267998   5.936   5.093  10.745  0.5133  0.4281  2.7428
15503TIP3   OH267999   2.018   6.477   4.096 -0.1323 -0.2850 -0.3901
15503TIP3    H168000   1.986   6.476   4.006 -0.9931  0.7799 -0.1174
15503TIP3    H268001   2.010   6.387   4.126 -1.6247 -0.2990 -0.7813
15504TIP3   OH268002   0.868   5.795   5.379  0.1918 -0.1755 -0.1943
15504TIP3    H168003   0.781   5.775   5.412 -0.0523  0.2226 -0.5835
15504TIP3    H268004   0.868   5.890   5.366  0.9307 -0.0649  0.4907
15505TIP3   OH268005   4.412   1.334   0.107 -0.4341  0.3783  0.3203
15505TIP3    H168006   4.420   1.405   0.044  0.5161 -0.6364 -0.7429
15505TIP3    H268007   4.365   1.265   0.061  0.2476 -0.3693  0.7146
15506TIP3   OH268008   4.909   0.214  11.922 -0.0881 -0.1624  0.2104
15506TIP3    H168009   4.936   0.278  11.856  0.6375  0.2046  0.8520
15506TIP3    H268010   4.858   0.263  11.985 -0.1060 -0.3567  0.3480
15507TIP3   OH268011   3.033   5.886  17.148 -0.0532 -0.1720  0.1779
15507TIP3    H168012   3.008   5.922  17.062  0.9933  2.6071  0.9384
15507TIP3    H268013   2.957   5.903  17.204  0.3651  0.7092  0.4884
15508TIP3   OH268014   0.181   2.382   5.191 -0.0729 -0.2244 -0.4619
15508TIP3    H168015   0.237   2.437   5.136 -0.3100  0.2195 -0.2719
15508TIP3    H268016   0.242   2.328   5.241  0.2411  0.8079  0.3284
15509TIP3   OH268017   0.475   4.602   2.320 -0.5947  0.7553  0.0808
15509TIP3    H168018   0.423   4.540   2.370  0.4656  0.4636  0.8580
15509TIP3    H268019   0.455   4.583   2.229 -1.9539  0.7606  0.3541
15510TIP3   OH268020   4.084   3.719  15.847 -0.6560 -0.2482  0.7056
15510TIP3    H168021   4.157   3.747  15.901  2.9111 -0.7852 -3.3468
15510TIP3    H268022   4.030   3.798  15.836  1.8240  1.4787  0.2428
15511TIP3   OH268023   6.529   4.181  12.906 -0.3031  0.0813  0.1857
15511TIP3    H168024   6.543   4.154  12.996  1.2438  0.7567  0.1688
15511TIP3    H268025   6.608   4.228  12.881 -0.3234 -0.8095 -1.8081
15512TIP3   OH268026   1.719   3.545  16.532  0.1652  0.0328 -0.1372
15512TIP3    H168027   1.685   3.635  16.537  2.0224  0.7760 -0.1048
15512TIP3    H268028   1.759   3.530  16.617  0.1400 -0.7295 -0.2552
15513TIP3   OH268029   6.823   3.332   4.428 -0.1148  0.0609 -0.6328
15513TIP3    H168030   6.768   3.388   4.482 -1.5581 -0.1203 -1.8341
15513TIP3    H268031   6.889   3.391   4.391  0.3962  0.3221  0.6726
15514TIP3   OH268032   1.987   4.301  16.711  0.1338  0.3905 -0.3812
15514TIP3    H168033   1.891   4.300  16.713  0.0705  0.3236 -1.9252
15514TIP3    H268034   2.008   4.327  16.621  1.5719  0.0542 -0.1589
15515TIP3   OH268035   6.047   5.907  16.414 -0.1186  0.7892  0.3668
15515TIP3    H168036   5.982   5.970  16.381 -0.5534  1.1380  1.7923
15515TIP3    H268037   6.003   5.822  16.407 -0.0874  0.8143 -0.2065
15516TIP3   OH268038   4.945   5.950  16.279  0.0598 -0.0895 -0.1896
15516TIP3    H168039   4.905   5.863  16.270 -1.6852  0.8119 -2.1054
15516TIP3    H268040   5.038   5.932  16.294 -0.0384 -2.3120 -1.6649
15517TIP3   OH268041   1.472   6.441   0.836  0.4153  0.6512  0.1895
15517TIP3    H168042   1.552   6.390   0.821  0.1336  0.2111  0.1658
15517TIP3    H268043   1.401   6.380   0.817  0.0649  0.6810  1.3537
15518TIP3   OH268044   4.329   5.463  15.929  0.0427  0.2916 -0.3274
15518TIP3    H168045   4.281   5.483  16.009 -0.5943  2.0325 -1.0846
15518TIP3    H268046   4.373   5.380  15.947  0.6421  1.0626  2.1364
15519TIP3   OH268047   1.830   6.752   5.488 -0.0294 -0.1835 -0.0754
15519TIP3    H168048   1.776   6.684   5.529 -0.2450  0.2899  0.4311
15519TIP3    H268049   1.878   6.791   5.561 -0.3006  0.5646 -0.2916
15520TIP3   OH268050   5.230   1.437   0.426  0.0523 -0.1560 -0.0255
15520TIP3    H168051   5.256   1.460   0.337 -0.8752 -0.5973 -0.4174
15520TIP3    H268052   5.309   1.399   0.465  1.2684  2.4088  0.2208
15521TIP3   OH268053   1.302   5.097  17.257 -0.2302 -0.1830 -0.3424
15521TIP3    H168054   1.394   5.119  17.265 -0.2668 -0.5670  1.5414
15521TIP3    H268055   1.300   5.027  17.191  0.7121  0.3394 -0.9485
15522TIP3   OH268056   1.582   1.665  16.635 -0.7789  0.8950 -0.1635
15522TIP3    H168057   1.594   1.751  16.595 -0.4387  0.5728 -0.7885
15522TIP3    H268058   1.670   1.627  16.636 -1.0188  0.3155 -0.4737
15523TIP3   OH268059   0.455   1.185   4.873 -0.1385  0.0941 -0.3053
15523TIP3    H168060   0.456   1.090   4.884 -0.8397 -0.0144 -1.1147
15523TIP3    H268061   0.454   1.220   4.962  1.1117 -0.6269  0.0246
15524TIP3   OH268062   1.024   3.605   0.523 -0.2828 -0.3886 -0.6374
15524TIP3    H168063   1.022   3.535   0.458  2.4865  0.8907 -2.2774
15524TIP3    H268064   1.011   3.685   0.474 -0.0705  0.4876  0.6685
15525TIP3   OH268065   3.889   2.168   4.203  0.5618 -0.0506 -0.1531
15525TIP3    H168066   3.919   2.152   4.293  0.1036 -0.9621 -0.1521
15525TIP3    H268067   3.907   2.085   4.157  1.5290  0.6647 -1.1093
15526TIP3   OH268068   2.931   1.304   3.214  0.1462 -0.9933  0.2963
15526TIP3    H168069   2.951   1.211   3.210 -1.8254 -1.5023  0.9466
15526TIP3    H268070   2.991   1.339   3.281  1.2993 -1.6503 -0.3669
15527TIP3   OH268071   5.076   0.745   4.699  0.0192 -0.6156 -0.1241
15527TIP3    H168072   5.151   0.687   4.686 -0.0124 -0.9491  1.0190
15527TIP3    H268073   5.039   0.717   4.783 -2.8661 -2.1073 -1.7410
15528TIP3   OH268074   5.691   6.247  13.086 -0.5251 -0.0675 -0.3498
15528TIP3    H168075   5.759   6.271  13.023 -1.5996  0.9909 -1.1505
15528TIP3    H268076   5.611   6.286  13.051 -1.1751  0.4835  1.6197
15529TIP3   OH268077   5.921   6.359  11.282 -0.4962 -0.0084 -0.1126
15529TIP3    H168078   5.915   6.301  11.358 -1.5274  1.4916  1.0154
15529TIP3    H268079   5.849   6.421  11.293  2.9557  4.3531  1.3084
15530TIP3   OH268080   3.908   3.352   5.135 -0.2831  0.2808  0.2256
15530TIP3    H168081   3.898   3.271   5.187 -1.4188 -0.4840 -1.1254
15530TIP3    H268082   3.859   3.335   5.055  1.3969  1.4496 -1.1142
15531TIP3   OH268083   0.724   2.223  15.998  0.8136  0.6329 -0.1744
15531TIP3    H168084   0.640   2.251  16.035  0.0128 -2.3165  0.5100
15531TIP3    H268085   0.702   2.195  15.909  1.5083  1.7348 -0.7123
15532TIP3   OH268086   0.903   3.873   0.457 -0.4196  0.2580 -0.0970
15532TIP3    H168087   0.986   3.919   0.448 -0.5339  0.5548  0.3509
15532TIP3    H268088   0.836   3.941   0.457 -0.8453 -0.0779 -2.3620
15533TIP3   OH268089   3.235   3.144   3.198 -0.3635  0.3119  0.6755
15533TIP3    H168090   3.219   3.229   3.157  0.8063  0.5838  0.7490
15533TIP3    H268091   3.158   3.091   3.175 -0.2374  0.7924 -0.9796
15534TIP3   OH268092   4.540   5.555   0.688  0.4861  0.4037  0.6597
15534TIP3    H168093   4.528   5.629   0.629 -0.8703  0.8141  1.4048
15534TIP3    H268094   4.462   5.501   0.675  0.8573 -0.2328  1.0363
15535TIP3   OH268095   5.870   2.882  14.813  0.1224 -0.0332 -0.4694
15535TIP3    H168096   5.821   2.829  14.749  0.2738 -0.2995 -0.3680
15535TIP3    H268097   5.816   2.960  14.825 -0.3053 -0.3392 -0.3317
15536TIP3   OH268098   5.079   3.237   1.278 -0.1760 -0.1687  0.2396
15536TIP3    H168099   5.113   3.247   1.367  1.8698  1.0845 -0.5825
15536TIP3    H268100   5.049   3.147   1.273 -0.2174 -0.2954  2.1553
15537TIP3   OH268101   5.739   0.403   1.317  0.0330 -0.4017 -0.0421
15537TIP3    H168102   5.807   0.401   1.249 -1.8196 -0.0976 -2.0473
15537TIP3    H268103   5.700   0.316   1.314 -0.9720  0.0451 -0.3955
15538TIP3   OH268104   5.572   5.452  12.798 -0.0702  0.4276  0.1376
15538TIP3    H168105   5.495   5.471  12.851 -0.7650  0.5146 -0.8709
15538TIP3    H268106   5.576   5.524  12.734  0.4276  0.0371 -0.2818
15539TIP3   OH268107   2.784   1.902   1.372  0.3713 -0.0502 -0.0527
15539TIP3    H168108   2.758   1.982   1.418 -0.2484  0.2150 -0.8456
15539TIP3    H268109   2.833   1.852   1.438 -0.3248  0.3991  0.8293
15540TIP3   OH268110   0.145   1.612   4.532  0.0628  0.0080 -0.0619
15540TIP3    H168111   0.111   1.524   4.550 -2.2808  0.7267 -0.6662
15540TIP3    H268112   0.149   1.654   4.618  3.3365 -1.3123  0.5510
15541TIP3   OH268113   0.320   2.060  15.530  0.3143 -0.2558  0.1294
15541TIP3    H168114   0.380   1.997  15.571  1.2773  0.5276 -0.0331
15541TIP3    H268115   0.362   2.080  15.446 -0.0194  0.5508  0.1563
15542TIP3   OH268116   1.509   1.121  12.658  0.2448 -0.7295  0.0459
15542TIP3    H168117   1.466   1.052  12.709  2.1918 -0.9669  1.4804
15542TIP3    H268118   1.470   1.202  12.689  0.0845 -0.9984  0.5600
15543TIP3   OH268119   4.444   1.799   1.160 -0.7021  0.4428 -0.3618
15543TIP3    H168120   4.368   1.779   1.106 -0.0580 -0.3395 -1.0044
15543TIP3    H268121   4.409   1.807   1.249 -1.3422 -1.4272 -0.3964
15544TIP3   OH268122   1.248   5.843   4.909  0.1446 -0.1525 -0.1307
15544TIP3    H168123   1.308   5.906   4.870 -0.3587  0.5839  0.2680
15544TIP3    H268124   1.304   5.770   4.934  1.0029  0.7985  0.8372
15545TIP3   OH268125   6.607   2.004   2.030  0.4341 -0.6519 -0.4779
15545TIP3    H168126   6.610   1.952   1.950  0.8255  0.7533 -1.4085
15545TIP3    H268127   6.698   2.011   2.058  0.2076 -2.0211  0.7155
15546TIP3   OH268128   6.034   1.034   1.922  0.0345 -0.0919 -0.1751
15546TIP3    H168129   5.968   1.042   1.990  0.5700 -0.5061  0.4028
15546TIP3    H268130   6.099   0.974   1.958  0.7325  0.3149 -0.7242
15547TIP3   OH268131   5.342   5.002  11.463  0.2075 -0.1261 -0.2201
15547TIP3    H168132   5.346   4.911  11.434 -0.5093 -0.2370  0.0001
15547TIP3    H268133   5.307   4.998  11.552 -0.8109  0.4052 -0.5689
15548TIP3   OH268134   4.304   1.174   3.016  0.5171  0.2000  0.1732
15548TIP3    H168135   4.272   1.134   3.097  0.4485 -1.6008 -0.6928
15548TIP3    H268136   4.228   1.174   2.958  0.7430  0.8293 -0.1278
15549TIP3   OH268137   0.113   3.764   4.445 -0.0945  0.1090  0.3350
15549TIP3    H168138   0.197   3.788   4.483 -0.1939  1.5603 -0.2880
15549TIP3    H268139   0.054   3.834   4.471 -0.6477  0.0834 -0.7794
15550TIP3   OH268140   1.548   2.162   4.194  0.0607  0.3295 -0.0472
15550TIP3    H168141   1.483   2.100   4.162  1.3835  0.0653 -2.4621
15550TIP3    H268142   1.632   2.119   4.175  0.9963  2.4011 -0.8686
15551TIP3   OH268143   1.350   2.461  12.446  0.3086  0.1814 -0.0548
15551TIP3    H168144   1.425   2.516  12.423  2.0696 -1.3691  1.6609
15551TIP3    H268145   1.324   2.491  12.533  0.0840 -0.4389  0.0963
15552TIP3   OH268146   0.163   2.604   4.452 -0.2775 -0.4461 -0.1510
15552TIP3    H168147   0.091   2.657   4.486 -0.1307 -1.4897  1.9786
15552TIP3    H268148   0.242   2.648   4.483 -0.1317 -1.2943  0.7373
15553TIP3   OH268149   6.664   6.490  10.429  0.1791 -0.2020 -0.0346
15553TIP3    H168150   6.742   6.474  10.376 -1.1369 -1.2530 -1.7727
15553TIP3    H268151   6.664   6.585  10.444  1.0792 -0.0128 -1.1155
15554TIP3   OH268152   3.891   6.464   5.052 -0.6849 -0.6407 -0.1854
15554TIP3    H168153   3.970   6.426   5.092 -0.3483  0.6668  0.4620
15554TIP3    H268154   3.904   6.453   4.958 -0.5127 -1.9188 -0.0260
15555TIP3   OH268155   0.858   0.523   5.521 -0.9327  0.4770 -0.8672
15555TIP3    H168156   0.918   0.461   5.479 -1.5328  0.1388 -1.2411
15555TIP3    H268157   0.913   0.598   5.545 -0.7659  1.2762 -3.4432
15556TIP3   OH268158   5.390   1.681  16.096  0.0853  0.3183 -0.4235
15556TIP3    H168159   5.373   1.596  16.136  1.8725  0.6405  1.1540
15556TIP3    H268160   5.360   1.671  16.006  0.0548 -1.9085 -0.2323
15557TIP3   OH268161   2.134   3.994  14.466 -0.6480  0.0921  0.0355
15557TIP3    H168162   2.194   4.031  14.402 -0.3703  1.8877  1.2465
15557TIP3    H268163   2.127   4.062  14.534 -2.3706 -0.9524  0.9774
15558TIP3   OH268164   2.475   4.241  11.195 -0.1582 -0.3916  1.0453
15558TIP3    H168165   2.461   4.156  11.154  2.2498 -1.0386  1.3806
15558TIP3    H268166   2.436   4.304  11.136 -1.5797 -1.6933  0.5477
15559TIP3   OH268167   3.811   1.234   2.266 -0.5217  0.1661  0.1546
15559TIP3    H168168   3.858   1.231   2.350 -0.6273  1.3095  0.2760
15559TIP3    H268169   3.748   1.163   2.271  0.3000 -0.5562  0.5397
15560TIP3   OH268170   6.327   5.557   2.914 -0.4351  0.2720 -0.4776
15560TIP3    H168171   6.401   5.594   2.962  2.1911 -1.4350 -2.8487
15560TIP3    H268172   6.278   5.507   2.980  1.3099  0.3829  0.9732
15561TIP3   OH268173   6.179   4.634   2.683 -0.1151  0.4277  0.4303
15561TIP3    H168174   6.190   4.701   2.751 -0.4391  0.8138  0.1052
15561TIP3    H268175   6.257   4.644   2.628 -0.7523  1.3867 -0.3384
15562TIP3   OH268176   0.744   1.153   3.681  0.2696  0.1011  0.1081
15562TIP3    H168177   0.824   1.117   3.717  1.0769  1.0329 -0.7030
15562TIP3    H268178   0.772   1.203   3.604 -1.1432 -0.0124 -0.5182
15563TIP3   OH268179   4.634   0.409  15.018 -0.6575  0.8918  0.4884
15563TIP3    H168180   4.604   0.394  14.928 -0.9108 -3.3369  1.0623
15563TIP3    H268181   4.729   0.417  15.011 -0.5840 -0.2280 -0.1615
15564TIP3   OH268182   2.545   6.776  11.321  0.3434  0.4526  0.2561
15564TIP3    H168183   2.477   6.740  11.378  0.7340 -1.3912 -0.3808
15564TIP3    H268184   2.497   6.820  11.251 -0.2027 -0.6846 -0.0977
15565TIP3   OH268185   5.490   1.776   0.419 -0.1795  0.4841 -0.2461
15565TIP3    H168186   5.443   1.812   0.344  1.0995 -1.8288 -2.2943
15565TIP3    H268187   5.503   1.851   0.477 -2.4526  2.0742 -1.6180
15566TIP3   OH268188   0.876   3.096  14.829  0.0939 -0.6342 -0.8262
15566TIP3    H168189   0.880   3.177  14.881 -2.9213 -0.9006  0.0313
15566TIP3    H268190   0.952   3.045  14.858  1.0830  1.1617 -0.1187
15567TIP3   OH268191   5.594   3.615   5.627 -0.1231 -0.4396  0.2488
15567TIP3    H168192   5.645   3.627   5.708 -0.1150  0.5142  0.1096
15567TIP3    H268193   5.639   3.669   5.562  0.0551 -1.4466 -0.4867
15568TIP3   OH268194   6.499   2.367  13.101 -0.4799  0.1115 -0.8655
15568TIP3    H168195   6.487   2.422  13.023  0.9461 -1.2630 -2.1204
15568TIP3    H268196   6.589   2.336  13.095 -0.4965 -0.4200  1.0986
15569TIP3   OH268197   3.607   0.626  13.229 -0.1317 -0.0648  0.2252
15569TIP3    H168198   3.597   0.718  13.255 -0.2456 -0.1975  0.6605
15569TIP3    H268199   3.653   0.586  13.303 -0.8197 -0.5410  0.3940
15570TIP3   OH268200   0.578   2.506  11.024  0.3277 -0.1950 -0.7076
15570TIP3    H168201   0.671   2.529  11.018  0.1470  1.0121  0.6086
15570TIP3    H268202   0.541   2.572  11.082 -0.9902 -1.7483  0.3012
15571TIP3   OH268203   0.637   5.323  13.401 -0.5584  0.4902  0.3419
15571TIP3    H168204   0.545   5.346  13.417 -1.2048 -1.0036 -0.9682
15571TIP3    H268205   0.638   5.292  13.311  1.1311 -0.1247  0.5429
15572TIP3   OH268206   4.867   6.076  12.419  0.2726 -0.2619  0.7013
15572TIP3    H168207   4.945   6.122  12.450  0.0495  0.0537  0.8078
15572TIP3    H268208   4.890   6.044  12.332  0.4634 -0.0257  0.6638
15573TIP3   OH268209   5.576   1.043  15.048  0.0136 -0.1512 -0.0434
15573TIP3    H168210   5.555   1.098  14.973  2.2123  0.8998  0.0304
15573TIP3    H268211   5.528   1.082  15.121  1.7995  1.9853  0.0842
15574TIP3   OH268212   2.564   5.457   0.365  0.6567 -0.0205  0.0503
15574TIP3    H168213   2.478   5.483   0.397  0.3432 -0.7974 -0.1497
15574TIP3    H268214   2.607   5.419   0.442  0.6509 -0.0502  0.0389
15575TIP3   OH268215   6.113   5.504   4.166 -0.3459  0.3186  0.5090
15575TIP3    H168216   6.067   5.524   4.085 -2.3302  1.3548  1.8185
15575TIP3    H268217   6.158   5.585   4.190  2.3179 -0.6574 -0.7266
15576TIP3   OH268218   2.198   2.434  14.789  0.9585  0.1893 -0.3642
15576TIP3    H168219   2.104   2.446  14.783  0.9112  0.9102  1.2161
15576TIP3    H268220   2.224   2.403  14.702 -0.9880 -2.0715 -0.2392
15577TIP3   OH268221   6.411   4.648  10.554 -0.7472 -0.3107  0.3060
15577TIP3    H168222   6.371   4.713  10.612  1.9400  2.7301 -0.9069
15577TIP3    H268223   6.499   4.634  10.590 -0.1735 -0.8124 -1.1866
15578TIP3   OH268224   5.156   0.583  16.006  0.1761  0.2546  0.4232
15578TIP3    H168225   5.162   0.583  15.910  0.5685  0.0765  0.4486
15578TIP3    H268226   5.173   0.492  16.031 -0.1026  0.2643  0.6543
15579TIP3   OH268227   5.291   2.838  11.403  0.1349 -0.0314 -0.0850
15579TIP3    H168228   5.319   2.758  11.358  0.0215  1.1535 -2.4130
15579TIP3    H268229   5.241   2.807  11.478  2.7951 -2.1647  0.9790
15580TIP3   OH268230   0.347   2.501  14.889 -0.2049  0.0214  0.0155
15580TIP3    H168231   0.368   2.445  14.963 -1.5350  0.2704  0.6053
15580TIP3    H268232   0.279   2.560  14.921  0.6987  1.5742 -0.7668
15581TIP3   OH268233   2.943   0.949  12.908  0.4427 -0.3275  0.0137
15581TIP3    H168234   2.935   0.865  12.954 -0.0709 -0.8808 -1.0452
15581TIP3    H268235   2.987   0.926  12.826 -1.8684 -0.0032 -1.3886
15582TIP3   OH268236   4.278   5.933  15.413 -0.2228 -0.2785 -0.0047
15582TIP3    H168237   4.232   5.908  15.493  1.0739 -0.8720  0.5949
15582TIP3    H268238   4.321   5.852  15.384  1.2563  0.4450  0.0442
15583TIP3   OH268239   2.163   2.088   3.911 -0.8930  0.1664  0.0425
15583TIP3    H168240   2.072   2.093   3.885 -1.5253  0.6914  2.1862
15583TIP3    H268241   2.184   2.175   3.945  0.1059 -0.2175  0.4587
15584TIP3   OH268242   5.422   2.071   5.714 -0.6247 -0.1751 -0.1320
15584TIP3    H168243   5.458   2.139   5.772  1.1974  0.1620 -1.5887
15584TIP3    H268244   5.497   2.017   5.691 -1.7448 -1.6764 -0.4007
15585TIP3   OH268245   5.212   1.753   6.065 -0.0282  0.0544 -0.4805
15585TIP3    H168246   5.183   1.843   6.080 -0.3520 -0.0326 -0.5796
15585TIP3    H268247   5.297   1.762   6.021  0.6307  0.3108  0.7704
15586TIP3   OH268248   0.342   0.301  10.978  0.6072 -0.2862  0.7676
15586TIP3    H168249   0.379   0.326  11.063  1.3349  1.6115 -0.0669
15586TIP3    H268250   0.414   0.312  10.916 -0.9021  2.2853 -0.7181
15587TIP3   OH268251   1.802   4.786   2.629  0.1338 -0.6379  0.2014
15587TIP3    H168252   1.803   4.716   2.564 -2.5674  0.4265 -1.1816
15587TIP3    H268253   1.752   4.751   2.702 -1.1420 -0.2573 -0.4538
15588TIP3   OH268254   4.334   1.412  16.751 -0.2517 -0.4911  0.1229
15588TIP3    H168255   4.380   1.461  16.682 -1.4693  0.1805 -0.2493
15588TIP3    H268256   4.249   1.390  16.712 -1.5465  1.1055  1.8193
15589TIP3   OH268257   6.260   4.374   0.023  0.2169 -0.6627 -0.1529
15589TIP3    H168258   6.338   4.422   0.051 -0.2436 -1.0841  2.0968
15589TIP3    H268259   6.213   4.435  -0.034 -0.0609  1.4231  2.1264
15590TIP3   OH268260   0.305   4.103   3.750  0.2649 -0.3180 -0.3531
15590TIP3    H168261   0.274   4.061   3.830 -1.2397  1.6852  0.2050
15590TIP3    H268262   0.370   4.166   3.780 -1.7748  1.9229 -0.3349
15591TIP3   OH268263   3.817   6.571   0.907  0.3699 -0.5631  0.1059
15591TIP3    H168264   3.742   6.512   0.919  0.7800 -1.2526 -0.5990
15591TIP3    H268265   3.803   6.610   0.821 -0.9265  1.9406  1.3442
15592TIP3   OH268266   5.153   1.232  16.332  0.0434 -0.0452 -0.5757
15592TIP3    H168267   5.140   1.206  16.423  0.1631 -0.7732 -0.7593
15592TIP3    H268268   5.181   1.323  16.337  0.5270 -0.2228  0.1503
15593TIP3   OH268269   1.579   0.479   2.171 -0.0261 -0.1610 -0.2274
15593TIP3    H168270   1.549   0.390   2.153 -1.9630  0.0272  1.5605
15593TIP3    H268271   1.674   0.473   2.175 -0.0670 -1.9277 -1.0869
15594TIP3   OH268272   1.913   6.429   2.055 -0.3055 -0.2387 -0.1202
15594TIP3    H168273   1.960   6.347   2.070  0.4886  0.3736  0.8666
15594TIP3    H268274   1.840   6.426   2.118 -0.1236 -0.0824  0.1015
15595TIP3   OH268275   4.344   0.043   3.742  0.2879 -0.1937 -0.0932
15595TIP3    H168276   4.297  -0.029   3.783  0.9553  0.2961  1.6168
15595TIP3    H268277   4.318   0.120   3.793  0.8951  0.4986 -0.8081
15596TIP3   OH268278   5.023   0.090  12.936  0.6327 -0.0850  0.1799
15596TIP3    H168279   5.038   0.166  12.879 -1.0228  1.2527  1.4230
15596TIP3    H268280   4.984   0.025  12.878  0.2341  0.7510 -0.5160
15597TIP3   OH268281   0.244   5.501   3.659 -0.3307  0.7128  0.0975
15597TIP3    H168282   0.205   5.413   3.658  0.8528  0.1611  0.4962
15597TIP3    H268283   0.234   5.531   3.749 -0.5234  0.8937  0.0169
15598TIP3   OH268284   4.977   1.776   2.634  0.3570 -0.0875  0.7025
15598TIP3    H168285   4.950   1.867   2.641 -1.3184 -0.4658 -0.2985
15598TIP3    H268286   5.073   1.779   2.634  0.3331  1.7506 -0.1991
15599TIP3   OH268287   5.477   0.409  10.667 -0.0569 -0.2409 -0.8441
15599TIP3    H168288   5.530   0.331  10.686  0.4978  0.0070 -1.3475
15599TIP3    H268289   5.429   0.425  10.748  3.3373  1.6363  1.0056
15600TIP3   OH268290   1.855   3.211  14.425  0.2189  0.0907 -0.5393
15600TIP3    H168291   1.815   3.124  14.437  2.8601 -1.2656 -0.9674
15600TIP3    H268292   1.783   3.272  14.440 -1.8498 -2.1673 -0.6584
15601TIP3   OH268293   5.269   2.322   4.744  0.6853 -0.5045  0.5580
15601TIP3    H168294   5.290   2.322   4.837 -0.7941 -0.2838  0.9273
15601TIP3    H268295   5.179   2.289   4.740 -0.3506  2.1533 -0.4711
15602TIP3   OH268296   6.238   1.551  11.497  0.2161  0.3844 -0.0988
15602TIP3    H168297   6.286   1.557  11.580 -1.1959  2.5094  0.6527
15602TIP3    H268298   6.242   1.640  11.461 -1.2795  0.0747 -1.1026
15603TIP3   OH268299   2.616   6.261  16.204  0.5642  0.2935  0.0397
15603TIP3    H168300   2.537   6.315  16.208  1.5758  1.8832 -0.7061
15603TIP3    H268301   2.682   6.318  16.165  2.0874 -1.0124  0.6328
15604TIP3   OH268302   0.620   2.748  15.108  0.3750 -0.3852  0.3170
15604TIP3    H168303   0.635   2.832  15.065  0.9852  0.0989  1.4394
15604TIP3    H268304   0.643   2.683  15.041 -0.8399  0.3055 -0.8268
15605TIP3   OH268305   6.788   6.543   5.273  0.5662  0.4965  0.0780
15605TIP3    H168306   6.860   6.606   5.277 -0.5405  1.7712  1.4802
15605TIP3    H268307   6.744   6.553   5.358  0.3739 -2.2499  0.3806
15606TIP3   OH268308   1.677   3.612   5.575 -0.5174 -0.2056  0.1750
15606TIP3    H168309   1.693   3.631   5.483  1.2117 -1.2283  0.2177
15606TIP3    H268310   1.657   3.697   5.614 -1.0666  0.2724 -1.0817
15607TIP3   OH268311   6.684   0.817  14.697 -0.3943 -0.0551  0.2510
15607TIP3    H168312   6.748   0.875  14.737 -1.2996 -0.2058  2.0255
15607TIP3    H268313   6.677   0.847  14.606  0.1630  1.7194  0.7654
15608TIP3   OH268314   3.129   2.129   1.303  0.5002 -0.3070 -0.5797
15608TIP3    H168315   3.040   2.111   1.331  1.0896 -1.6307  0.5641
15608TIP3    H268316   3.156   2.205   1.355  0.0464  0.1007 -0.9356
15609TIP3   OH268317   4.620   5.326  12.955  0.1759 -0.4750 -0.2439
15609TIP3    H168318   4.611   5.278  12.873  0.1359 -1.1779  0.1683
15609TIP3    H268319   4.625   5.418  12.928  1.1457 -0.7569 -1.1008
15610TIP3   OH268320   5.261   5.947   3.564 -0.3578  0.0113 -0.0286
15610TIP3    H168321   5.216   5.965   3.647  1.3741 -1.3226  1.2678
15610TIP3    H268322   5.350   5.979   3.577  0.6302 -2.3558 -0.4195
15611TIP3   OH268323   3.094   3.512   3.637 -0.4481  0.4167 -0.3241
15611TIP3    H168324   3.108   3.485   3.546  1.0971 -0.5110  0.1648
15611TIP3    H268325   2.999   3.529   3.642 -0.9638 -1.7544 -1.5218
15612TIP3   OH268326   6.437   6.401   4.976  0.0917 -0.5829  0.9981
15612TIP3    H168327   6.346   6.372   4.972  0.6599 -2.3020 -1.5484
15612TIP3    H268328   6.484   6.325   5.010  0.8424 -0.5492  0.0639
15613TIP3   OH268329   2.911   1.171  14.520 -0.0229 -0.3549  0.1308
15613TIP3    H168330   2.827   1.213  14.541  0.9625  0.5646  2.4836
15613TIP3    H268331   2.961   1.239  14.475  0.1581 -0.2892  0.4342
15614TIP3   OH268332   2.317   0.458   4.860 -0.0037  0.2564 -0.5925
15614TIP3    H168333   2.294   0.432   4.771  2.6404 -0.2655 -1.1913
15614TIP3    H268334   2.322   0.376   4.908  4.0624 -0.1814 -1.4305
15615TIP3   OH268335   0.895   0.195   4.446  0.2153  0.2711 -0.7116
15615TIP3    H168336   0.857   0.156   4.525  0.9260 -1.2416 -1.0839
15615TIP3    H268337   0.819   0.220   4.393 -0.3007 -1.8257 -1.0184
15616TIP3   OH268338   1.727   4.702  16.863  0.1530 -0.1396 -0.1534
15616TIP3    H168339   1.720   4.778  16.921  0.6188  1.3657 -1.9759
15616TIP3    H268340   1.804   4.655  16.894 -0.4014 -0.1470  1.2897
15617TIP3   OH268341   5.727   4.868   2.224 -0.3582  0.9517 -0.2314
15617TIP3    H168342   5.800   4.900   2.171 -0.5791  0.5224 -0.8123
15617TIP3    H268343   5.682   4.946   2.255 -1.2212  1.2452 -2.0768
15618TIP3   OH268344   3.462   6.596  13.186  0.1910  0.2490  0.4025
15618TIP3    H168345   3.502   6.670  13.232 -2.3165  0.6037  2.2194
15618TIP3    H268346   3.439   6.630  13.100 -1.3806  1.8190  1.3837
15619TIP3   OH268347   3.044   4.490   0.708  0.0311  0.3223 -0.1030
15619TIP3    H168348   3.013   4.420   0.766 -0.7786 -0.7564 -1.7738
15619TIP3    H268349   3.137   4.471   0.696 -0.5413 -1.6741 -2.0320
15620TIP3   OH268350   0.841   1.104  16.247  0.9555  0.0872  0.0414
15620TIP3    H168351   0.833   1.048  16.169 -3.5357  0.5533 -0.0861
15620TIP3    H268352   0.887   1.182  16.216  1.0564 -0.5843 -1.6095
15621TIP3   OH268353   6.238   1.636  17.094 -0.1574 -0.0432 -0.3079
15621TIP3    H168354   6.236   1.552  17.140 -3.0150 -0.8270 -1.6488
15621TIP3    H268355   6.305   1.624  17.026  0.8137 -0.5044  0.6993
15622TIP3   OH268356   0.762   2.727  17.207 -0.5672 -0.2786  0.2269
15622TIP3    H168357   0.667   2.737  17.209 -0.6194 -0.7940  1.2606
15622TIP3    H268358   0.783   2.683  17.290  0.5352 -0.4717 -0.1355
15623TIP3   OH268359   1.527   5.984  12.243 -0.3313  0.2656  0.3028
15623TIP3    H168360   1.576   5.960  12.165 -1.0883 -0.0322 -0.0858
15623TIP3    H268361   1.443   5.940  12.234 -0.0702 -0.6028  1.7744
15624TIP3   OH268362   0.107   2.230  15.393  0.3549 -0.2960 -0.3854
15624TIP3    H168363   0.159   2.152  15.411  1.1342  0.0545 -1.0680
15624TIP3    H268364   0.109   2.240  15.298  0.0304  0.3939 -0.3317
15625TIP3   OH268365   6.733   3.702  11.292 -0.3115 -0.6509 -0.2067
15625TIP3    H168366   6.712   3.741  11.207  0.5238  0.0982 -0.0860
15625TIP3    H268367   6.756   3.612  11.272 -4.7853 -2.0197 -0.2141
15626TIP3   OH268368   3.555   3.062  11.697 -0.3129 -0.0450  0.1489
15626TIP3    H168369   3.561   3.144  11.649  0.2776  1.7038  3.0478
15626TIP3    H268370   3.627   3.009  11.662  0.6730  1.5036 -0.2795
15627TIP3   OH268371   0.742   3.803  15.761 -0.0187 -0.0369  0.0807
15627TIP3    H168372   0.739   3.773  15.851  1.7669  0.4290  0.3300
15627TIP3    H268373   0.659   3.774  15.723 -0.7393 -0.3488  1.8173
15628TIP3   OH268374   1.581   3.248  15.274  0.2492 -0.2423  0.2944
15628TIP3    H168375   1.574   3.157  15.302  1.4958 -0.5807 -0.4066
15628TIP3    H268376   1.580   3.299  15.355  0.0078 -0.9110  0.7180
15629TIP3   OH268377   0.608   5.916  11.348 -0.5446  0.4591 -0.4045
15629TIP3    H168378   0.589   5.941  11.258 -0.3797  0.7635 -0.3555
15629TIP3    H268379   0.663   5.838  11.339  1.1945  1.6575 -0.6271
15630TIP3   OH268380   1.716   4.694  12.888 -0.0404  0.2048 -0.2884
15630TIP3    H168381   1.805   4.685  12.853  0.6482 -0.7368  1.5791
15630TIP3    H268382   1.671   4.615  12.860  0.4782 -0.4981  0.7974
15631TIP3   OH268383   6.659   5.251  16.788  0.0368  0.3083 -0.3406
15631TIP3    H168384   6.613   5.301  16.721 -0.2150 -0.8336 -1.0371
15631TIP3    H268385   6.604   5.174  16.803  0.6009  0.0420  0.4512
15632TIP3   OH268386   2.222   2.053  11.416 -0.2173  0.0378  0.4044
15632TIP3    H168387   2.151   2.100  11.373  0.6433 -0.4116 -1.6343
15632TIP3    H268388   2.294   2.116  11.420  0.0695 -0.2618  0.1191
15633TIP3   OH268389   1.737   2.526   2.377  0.5721  0.6383  0.4972
15633TIP3    H168390   1.761   2.571   2.296  0.7280  0.0809  0.2354
15633TIP3    H268391   1.791   2.568   2.444  0.2336  1.2983  0.3658
15634TIP3   OH268392   4.857   3.793   1.127  0.2066  0.1711 -0.3752
15634TIP3    H168393   4.937   3.750   1.096 -1.1721 -0.4617 -3.4543
15634TIP3    H268394   4.876   3.887   1.121  1.9302  0.1766  2.7449
15635TIP3   OH268395   6.521   2.349  14.359 -0.1063 -0.3974  0.2106
15635TIP3    H168396   6.601   2.298  14.346 -0.2208 -0.7636  0.8770
15635TIP3    H268397   6.547   2.439  14.341  0.0980 -0.6742 -0.9892
15636TIP3   OH268398   1.738   2.847  12.345  0.3119 -0.2417 -0.2158
15636TIP3    H168399   1.827   2.881  12.355 -0.3824  1.3356  1.1314
15636TIP3    H268400   1.688   2.920  12.310 -1.4002  0.6035  3.4822
15637TIP3   OH268401   1.995   0.151   1.049  0.7288 -0.0665  0.4611
15637TIP3    H168402   2.049   0.072   1.049  0.9470  0.0781 -0.4821
15637TIP3    H268403   2.027   0.201   1.124 -0.2566 -1.4163  1.8559
15638TIP3   OH268404   5.879   2.840   6.055  0.0240  0.3349 -0.4703
15638TIP3    H168405   5.818   2.780   6.096  0.5612 -0.0320 -0.1905
15638TIP3    H268406   5.954   2.842   6.114  0.4812  0.4083 -1.0405
15639TIP3   OH268407   4.538   6.481  16.064  0.3790 -0.7064 -0.0339
15639TIP3    H168408   4.443   6.477  16.052  0.3417 -1.2172  0.3987
15639TIP3    H268409   4.569   6.397  16.029  0.2837 -2.2361  3.2315
15640TIP3   OH268410   5.333   0.391   1.951 -0.1955  0.0229 -0.0924
15640TIP3    H168411   5.247   0.362   1.980 -0.1321  0.7559  0.8567
15640TIP3    H268412   5.368   0.441   2.025  1.5579 -1.3014  0.0219
15641TIP3   OH268413   2.103   2.246   4.136 -0.2626  0.4970  0.3738
15641TIP3    H168414   2.069   2.176   4.193 -1.2191  0.7898  0.1841
15641TIP3    H268415   2.035   2.313   4.137 -0.6844  0.1743 -1.7258
15642TIP3   OH268416   0.382   2.581   5.073  0.2730 -0.4001  0.2865
15642TIP3    H168417   0.378   2.630   5.156  1.5246  0.5962 -0.1879
15642TIP3    H268418   0.468   2.539   5.075  1.4736  1.7340 -1.5584
15643TIP3   OH268419   6.141   6.588  13.594  0.4219 -0.3612  0.1753
15643TIP3    H168420   6.211   6.562  13.534  0.6950 -1.1239  0.8022
15643TIP3    H268421   6.147   6.525  13.666 -0.9520 -0.4782  0.2108
15644TIP3   OH268422   6.569   3.077   1.183  0.1568 -0.5798  0.1312
15644TIP3    H168423   6.632   3.076   1.255 -2.4878  1.0373  2.7011
15644TIP3    H268424   6.537   2.987   1.178 -1.0870 -0.3375  2.5156
15645TIP3   OH268425   1.036   1.693   5.804 -0.9015 -0.3970 -0.4814
15645TIP3    H168426   1.035   1.639   5.883 -1.6714 -0.5391 -0.5895
15645TIP3    H268427   0.944   1.701   5.778 -0.8350  1.0776 -0.3767
15646TIP3   OH268428   2.843   5.924   4.562  0.0758  0.3503 -0.8139
15646TIP3    H168429   2.855   6.018   4.572 -3.1075  0.7375  0.7669
15646TIP3    H268430   2.755   5.915   4.525 -1.1543 -1.9231  2.1979
15647TIP3   OH268431   6.062   2.128  16.419  0.2095 -0.8775  0.5003
15647TIP3    H168432   5.996   2.079  16.469  0.2611 -1.7193 -0.2265
15647TIP3    H268433   6.139   2.128  16.476  0.1959 -1.6314  0.5342
15648TIP3   OH268434   5.678   2.029  12.637 -0.0867  0.5590 -0.2560
15648TIP3    H168435   5.594   2.020  12.592 -0.0699 -0.8927 -0.0473
15648TIP3    H268436   5.655   2.047  12.728 -0.1513  0.9551 -0.3482
15649TIP3   OH268437   4.462   2.682   1.985 -0.4973 -0.5105 -0.1676
15649TIP3    H168438   4.523   2.634   2.041  1.0716 -0.3364 -1.6416
15649TIP3    H268439   4.508   2.689   1.901 -1.5736  1.6670 -0.6364
15650TIP3   OH268440   4.084   3.212  13.475 -0.5154  0.3683 -0.2508
15650TIP3    H168441   4.048   3.300  13.489 -0.3649  0.2705  0.7671
15650TIP3    H268442   4.051   3.187  13.388 -1.2871  1.0692 -0.1742
15651TIP3   OH268443   4.793   2.932  14.912  0.2634 -0.1460  0.4839
15651TIP3    H168444   4.796   2.837  14.903 -0.3683 -0.0557 -0.9511
15651TIP3    H268445   4.871   2.962  14.865 -0.3072  0.1092 -0.3075
15652TIP3   OH268446   6.633   6.695  14.522  0.2429  0.1854  0.1337
15652TIP3    H168447   6.568   6.664  14.459  0.8409 -1.0069  0.0705
15652TIP3    H268448   6.611   6.648  14.603 -0.2360  1.3530  0.7061
15653TIP3   OH268449   6.282   1.839  13.449 -0.3799 -0.1086 -0.9773
15653TIP3    H168450   6.190   1.818  13.461 -0.1420 -1.3110 -1.1541
15653TIP3    H268451   6.321   1.758  13.417  1.3697 -0.6614  2.1347
15654TIP3   OH268452   5.229   5.489   2.866  0.5452 -0.0927  0.4881
15654TIP3    H168453   5.135   5.486   2.885  0.3553  2.2400  0.1835
15654TIP3    H268454   5.253   5.398   2.848 -2.3588 -0.3991 -2.8355
15655TIP3   OH268455   1.489   1.436  12.924 -0.1375 -0.6354  0.3764
15655TIP3    H168456   1.568   1.416  12.974 -0.5049  1.3413  1.9037
15655TIP3    H268457   1.490   1.532  12.915 -1.9825 -0.6173 -0.2040
15656TIP3   OH268458   2.280   4.105   5.798 -0.3629 -0.0481  0.4309
15656TIP3    H168459   2.319   4.075   5.880  0.2466 -0.2569  0.0744
15656TIP3    H268460   2.307   4.040   5.733 -0.9712  0.0292  0.0903
15657TIP3   OH268461   6.135   2.807   3.483  0.3217  0.3133  0.3258
15657TIP3    H168462   6.177   2.758   3.412 -0.6479 -0.1009  0.0167
15657TIP3    H268463   6.132   2.897   3.451  0.9829  0.3540  0.3632
15658TIP3   OH268464   1.416   3.786   6.267  0.1800  0.2722  0.2471
15658TIP3    H168465   1.415   3.809   6.360 -2.2774 -0.2920  0.4335
15658TIP3    H268466   1.413   3.690   6.266  0.8648  0.2549 -0.4214
15659TIP3   OH268467   0.768   6.660  13.518 -0.0077  0.0329  0.3097
15659TIP3    H168468   0.752   6.739  13.467 -1.7692 -0.0898  0.6295
15659TIP3    H268469   0.786   6.692  13.607  0.1558  0.1029  0.2525
15660TIP3   OH268470   2.800   1.435  15.507  0.2722  0.2889 -0.0130
15660TIP3    H168471   2.774   1.427  15.599 -0.5982  1.4677 -0.1345
15660TIP3    H268472   2.867   1.367  15.495 -1.3383 -1.5558  0.8427
15661TIP3   OH268473   2.269   4.007   3.988  0.4328 -0.4627 -0.3513
15661TIP3    H168474   2.190   3.988   3.937  0.5754 -1.2656 -0.2873
15661TIP3    H268475   2.245   3.987   4.078  0.2303  0.8131 -0.1091
15662TIP3   OH268476   3.176   4.238  12.690  0.1092 -0.3383 -0.0860
15662TIP3    H168477   3.159   4.327  12.722  0.4671 -0.4179  0.3272
15662TIP3    H268478   3.090   4.197  12.686 -0.0902  0.1050 -0.5215
15663TIP3   OH268479   0.992   6.296  11.947 -0.1721 -0.4833 -0.3122
15663TIP3    H168480   0.945   6.276  12.028  0.1562  0.2630  0.0748
15663TIP3    H268481   1.084   6.281  11.969  0.0402  0.9176 -0.1518
15664TIP3   OH268482   3.154   0.543   1.278 -0.3694 -0.0210  0.2013
15664TIP3    H168483   3.154   0.487   1.200 -1.4080  0.7109 -0.3565
15664TIP3    H268484   3.208   0.618   1.253  0.2438 -0.3138  0.6121
15665TIP3   OH268485   1.285   3.721   6.518  0.3648 -0.7166 -0.0775
15665TIP3    H168486   1.340   3.799   6.511  1.0593 -1.1186  0.6768
15665TIP3    H268487   1.335   3.662   6.574 -0.0081 -1.8223 -0.8666
15666TIP3   OH268488   2.537   6.714   2.260 -0.2392 -0.7923  0.7244
15666TIP3    H168489   2.558   6.728   2.168  0.2167  1.0501  1.0649
15666TIP3    H268490   2.621   6.723   2.305 -0.7734  0.4679  1.5178
15667TIP3   OH268491   2.415   4.964   3.442 -0.1782 -0.0766 -0.6770
15667TIP3    H168492   2.495   4.976   3.495  0.1241 -0.3246 -1.0697
15667TIP3    H268493   2.414   4.870   3.423 -1.4166 -0.3623  0.6509
15668TIP3   OH268494   0.816   5.434  15.398 -0.4306 -0.1321 -0.2473
15668TIP3    H168495   0.837   5.367  15.333 -3.0460 -0.4409 -0.8665
15668TIP3    H268496   0.867   5.511  15.371  1.1319 -1.2667 -0.6286
15669TIP3   OH268497   2.921   4.678   3.902 -0.4941  0.0722  0.6268
15669TIP3    H168498   2.937   4.716   3.988  1.6970  2.2986 -0.6495
15669TIP3    H268499   2.974   4.598   3.901  1.6627  1.4146  0.5096
15670TIP3   OH268500   0.381   4.560  11.482  0.3493  0.2180  0.7563
15670TIP3    H168501   0.445   4.619  11.521  0.9442 -0.7244  1.2194
15670TIP3    H268502   0.378   4.485  11.540 -0.9003  0.0740  0.5328
15671TIP3   OH268503   2.616   0.366   4.954  0.3631 -0.0566  0.2361
15671TIP3    H168504   2.538   0.317   4.979  0.1257  0.0690 -0.2441
15671TIP3    H268505   2.590   0.458   4.961  0.2631 -0.0201 -0.5455
15672TIP3   OH268506   4.322   5.093   5.521  0.4867 -0.5431  0.0283
15672TIP3    H168507   4.246   5.128   5.475  0.9462 -1.0073 -1.1300
15672TIP3    H268508   4.396   5.145   5.488  0.7474 -0.4749  0.7097
15673TIP3   OH268509   2.181   4.680   2.812  0.0770  0.3866  0.1574
15673TIP3    H168510   2.269   4.666   2.776 -0.1433  0.3797 -0.3818
15673TIP3    H268511   2.189   4.757   2.868  0.4737  0.2584  0.2804
15674TIP3   OH268512   5.696   6.739  14.878 -0.0418 -0.5822 -0.2703
15674TIP3    H168513   5.609   6.759  14.844 -1.0712 -1.7199  1.5129
15674TIP3    H268514   5.755   6.797  14.830 -1.7648  0.1783 -1.5662
15675TIP3   OH268515   0.578   1.567   5.222  0.1751  0.3185  0.5013
15675TIP3    H168516   0.492   1.585   5.261  0.1243 -1.5251  1.3498
15675TIP3    H268517   0.639   1.621   5.272 -0.0557 -1.0842  2.4006
15676TIP3   OH268518   2.291   6.765   4.848  0.2481  0.3513  0.0217
15676TIP3    H168519   2.226   6.818   4.802  0.1206  1.3098  1.2571
15676TIP3    H268520   2.268   6.774   4.940  0.3570 -1.7021  0.2906
15677TIP3   OH268521   5.107   6.113  16.100 -0.2764  0.2228  0.0810
15677TIP3    H168522   5.162   6.047  16.058 -0.2540 -1.1125  2.1082
15677TIP3    H268523   5.018   6.082  16.087 -0.2410 -0.5669  1.5208
15678TIP3   OH268524   6.727   0.874  12.304  0.0909  0.3187 -0.5707
15678TIP3    H168525   6.792   0.931  12.344  1.7835 -1.5238 -0.5611
15678TIP3    H268526   6.693   0.924  12.230  0.6027  1.7997  0.1604
15679TIP3   OH268527   1.809   3.128  16.137  0.0290 -0.4628 -0.0207
15679TIP3    H168528   1.873   3.158  16.201  2.0999 -0.4974 -1.9525
15679TIP3    H268529   1.771   3.049  16.177  1.1607 -0.4246  1.2087
15680TIP3   OH268530   1.408   5.794  15.223  0.0099  0.3055 -0.1033
15680TIP3    H168531   1.383   5.777  15.132 -1.8689 -1.6390  0.6630
15680TIP3    H268532   1.325   5.814  15.266 -0.1535 -3.8961  2.1061
15681TIP3   OH268533   0.923   2.206  16.525  0.1590 -0.4640  0.5365
15681TIP3    H168534   0.969   2.290  16.512 -1.4134  0.5036  0.9634
15681TIP3    H268535   0.885   2.213  16.612 -0.3941 -1.4388  0.3815
15682TIP3   OH268536   2.357   5.715  11.634  0.2961  0.5186 -0.5357
15682TIP3    H168537   2.379   5.732  11.726  1.6418  0.4190 -0.8304
15682TIP3    H268538   2.417   5.771  11.584  1.1534 -1.1187 -1.4010
15683TIP3   OH268539   1.159   4.108   4.861 -0.0500  0.2370 -0.2497
15683TIP3    H168540   1.209   4.056   4.924  0.7208  0.3934 -0.7206
15683TIP3    H268541   1.207   4.190   4.853 -2.2597  1.9010  1.9250
15684TIP3   OH268542   5.066   3.450  13.533  0.0760 -0.1203  0.4137
15684TIP3    H168543   5.155   3.480  13.551 -0.5129  1.1770  1.3201
15684TIP3    H268544   5.043   3.492  13.450  0.5153 -0.9256 -0.1160
15685TIP3   OH268545   4.240   0.870   1.993  0.0654  0.4407 -0.8274
15685TIP3    H168546   4.186   0.838   2.065 -0.9927 -0.9197 -2.1595
15685TIP3    H268547   4.324   0.892   2.034 -0.3886 -0.6119  0.7556
15686TIP3   OH268548   0.897   3.517  11.468 -0.0257 -0.2595  0.1419
15686TIP3    H168549   0.976   3.464  11.468 -0.2595 -0.6181  0.4413
15686TIP3    H268550   0.925   3.603  11.438  0.5584 -0.2655  0.6599
15687TIP3   OH268551   6.139   1.516   1.011 -0.0230 -0.1748  0.2250
15687TIP3    H168552   6.197   1.496   1.085  0.6745 -3.8804 -1.1281
15687TIP3    H268553   6.054   1.530   1.052  0.9629  1.3577  1.9409
15688TIP3   OH268554   3.721   4.662   1.327  1.0004  0.0979 -0.8071
15688TIP3    H168555   3.640   4.711   1.314  0.8917 -0.2701 -1.5177
15688TIP3    H268556   3.693   4.572   1.340  1.2745  0.0297 -0.6736
15689TIP3   OH268557   1.208   2.088  10.714 -0.1454  0.3068  0.1652
15689TIP3    H168558   1.236   1.996  10.721 -1.0463  0.1667  2.7869
15689TIP3    H268559   1.117   2.083  10.684  0.5049  0.4974 -1.9859
15690TIP3   OH268560   0.974   4.656  12.098 -0.4973 -0.1253 -0.5354
15690TIP3    H168561   1.065   4.626  12.090 -0.2245  0.9467 -1.7992
15690TIP3    H268562   0.934   4.632  12.015 -1.6023 -1.2649  0.3037
15691TIP3   OH268563   4.056   0.273  11.928 -0.0093 -0.6183  0.0569
15691TIP3    H168564   3.974   0.226  11.938  0.9558 -2.0405  2.0166
15691TIP3    H268565   4.117   0.209  11.891  0.1426  0.5790 -1.9256
15692TIP3   OH268566   4.173   0.111  12.319  0.3417 -0.4025 -0.3075
15692TIP3    H168567   4.120   0.057  12.377 -1.1877 -0.5553 -1.7918
15692TIP3    H268568   4.116   0.184  12.295  1.5083  0.5310 -0.3770
15693TIP3   OH268569   3.227   5.680  10.393  0.0341  0.2303  0.0313
15693TIP3    H168570   3.231   5.739  10.317 -3.5682  1.0987  0.3576
15693TIP3    H268571   3.220   5.738  10.468 -1.7061 -0.5802  0.5320
15694TIP3   OH268572   5.728   2.192   6.574  0.0458  0.4766  0.1120
15694TIP3    H168573   5.691   2.193   6.486  1.8450  2.9035 -0.7438
15694TIP3    H268574   5.686   2.118   6.617 -1.0655 -0.6778 -2.6965
15695TIP3   OH268575   2.470   6.196   4.051 -0.7618 -0.1708 -0.2809
15695TIP3    H168576   2.540   6.173   4.111 -1.9390  1.7017  1.9507
15695TIP3    H268577   2.446   6.113   4.010  0.5254 -1.4247  1.3640
15696TIP3   OH268578   3.497   2.172   3.391  0.2353 -0.6821 -0.5111
15696TIP3    H168579   3.465   2.084   3.409 -0.7818 -0.4970 -1.3558
15696TIP3    H268580   3.587   2.159   3.362  0.4445 -1.3442  0.3793
15697TIP3   OH268581   0.009   6.392   4.431 -0.2997 -0.2236  0.6387
15697TIP3    H168582  -0.050   6.465   4.448 -0.4418 -0.5014  1.4015
15697TIP3    H268583   0.017   6.388   4.336 -0.0421  0.9822  0.5986
15698TIP3   OH268584   5.469   5.733   3.501  0.0827 -0.4671 -0.4907
15698TIP3    H168585   5.468   5.765   3.410 -1.5503 -1.0802 -0.7193
15698TIP3    H268586   5.403   5.786   3.545  0.7488 -0.2937  0.3250
15699TIP3   OH268587   0.211   3.632   1.347 -0.0021  0.0466  0.1871
15699TIP3    H168588   0.267   3.599   1.418  0.9120  0.9079 -0.1099
15699TIP3    H268589   0.245   3.588   1.268 -1.0445 -0.9453  0.2582
15700TIP3   OH268590   4.751   6.512  10.857  0.6694 -0.4023  0.0602
15700TIP3    H168591   4.705   6.596  10.856  1.0312 -0.1329  2.2433
15700TIP3    H268592   4.834   6.529  10.814 -0.7085 -0.6209 -2.9255
15701TIP3   OH268593   4.756   6.390  16.409  0.2661 -0.1143  0.5899
15701TIP3    H168594   4.780   6.330  16.338 -0.0540  1.3345 -0.7951
15701TIP3    H268595   4.660   6.394  16.406  0.3117  1.0836  0.1028
15702TIP3   OH268596   4.888   3.439  14.600  0.5338  0.2693  0.0680
15702TIP3    H168597   4.825   3.368  14.588  0.7495  0.1733 -0.5768
15702TIP3    H268598   4.884   3.488  14.518  0.5758  0.8545  0.4092
15703TIP3   OH268599   4.456   4.953  11.864 -0.1933 -0.0793 -0.4689
15703TIP3    H168600   4.518   4.934  11.934 -0.4367 -2.0985 -0.7309
15703TIP3    H268601   4.509   4.956  11.785 -0.1746  0.2103 -0.4463
15704TIP3   OH268602   6.592   0.787  11.975 -0.2273 -0.4030  0.2447
15704TIP3    H168603   6.625   0.701  11.949  0.1588 -0.1640 -0.0692
15704TIP3    H268604   6.666   0.827  12.021 -0.8515 -0.7611  1.5866
15705TIP3   OH268605   4.129   2.611  12.384  0.3707 -0.1487 -0.6368
15705TIP3    H168606   4.077   2.633  12.306  0.2565  2.4010  0.0585
15705TIP3    H268607   4.066   2.575  12.445 -0.2455  1.0663 -0.5231
15706TIP3   OH268608   4.192   3.287   5.534 -1.0103 -0.0156  0.1622
15706TIP3    H168609   4.269   3.344   5.539 -0.7584 -0.3871  0.4946
15706TIP3    H268610   4.121   3.346   5.508 -0.5798  0.2961 -0.3388
15707TIP3   OH268611   1.898   5.901  12.590 -0.2699 -0.0694  0.6027
15707TIP3    H168612   1.886   5.994  12.606 -0.6158 -0.0336  0.1622
15707TIP3    H268613   1.826   5.878  12.530 -0.0653 -0.5705  0.5492
15708TIP3   OH268614   6.432   5.259  16.045  0.0218  0.2505 -0.0831
15708TIP3    H168615   6.415   5.186  16.105 -0.2516  1.0542  0.8283
15708TIP3    H268616   6.344   5.287  16.017  0.1136  0.5074 -0.1100
15709TIP3   OH268617   0.789   1.914  16.683 -0.2167 -0.6309  0.0089
15709TIP3    H168618   0.824   1.868  16.607 -0.0215 -0.7575  0.1740
15709TIP3    H268619   0.694   1.909  16.673 -0.2136 -1.7183  0.4003
15710TIP3   OH268620   6.202   5.770   2.662  0.6899 -0.2276 -0.0044
15710TIP3    H168621   6.149   5.757   2.740  0.9768  0.2494  0.2701
15710TIP3    H268622   6.238   5.858   2.671  0.4809 -0.0522 -0.8237
15711TIP3   OH268623   0.059   1.746  16.947  0.1770 -0.4635  0.4755
15711TIP3    H168624   0.099   1.675  16.898 -0.9502 -0.8819  0.1403
15711TIP3    H268625  -0.010   1.705  16.998 -1.0672  0.4677 -0.3711
15712TIP3   OH268626   3.426   4.028   4.597  0.2081 -0.3496 -0.2179
15712TIP3    H168627   3.489   4.094   4.625 -1.4247  1.8196 -1.3322
15712TIP3    H268628   3.401   3.983   4.678  1.9417 -0.1883  0.4545
15713TIP3   OH268629   5.750   6.089  16.726  0.2742  0.5039 -0.3907
15713TIP3    H168630   5.828   6.112  16.777 -1.1514  0.8296  1.7601
15713TIP3    H268631   5.702   6.171  16.717 -0.7235 -0.0296 -0.0619
15714TIP3   OH268632   0.311   3.393  13.226 -0.3446 -0.5296  0.1022
15714TIP3    H168633   0.393   3.374  13.181  0.3106  0.9771  0.6177
15714TIP3    H268634   0.259   3.313  13.215  1.5042 -1.8430  0.4962
15715TIP3   OH268635   3.290   0.963  16.676  0.0879  0.1294  0.1682
15715TIP3    H168636   3.379   0.993  16.691  0.0879 -0.1474  0.7613
15715TIP3    H268637   3.299   0.875  16.638  0.1166 -1.5373  3.6133
15716TIP3   OH268638   1.406   6.375  12.366 -0.1987 -0.2408 -0.5426
15716TIP3    H168639   1.419   6.454  12.313 -0.2525  0.3188  0.2668
15716TIP3    H268640   1.313   6.355  12.355 -0.4988  0.6078  0.3293
15717TIP3   OH268641   1.694   5.223   0.133  0.7006 -0.4647  0.1951
15717TIP3    H168642   1.721   5.159   0.199  1.6930  0.0347  0.2972
15717TIP3    H268643   1.647   5.290   0.183 -0.7733 -1.3298  0.0195
15718TIP3   OH268644   5.864   6.439   4.147  0.1287 -0.4989  0.1952
15718TIP3    H168645   5.820   6.409   4.226 -1.4183 -0.5163 -0.6300
15718TIP3    H268646   5.945   6.388   4.143 -0.6182 -1.7745  0.8452
15719TIP3   OH268647   6.077   6.634   3.447 -0.1603  0.0349 -0.6439
15719TIP3    H168648   6.003   6.577   3.427 -0.2882  0.3581 -1.1139
15719TIP3    H268649   6.134   6.581   3.502  0.5795 -1.1996 -2.4779
15720TIP3   OH268650   1.236   3.780   4.722 -0.7207  0.2216 -0.3112
15720TIP3    H168651   1.236   3.838   4.646 -0.8422  1.3814  0.5245
15720TIP3    H268652   1.144   3.772   4.746 -0.6976 -0.2780 -0.3966
15721TIP3   OH268653   3.356   2.049   6.591 -0.2130  0.5883  0.7214
15721TIP3    H168654   3.356   2.006   6.676 -0.3843  0.8412  0.8508
15721TIP3    H268655   3.435   2.103   6.592  0.1995  0.0079  0.4169
15722TIP3   OH268656   2.205   4.057   3.024 -0.0354 -0.5406 -0.0827
15722TIP3    H168657   2.220   3.965   3.048 -2.2229 -1.2414 -1.1276
15722TIP3    H268658   2.254   4.068   2.943  0.4445 -0.7207  0.1814
15723TIP3   OH268659   6.427   3.136   1.637  0.1948 -0.1165 -0.5372
15723TIP3    H168660   6.508   3.105   1.677 -0.2771  0.3712  0.8602
15723TIP3    H268661   6.388   3.059   1.597  1.0641 -0.4585 -0.7576
15724TIP3   OH268662   2.268   1.325  12.439  0.3016  0.1234  0.7028
15724TIP3    H168663   2.322   1.252  12.469  0.8487  0.2659  0.0961
15724TIP3    H268664   2.210   1.344  12.513 -0.6519 -1.6615  0.4620
15725TIP3   OH268665   0.036   1.449  16.948  0.2621  0.0403  0.0958
15725TIP3    H168666   0.050   1.426  16.856  0.0676  0.8581 -0.1503
15725TIP3    H268667   0.124   1.469  16.982  0.4659 -1.2934  0.3875
15726TIP3   OH268668   3.034   2.789  12.208  0.3808  0.4911  0.1162
15726TIP3    H168669   2.951   2.835  12.212 -0.8543 -1.6929  3.1991
15726TIP3    H268670   3.094   2.842  12.261 -0.5577 -0.4296  2.2036
15727TIP3   OH268671   1.876   1.043  15.110 -0.3969 -0.4446 -0.4347
15727TIP3    H168672   1.834   1.121  15.145 -1.9606 -1.3608 -0.1754
15727TIP3    H268673   1.890   1.062  15.017 -0.3256  0.3125 -0.2728
15728TIP3   OH268674   1.024   4.389   0.909 -0.0342  0.4821  0.5633
15728TIP3    H168675   1.004   4.370   1.000 -1.1558  0.0761  0.2446
15728TIP3    H268676   0.970   4.329   0.859 -0.3361  1.5072 -0.3979
15729TIP3   OH268677   5.717   6.312   2.959  0.0257 -0.4869  0.1057
15729TIP3    H168678   5.747   6.314   3.050  1.3145 -0.6963 -0.3039
15729TIP3    H268679   5.733   6.400   2.926  0.3873 -0.6581 -0.1772
15730TIP3   OH268680   6.556   1.425   3.603  0.0367 -0.4207  1.0085
15730TIP3    H168681   6.490   1.439   3.536 -0.4206  1.3090  1.7737
15730TIP3    H268682   6.640   1.439   3.558 -0.0318 -2.6020  0.0433
15731TIP3   OH268683   4.434   4.888   5.336  0.2617 -0.1974  0.2463
15731TIP3    H168684   4.510   4.850   5.379 -0.8998 -3.6863 -0.4767
15731TIP3    H268685   4.381   4.924   5.408  1.8531  1.0762  0.8649
15732TIP3   OH268686   1.162   5.734  11.076  0.0997 -0.4058 -0.5320
15732TIP3    H168687   1.099   5.662  11.089  0.1080 -0.2676  0.3245
15732TIP3    H268688   1.154   5.756  10.983 -0.1954 -1.2451 -0.7145
15733TIP3   OH268689   1.102   1.013  17.139 -0.1734  0.4931  0.0049
15733TIP3    H168690   1.070   0.988  17.225 -0.0394  0.2370 -0.0183
15733TIP3    H268691   1.197   1.019  17.149 -0.0798 -0.3103 -0.3116
15734TIP3   OH268692   4.254   1.328  12.029  0.2238  0.2212  0.0322
15734TIP3    H168693   4.235   1.293  11.942 -0.6848  1.3050 -0.2280
15734TIP3    H268694   4.217   1.416  12.028  0.8073  0.5029  1.2935
15735TIP3   OH268695   0.856   5.083  15.003 -0.2631 -0.2459  0.0918
15735TIP3    H168696   0.858   4.995  14.965  1.8620 -0.2406  0.0868
15735TIP3    H268697   0.904   5.138  14.941 -0.4036  0.6484  0.7428
15736TIP3   OH268698   5.853   4.321  11.410  0.1494  0.3994  0.5338
15736TIP3    H168699   5.870   4.293  11.320  0.3870  2.0586  0.0484
15736TIP3    H268700   5.938   4.318  11.453  0.3931  1.4984  0.1500
15737TIP3   OH268701   4.474   1.306  14.612 -0.0101 -0.1375 -0.2608
15737TIP3    H168702   4.467   1.396  14.642  0.1236 -0.1805 -0.0988
15737TIP3    H268703   4.388   1.286  14.575  0.6650  0.8501 -2.5083
15738TIP3   OH268704   6.420   5.477  11.997  0.2500  0.5152  0.2278
15738TIP3    H168705   6.515   5.488  11.993  0.5468 -1.8406 -1.0807
15738TIP3    H268706   6.405   5.432  12.080  0.3654  0.2409  0.1009
15739TIP3   OH268707   2.802   4.516   6.437 -0.2162  0.5735  0.0729
15739TIP3    H168708   2.835   4.579   6.501  0.7636  0.6580 -0.5018
15739TIP3    H268709   2.710   4.541   6.425 -0.9555 -0.5381  2.7299
15740TIP3   OH268710   2.421   3.078  13.041  0.3458 -0.1520 -0.2177
15740TIP3    H168711   2.478   3.134  13.094  0.3266 -0.9526  0.6776
15740TIP3    H268712   2.370   3.029  13.105  0.3931 -1.2249 -0.9698
15741TIP3   OH268713   0.606   5.753   5.513 -0.0674 -0.3712 -0.5024
15741TIP3    H168714   0.584   5.678   5.459 -0.6514 -1.0981  0.6939
15741TIP3    H268715   0.521   5.792   5.534  0.2299  0.6274 -1.0976
15742TIP3   OH268716   0.535   1.100  13.795 -0.5527 -0.2057  0.6839
15742TIP3    H168717   0.494   1.111  13.881  0.2293 -0.1128  1.0479
15742TIP3    H268718   0.471   1.050  13.745 -1.2468  0.1981  1.1466
15743TIP3   OH268719   2.224   0.216  16.966  0.1845 -0.2795  0.0282
15743TIP3    H168720   2.286   0.287  16.945  0.7359 -0.7581  0.0201
15743TIP3    H268721   2.138   0.256  16.955  0.4878  0.5369  0.5061
15744TIP3   OH268722   6.343   2.362  11.482  0.0812 -0.0603  0.2567
15744TIP3    H168723   6.352   2.306  11.405  0.5602 -0.4758  0.6052
15744TIP3    H268724   6.308   2.304  11.550 -1.4323  0.5712  0.0533
15745TIP3   OH268725   6.074   6.069   2.144  0.3651 -0.3264  0.0565
15745TIP3    H168726   6.151   6.121   2.165  0.1572  0.3053 -0.6677
15745TIP3    H268727   6.008   6.134   2.116 -0.4203 -0.8500  0.6447
15746TIP3   OH268728   3.558   0.855  15.025  0.1134 -0.6848  0.4937
15746TIP3    H168729   3.519   0.875  15.110  0.7050 -0.9088  0.8318
15746TIP3    H268730   3.487   0.866  14.962 -0.4864 -1.0862  1.0859
15747TIP3   OH268731   5.305   4.218   2.123  0.2323 -0.2401  0.6824
15747TIP3    H168732   5.296   4.167   2.204  1.0031 -0.4053  0.6749
15747TIP3    H268733   5.333   4.305   2.152 -0.7610  0.0986  0.6721
15748TIP3   OH268734   6.383   4.334  13.868 -0.0823 -0.0273 -0.2041
15748TIP3    H168735   6.432   4.416  13.867 -1.6592  0.9907  1.2420
15748TIP3    H268736   6.352   4.323  13.779 -1.4342  1.9760 -0.0439
15749TIP3   OH268737   3.344   3.706  12.924  0.0230 -0.4704  0.2020
15749TIP3    H168738   3.440   3.715  12.922  0.1475 -1.6994 -0.1288
15749TIP3    H268739   3.313   3.793  12.947  1.1373  0.4287 -1.4571
15750TIP3   OH268740   5.321   0.923  15.829 -0.3094  0.2134  0.0117
15750TIP3    H168741   5.355   0.963  15.909 -0.9110  2.0834 -0.6239
15750TIP3    H268742   5.355   0.977  15.758 -0.5083 -0.8886 -0.9531
15751TIP3   OH268743   2.314   4.684   3.644 -0.8326 -0.9371  0.4075
15751TIP3    H168744   2.253   4.756   3.662  1.1048  0.4786  1.6868
15751TIP3    H268745   2.339   4.695   3.553  0.8507  1.2394  1.0570
15752TIP3   OH268746   4.806   5.634   1.444  0.2840 -0.0039  0.1133
15752TIP3    H168747   4.739   5.675   1.499 -0.6088 -1.5193  0.2009
15752TIP3    H268748   4.760   5.565   1.397  0.9950  1.2597 -2.6408
15753TIP3   OH268749   0.829   5.228  15.234  0.5370  0.3321  0.6728
15753TIP3    H168750   0.740   5.201  15.212  1.0988  0.3178 -1.8915
15753TIP3    H268751   0.877   5.221  15.151  2.7475  1.0672  1.8217
15754TIP3   OH268752   5.052   2.584   3.043 -0.1228  0.1014 -0.1499
15754TIP3    H168753   5.140   2.578   3.007 -0.1714 -0.8487 -0.1373
15754TIP3    H268754   4.995   2.579   2.966 -0.1673  0.9750 -0.1818
15755TIP3   OH268755   4.665   2.797  13.184  0.2383  0.0907 -0.0214
15755TIP3    H168756   4.733   2.849  13.229  0.9809 -0.4896 -0.4545
15755TIP3    H268757   4.617   2.862  13.132  0.5254  0.4977  0.2096
15756TIP3   OH268758   6.176   4.211  10.429 -0.0702  0.7484 -0.0660
15756TIP3    H168759   6.145   4.288  10.478  0.2126  0.7192  0.1552
15756TIP3    H268760   6.112   4.201  10.358 -0.6068  0.6525  0.4264
15757TIP3   OH268761   2.438   5.891   5.364  0.2259 -0.2989  0.6730
15757TIP3    H168762   2.357   5.895   5.312 -0.3446  1.5315  1.6002
15757TIP3    H268763   2.506   5.869   5.300 -0.5886  0.9549 -0.7109
15758TIP3   OH268764   0.285   1.408   5.975  0.0437  0.3208 -0.3897
15758TIP3    H168765   0.203   1.403   6.025  0.2137  0.4609 -0.0920
15758TIP3    H268766   0.354   1.402   6.041  0.2793 -0.2656 -0.6861
15759TIP3   OH268767   2.389   2.148   5.792  0.6465  0.3585  0.4735
15759TIP3    H168768   2.456   2.092   5.753 -0.5189 -1.2786  0.7057
15759TIP3    H268769   2.385   2.119   5.884 -0.7704  0.0045  0.3147
15760TIP3   OH268770   2.929   1.557   1.092  0.1274  0.1066  0.3074
15760TIP3    H168771   2.940   1.649   1.067 -1.7411  0.6393  1.1978
15760TIP3    H268772   2.834   1.544   1.092  0.3558 -1.8811  0.0787
15761TIP3   OH268773   4.166   3.597  14.008 -0.1026  0.1764 -0.2391
15761TIP3    H168774   4.114   3.539  13.952  0.2710  0.8870 -1.3616
15761TIP3    H268775   4.244   3.546  14.030 -0.2254 -0.0897 -0.4206
15762TIP3   OH268776   5.445   6.302   3.254  0.3337 -0.8022 -0.1009
15762TIP3    H168777   5.378   6.252   3.300 -1.8026  0.4380 -1.7158
15762TIP3    H268778   5.461   6.254   3.173  1.4431 -1.0800  0.2570
15763TIP3   OH268779   2.819   4.876  13.843 -0.1059 -0.0349 -0.2177
15763TIP3    H168780   2.836   4.923  13.924 -0.5566  0.5450 -0.4556
15763TIP3    H268781   2.852   4.934  13.774  0.5353 -0.6454 -0.4384
15764TIP3   OH268782   0.695   2.842  12.432 -0.0318  0.2368 -0.2291
15764TIP3    H168783   0.642   2.922  12.436 -2.0675 -1.0553  0.0343
15764TIP3    H268784   0.694   2.808  12.521  2.9915  1.1454  0.2853
15765TIP3   OH268785   3.778   4.668  16.729 -0.3227  0.1881 -0.2252
15765TIP3    H168786   3.867   4.645  16.701 -1.0803 -1.2412 -1.5913
15765TIP3    H268787   3.765   4.617  16.809  0.0232  0.2586 -0.1233
15766TIP3   OH268788   1.701   3.513  13.348  0.4013 -0.2112 -0.2640
15766TIP3    H168789   1.720   3.602  13.376  2.7513 -1.1116  1.3035
15766TIP3    H268790   1.693   3.519  13.253  1.7725  1.4656 -0.3105
15767TIP3   OH268791   2.572   2.170  13.378 -0.2285  0.0171 -0.4618
15767TIP3    H168792   2.568   2.179  13.473  0.7463  0.1966 -0.4355
15767TIP3    H268793   2.582   2.076  13.364 -1.2175 -0.1083 -0.4308
15768TIP3   OH268794   6.060   0.909  17.116  0.2899 -0.2788  0.0769
15768TIP3    H168795   6.088   0.824  17.149 -0.2135  0.0940  1.5526
15768TIP3    H268796   6.094   0.972  17.181 -0.5954  0.5045 -0.1968
15769TIP3   OH268797   0.188   0.945  11.460 -0.2167  0.5219  0.5380
15769TIP3    H168798   0.203   0.855  11.433  0.3372  1.2145 -1.6027
15769TIP3    H268799   0.141   0.937  11.544  1.3475 -1.7106  1.2835
15770TIP3   OH268800   6.511   2.908   0.174  0.1979  0.6271  0.2689
15770TIP3    H168801   6.479   2.946   0.255  0.5850 -0.1096  0.7817
15770TIP3    H268802   6.456   2.830   0.161  2.4485 -1.3722  1.8208
15771TIP3   OH268803   3.119   4.691  13.215  0.1635 -0.4581 -0.1167
15771TIP3    H168804   3.167   4.767  13.182 -2.2613  0.8154 -0.9371
15771TIP3    H268805   3.081   4.720  13.298 -1.3119 -0.5162 -0.7441
15772TIP3   OH268806   1.987   6.240  16.095  0.2733  0.4441  0.5848
15772TIP3    H168807   1.995   6.152  16.059 -0.3866  0.8124 -0.4995
15772TIP3    H268808   1.922   6.231  16.166 -2.2636  0.5859 -1.5683
15773TIP3   OH268809   5.944   3.038   1.200 -0.0936  0.0466  0.0208
15773TIP3    H168810   5.868   3.072   1.247  0.4682  0.9563  0.2959
15773TIP3    H268811   5.928   3.060   1.108 -1.1388 -1.6319 -0.2483
15774TIP3   OH268812   1.605   2.144  13.450 -0.2530 -0.6070 -0.2264
15774TIP3    H168813   1.526   2.170  13.498 -0.3113 -1.2963  0.0561
15774TIP3    H268814   1.582   2.155  13.358 -0.6150 -0.6219 -0.1399
15775TIP3   OH268815   6.103   3.342   3.415 -0.4976 -0.2659 -0.3550
15775TIP3    H168816   6.150   3.331   3.332 -0.0334 -0.3595 -0.0816
15775TIP3    H268817   6.050   3.420   3.402  1.3479  1.1347  0.0575
15776TIP3   OH268818   5.830   3.702   0.554 -0.4529  0.0261 -0.7067
15776TIP3    H168819   5.850   3.695   0.647  1.2156  0.0460 -1.0376
15776TIP3    H268820   5.735   3.713   0.550 -0.3694  1.9608  1.1011
15777TIP3   OH268821   1.383   6.001   5.285  0.7441  0.0089  0.4396
15777TIP3    H168822   1.344   6.071   5.234  2.4794 -0.2301 -1.3360
15777TIP3    H268823   1.309   5.948   5.314 -0.5755  2.2354  1.4122
15778TIP3   OH268824   1.296   1.947  14.634  0.1260 -0.4942  0.2605
15778TIP3    H168825   1.265   1.952  14.544 -0.9358 -2.4982  0.4422
15778TIP3    H268826   1.217   1.956  14.687  0.3700 -1.6776  0.8735
15779TIP3   OH268827   2.351   2.797   0.241 -0.0084  0.4197 -0.3484
15779TIP3    H168828   2.315   2.872   0.194  1.2045  1.8545  0.9258
15779TIP3    H268829   2.442   2.821   0.258  1.0267 -2.1767 -1.6019
15780TIP3   OH268830   6.015   0.545  13.329  0.2809  1.1599  0.1603
15780TIP3    H168831   5.995   0.520  13.419 -0.0672  1.3642  0.1419
15780TIP3    H268832   5.974   0.477  13.275  2.4742 -0.2783  0.2082
15781TIP3   OH268833   1.682   5.389   3.443  0.0568  0.5223  0.3374
15781TIP3    H168834   1.687   5.429   3.530 -0.5676  2.9716 -0.6744
15781TIP3    H268835   1.755   5.328   3.441 -0.5410 -0.4186  2.9341
15782TIP3   OH268836   5.864   4.519  11.656  0.4152  0.0202  0.1368
15782TIP3    H168837   5.889   4.583  11.723  1.6234 -0.4893  0.1839
15782TIP3    H268838   5.770   4.533  11.645  0.6925  2.0380 -0.0963
15783TIP3   OH268839   3.598   3.754  11.503 -0.6263  0.2120  0.4370
15783TIP3    H168840   3.577   3.843  11.532  1.5538  0.4505  1.5693
15783TIP3    H268841   3.557   3.746  11.417 -0.1847  2.6370 -0.0895
15784TIP3   OH268842   5.293   5.515   0.871  0.1879  0.0976  0.1520
15784TIP3    H168843   5.248   5.456   0.809  1.0706  1.8042 -2.2451
15784TIP3    H268844   5.255   5.601   0.854  3.4381  1.4173 -1.2080
15785TIP3   OH268845   6.773   1.991  16.626 -0.2097 -0.0748  0.0532
15785TIP3    H168846   6.812   2.015  16.711  1.1490 -1.0076 -0.2777
15785TIP3    H268847   6.795   1.899  16.614  0.1071  0.1735 -1.5570
15786TIP3   OH268848   3.294   6.745   1.648 -0.2650 -0.0945  0.0947
15786TIP3    H168849   3.268   6.696   1.570 -1.2316  0.0896  0.2873
15786TIP3    H268850   3.263   6.834   1.633  0.5441  0.2205  0.2109
15787TIP3   OH268851   4.704   5.520   3.415  0.2670  0.3653  0.2501
15787TIP3    H168852   4.633   5.583   3.405  2.3197  2.4488 -3.0588
15787TIP3    H268853   4.673   5.441   3.370  0.3584  1.6851 -2.3139
15788TIP3   OH268854   2.506   2.341  16.779 -1.1068  0.0295 -0.2866
15788TIP3    H168855   2.539   2.413  16.833 -0.0808  0.4922 -1.4696
15788TIP3    H268856   2.411   2.347  16.785 -1.0182  0.9272  0.3500
15789TIP3   OH268857   0.284   5.211   4.459  0.0720 -0.3642  0.3266
15789TIP3    H168858   0.274   5.121   4.489  0.8028 -1.2703 -1.9417
15789TIP3    H268859   0.379   5.226   4.460  0.2535 -0.8284 -2.3455
15790TIP3   OH268860   4.114   3.523  11.370 -0.0144  0.3740 -0.2029
15790TIP3    H168861   4.174   3.491  11.438 -0.5268  1.7870  0.9743
15790TIP3    H268862   4.071   3.444  11.338  1.4131 -0.5078 -0.0522
15791TIP3   OH268863   0.132   5.574   4.395  0.5040  0.4628 -0.0460
15791TIP3    H168864   0.176   5.543   4.474 -0.4510 -0.6638  0.0637
15791TIP3    H268865   0.050   5.612   4.426  0.7621  1.3117 -0.3750
15792TIP3   OH268866   4.231   0.903  11.365 -0.4392 -0.6906  0.4749
15792TIP3    H168867   4.262   0.891  11.276  0.7821 -0.7306  0.8858
15792TIP3    H268868   4.203   0.994  11.369 -0.9894 -0.8283 -0.0829
15793TIP3   OH268869   3.185   3.019  16.851 -0.3663 -0.0180  0.2696
15793TIP3    H168870   3.221   3.091  16.800 -0.4356 -1.0770 -1.3595
15793TIP3    H268871   3.252   3.000  16.918  0.7061  0.0487 -0.7599
15794TIP3   OH268872   0.460   5.450  11.494 -0.3681 -0.3797 -0.5250
15794TIP3    H168873   0.503   5.474  11.412 -1.2772  0.8795 -0.6507
15794TIP3    H268874   0.394   5.517  11.508 -0.2746 -0.5999  1.2271
15795TIP3   OH268875   4.668   4.355   5.419  0.5050 -0.4532 -0.3710
15795TIP3    H168876   4.744   4.304   5.445  0.5957 -0.3306 -0.3966
15795TIP3    H268877   4.658   4.422   5.487  1.2780  0.4340 -1.0988
15796TIP3   OH268878   5.010   2.074   1.047 -0.0994 -0.2017 -0.2947
15796TIP3    H168879   5.069   2.106   1.116  0.0261 -0.2868 -0.3616
15796TIP3    H268880   5.068   2.028   0.986 -0.1431  0.2694 -0.6965
15797TIP3   OH268881   1.641   0.532  15.389 -0.6262 -0.0979  0.0102
15797TIP3    H168882   1.724   0.493  15.364  0.8094  1.3030  2.2548
15797TIP3    H268883   1.621   0.593  15.319  0.2176 -0.4971 -0.5899
15798TIP3   OH268884   0.887   0.752   5.814  0.2102  0.3797 -0.1570
15798TIP3    H168885   0.947   0.735   5.887  0.3624 -0.1417 -0.4024
15798TIP3    H268886   0.800   0.754   5.855  0.1691 -1.0943 -0.1217
15799TIP3   OH268887   3.260   0.300  16.867  0.4411  0.0057  0.0256
15799TIP3    H168888   3.322   0.241  16.911  1.0947  0.1997 -0.6110
15799TIP3    H268889   3.210   0.340  16.938  0.6784 -0.5670  0.5189
15800TIP3   OH268890   4.883   1.926  15.063  0.3904 -0.4065  0.2531
15800TIP3    H168891   4.956   1.919  15.124  1.8634  0.4613 -1.3027
15800TIP3    H268892   4.925   1.935  14.977 -1.5690 -0.5416 -0.7657
15801TIP3   OH268893   1.156   2.896   2.889  0.2718 -0.0365 -0.1567
15801TIP3    H168894   1.110   2.847   2.958 -1.6905  3.9360  1.7009
15801TIP3    H268895   1.148   2.841   2.811 -1.5958 -2.6820  1.7280
15802TIP3   OH268896   0.326   5.996  16.998 -0.7037  0.7466 -0.3139
15802TIP3    H168897   0.335   5.923  16.936  0.5253  0.8059 -0.2271
15802TIP3    H268898   0.250   5.972  17.052 -0.4939 -0.3307 -0.4727
15803TIP3   OH268899   4.400   1.993   6.644  0.1164  0.1592  0.0244
15803TIP3    H168900   4.417   2.077   6.602 -1.5251  0.1438 -0.7439
15803TIP3    H268901   4.340   1.948   6.584  1.3009 -1.7596  0.1978
15804TIP3   OH268902   2.730   5.676  17.117 -0.0066 -0.2894  0.2939
15804TIP3    H168903   2.777   5.683  17.200  1.3932 -0.8276 -0.4182
15804TIP3    H268904   2.661   5.612  17.133  0.3443 -0.4914  0.9960
15805TIP3   OH268905   6.376   4.988   3.431  0.0781  0.1465  0.3173
15805TIP3    H168906   6.451   5.043   3.408 -0.7080  0.1334 -2.7464
15805TIP3    H268907   6.415   4.908   3.466  1.3403  1.2961  1.6388
15806TIP3   OH268908   6.306   2.320  17.052 -0.0011 -0.2730  0.0304
15806TIP3    H168909   6.268   2.233  17.040  0.3366 -0.4050 -0.1016
15806TIP3    H268910   6.309   2.332  17.147 -0.2146 -0.3322  0.0441
15807TIP3   OH268911   0.041   2.037   1.014  0.5834  0.5861  0.1192
15807TIP3    H168912   0.050   2.046   1.109 -0.0052  1.8827  0.0799
15807TIP3    H268913  -0.049   2.010   1.000  0.8199 -0.1330 -0.0548
15808TIP3   OH268914   4.923   6.228   2.735  0.2413  0.3794  0.4823
15808TIP3    H168915   4.921   6.157   2.800 -0.3008  0.7570  0.8855
15808TIP3    H268916   4.905   6.307   2.785  0.3781  0.7496 -0.0456
15809TIP3   OH268917   2.256   3.816   3.105 -0.3244  0.2852 -0.0598
15809TIP3    H168918   2.274   3.766   3.026  3.1897 -1.2210  1.4743
15809TIP3    H268919   2.201   3.758   3.158  0.8697 -0.5933  0.2754
15810TIP3   OH268920   0.811   6.254  14.766 -0.4787 -0.2813  0.3768
15810TIP3    H168921   0.791   6.346  14.754 -1.3618 -0.2827  1.6165
15810TIP3    H268922   0.874   6.253  14.838 -0.2097 -0.6353  0.1410
15811TIP3   OH268923   4.785   3.034  14.087  0.3683 -0.0547 -0.1533
15811TIP3    H168924   4.716   3.016  14.024 -0.6738 -0.7066  1.1102
15811TIP3    H268925   4.756   2.988  14.167  1.7486  0.5265  0.7085
15812TIP3   OH268926   3.066   4.271   5.520  0.6939 -0.2121 -0.2551
15812TIP3    H168927   3.023   4.233   5.597 -0.7892 -0.8602 -1.3431
15812TIP3    H268928   3.114   4.347   5.554  0.9641 -1.0936  1.4529
15813TIP3   OH268929   4.317   2.182   5.697  0.1668 -0.6527 -0.1788
15813TIP3    H168930   4.268   2.100   5.688  0.3880 -0.6151 -2.2733
15813TIP3    H268931   4.399   2.167   5.649  0.6185  0.4973  0.1771
15814TIP3   OH268932   2.385   3.375  15.868  0.0486  0.3191 -0.1511
15814TIP3    H168933   2.464   3.322  15.870  0.5161  1.0099  0.8861
15814TIP3    H268934   2.316   3.315  15.841  1.0460 -0.0975 -1.9072
15815TIP3   OH268935   0.982   4.332  10.984 -0.2321  0.3002  0.0345
15815TIP3    H168936   0.988   4.287  10.900  1.6487 -1.8244  1.2130
15815TIP3    H268937   0.931   4.411  10.965  0.1503 -0.0820 -3.0708
15816TIP3   OH268938   1.153   1.518  16.736 -0.0831 -0.2443 -0.2254
15816TIP3    H168939   1.068   1.558  16.720 -0.0398  0.5224  1.3012
15816TIP3    H268940   1.212   1.592  16.751  1.4099 -0.6180 -3.3716
15817TIP3   OH268941   3.772   1.637  14.950  0.2002 -0.1545 -0.6368
15817TIP3    H168942   3.697   1.671  14.998 -0.6123  0.3849 -2.2035
15817TIP3    H268943   3.760   1.542  14.951 -0.3858 -0.0837 -0.6693
15818TIP3   OH268944   2.614   5.401   2.474 -0.2833  0.2124 -0.5045
15818TIP3    H168945   2.540   5.393   2.534 -1.4544  1.5722 -1.6906
15818TIP3    H268946   2.658   5.316   2.478 -1.0754 -0.1577  1.2736
15819TIP3   OH268947   0.164   2.370   5.539 -0.1600 -0.0597  0.5008
15819TIP3    H168948   0.069   2.363   5.529 -0.1745  2.6124 -3.8459
15819TIP3    H268949   0.199   2.299   5.484  0.2024  1.4339 -1.2841
15820TIP3   OH268950   3.168   2.617   5.279  0.1385  0.3462  0.0214
15820TIP3    H168951   3.205   2.540   5.323  0.2514  0.1020 -0.4980
15820TIP3    H268952   3.172   2.596   5.186  1.4916  1.5627 -0.2346
15821TIP3   OH268953   5.260   2.120   4.243 -0.3649  0.2471 -0.9291
15821TIP3    H168954   5.242   2.063   4.318 -0.1934  1.4178  0.0324
15821TIP3    H268955   5.332   2.175   4.273 -0.3602  0.7947 -1.9365
15822TIP3   OH268956   3.271   4.620  13.650  0.4169  0.2528  0.0740
15822TIP3    H168957   3.365   4.603  13.647  0.6952  1.7027 -0.7268
15822TIP3    H268958   3.246   4.604  13.741  1.5274  0.2489  0.3931
15823TIP3   OH268959   2.711   6.082   4.139  0.1644 -0.6517  0.2236
15823TIP3    H168960   2.669   6.051   4.059  0.3235 -0.7317  0.1700
15823TIP3    H268961   2.671   6.030   4.209  0.4054 -0.9548  0.1376
15824TIP3   OH268962   0.781   1.399   1.782  0.2735  0.5681  0.2378
15824TIP3    H168963   0.756   1.315   1.746 -1.3029  0.9147  0.4579
15824TIP3    H268964   0.813   1.449   1.707  0.1034  0.1794 -0.0967
15825TIP3   OH268965   3.588   1.153  11.339  0.6848 -0.0609  0.2962
15825TIP3    H168966   3.675   1.119  11.322  0.1731 -0.6404 -1.3200
15825TIP3    H268967   3.582   1.232  11.286 -0.1441 -0.6329 -0.4984
15826TIP3   OH268968   0.542   1.422  10.799 -0.4498  0.3463  0.3767
15826TIP3    H168969   0.453   1.458  10.804  0.1540  1.8050  1.1448
15826TIP3    H268970   0.576   1.431  10.888  0.3019 -0.6763  0.2091
15827TIP3   OH268971   3.363   1.957  13.198  0.3972 -0.1384  0.1220
15827TIP3    H168972   3.421   1.934  13.271  1.1711 -2.4893 -1.1552
15827TIP3    H268973   3.339   1.873  13.158 -2.0770  0.9115 -0.8075
15828TIP3   OH268974   0.279   5.783  15.358  0.1233  0.3891 -0.5270
15828TIP3    H168975   0.358   5.822  15.395 -1.0636  0.6264  1.9419
15828TIP3    H268976   0.254   5.715  15.420 -1.7232  0.4592 -1.1277
15829TIP3   OH268977   3.441   6.269  11.572  0.3677 -0.3081 -1.1894
15829TIP3    H168978   3.391   6.211  11.515  1.1968 -0.1056 -2.1693
15829TIP3    H268979   3.522   6.286  11.523  0.6080  0.8017 -0.4465
15830TIP3   OH268980   5.117   2.329  16.267 -0.6316  0.3924  0.4280
15830TIP3    H168981   5.204   2.319  16.228 -0.6857 -0.1230  0.4320
15830TIP3    H268982   5.094   2.421  16.253 -0.7030  0.1991 -0.8523
15831TIP3   OH268983   2.673   1.568   5.141 -0.1744 -0.5462  0.3663
15831TIP3    H168984   2.722   1.625   5.201 -1.7096 -1.4951  2.6577
15831TIP3    H268985   2.635   1.501   5.198 -2.8146 -0.7649 -1.4898
15832TIP3   OH268986   2.542   1.652   3.440 -0.2254 -0.0458 -0.0730
15832TIP3    H168987   2.589   1.705   3.504  2.1025 -0.8013 -1.0472
15832TIP3    H268988   2.560   1.695   3.356  1.1258 -1.8734 -0.7926
15833TIP3   OH268989   5.704   6.424  16.085  0.2567  0.1219 -0.0343
15833TIP3    H168990   5.616   6.463  16.085  1.1442  2.2665  0.4102
15833TIP3    H268991   5.729   6.422  16.178  0.3861 -1.2400 -0.0807
15834TIP3   OH268992   6.682   5.535  12.083 -0.3372 -0.1792 -0.2783
15834TIP3    H168993   6.698   5.544  12.177  1.4392  1.4288 -0.6871
15834TIP3    H268994   6.747   5.471  12.054 -1.7629 -1.7177 -0.2510
15835TIP3   OH268995   1.067   2.110  13.405 -0.3718  0.4164 -0.5728
15835TIP3    H168996   1.094   2.020  13.424 -1.5661  0.3955  1.3040
15835TIP3    H268997   1.149   2.160  13.403  0.1658 -0.3833  0.4767
15836TIP3   OH268998   5.485   0.268  12.088 -0.1525  0.0658 -0.1373
15836TIP3    H168999   5.524   0.216  12.159  0.5911  0.2772 -0.3751
15836TIP3    H269000   5.408   0.219  12.061  1.9688 -2.4200 -2.2230
15837TIP3   OH269001   1.798   3.217   2.486  0.1182  0.0614  0.3508
15837TIP3    H169002   1.829   3.228   2.577  1.0495 -0.7539  0.1498
15837TIP3    H269003   1.755   3.132   2.486 -0.2044  0.2276  0.1127
15838TIP3   OH269004   2.330   5.993   6.623  0.2182  0.4725 -0.3369
15838TIP3    H169005   2.286   5.915   6.656  0.5490  1.1228  1.7339
15838TIP3    H269006   2.408   6.002   6.678  0.7962  1.6242 -1.2999
15839TIP3   OH269007   2.949   3.430  12.505 -0.2499 -0.6074 -0.0265
15839TIP3    H169008   2.898   3.408  12.583 -1.6183 -0.1254 -0.7362
15839TIP3    H269009   2.912   3.514  12.477  1.2937 -0.0020 -0.3014
15840TIP3   OH269010   4.405   0.197   5.050  0.1225  0.3192  0.3899
15840TIP3    H169011   4.376   0.210   4.959  2.5730 -0.5806 -0.6142
15840TIP3    H269012   4.492   0.236   5.052  0.7673 -1.1425  1.9126
15841TIP3   OH269013   0.690   2.555  12.404 -0.6310  0.2582  0.3803
15841TIP3    H169014   0.642   2.631  12.436 -0.2893  0.7409 -0.2243
15841TIP3    H269015   0.717   2.579  12.315  0.6335 -0.0362  0.6572
15842TIP3   OH269016   5.793   2.512   1.838  0.4820  0.2248  0.4796
15842TIP3    H169017   5.883   2.514   1.806 -0.1381  1.5363 -1.3855
15842TIP3    H269018   5.785   2.589   1.894  0.0230  1.3200 -1.0181
15843TIP3   OH269019   1.369   0.442  14.289 -0.0781  0.2203 -0.3951
15843TIP3    H169020   1.310   0.498  14.238  1.5507  2.3579 -0.0287
15843TIP3    H269021   1.416   0.502  14.346  1.3652 -1.6072  0.4149
15844TIP3   OH269022   1.638   4.070   4.710 -0.2116  1.0076  0.5589
15844TIP3    H169023   1.622   4.081   4.804  1.0608  0.1811  0.8927
15844TIP3    H269024   1.594   4.145   4.670 -2.5342  0.3005  1.6061
15845TIP3   OH269025   0.839   4.914   4.950 -0.6945 -0.1215  0.2442
15845TIP3    H169026   0.916   4.883   4.901 -0.7042  0.2460 -0.0077
15845TIP3    H269027   0.860   5.005   4.972  0.0282 -0.7313  2.3582
15846TIP3   OH269028   2.242   1.850   5.649 -0.3539  0.2266  0.7481
15846TIP3    H169029   2.294   1.872   5.571  0.6584 -0.0390  1.3341
15846TIP3    H269030   2.228   1.934   5.693 -0.0182  0.2364  0.8349
15847TIP3   OH269031   1.339   2.669  17.299  0.3162  0.7260 -0.1145
15847TIP3    H169032   1.264   2.701  17.349 -0.1992  0.3733 -0.6477
15847TIP3    H269033   1.356   2.582  17.334  0.4206  0.7731 -0.0487
15848TIP3   OH269034   6.580   1.891  13.602  0.0755 -0.0080  0.2678
15848TIP3    H169035   6.651   1.918  13.660 -1.2661  1.5557  1.2886
15848TIP3    H269036   6.605   1.925  13.516  0.7892  0.0804  0.5026
15849TIP3   OH269037   2.310   2.317  11.456 -0.9850 -0.2220 -0.6325
15849TIP3    H169038   2.235   2.326  11.514 -2.2068 -1.1339 -1.9988
15849TIP3    H269039   2.272   2.318  11.368  0.8700  1.9466 -1.5119
15850TIP3   OH269040   1.434   5.338   1.967  0.1028 -0.3575 -0.6276
15850TIP3    H169041   1.369   5.312   1.902 -0.0709 -0.6180 -0.3566
15850TIP3    H269042   1.489   5.402   1.923 -1.1053  0.8273 -0.4953
15851TIP3   OH269043   4.961   4.258   4.138 -0.2419 -0.2123 -0.0130
15851TIP3    H169044   4.925   4.287   4.054  0.8644  0.0594 -0.4049
15851TIP3    H269045   4.982   4.166   4.124 -0.4080 -0.2645  0.0844
15852TIP3   OH269046   0.070   6.583   1.942  0.1307  0.3546 -0.0559
15852TIP3    H169047  -0.025   6.586   1.939  0.0536 -0.1680  1.2507
15852TIP3    H269048   0.092   6.500   1.899 -0.0097  0.3817 -0.1814
15853TIP3   OH269049   3.293   4.050  10.883  0.4637 -1.0251  0.5788
15853TIP3    H169050   3.270   4.127  10.832  0.9282 -0.9286  0.5105
15853TIP3    H269051   3.209   4.013  10.911  0.2634  0.0840  1.4876
15854TIP3   OH269052   1.550   0.513  13.058 -0.0379 -0.0274 -0.1946
15854TIP3    H169053   1.474   0.558  13.094 -0.1352 -0.6322  0.3699
15854TIP3    H269054   1.547   0.425  13.096  1.3715  0.1717  0.4591
15855TIP3   OH269055   4.210   1.925   3.152 -0.0249 -0.5097 -0.0512
15855TIP3    H169056   4.276   1.902   3.218 -0.0997  0.4449  0.3783
15855TIP3    H269057   4.164   1.843   3.135 -1.1362 -0.5019  2.3705
15856TIP3   OH269058   4.901   2.662   6.792 -0.1242 -0.1874 -0.2959
15856TIP3    H169059   4.905   2.571   6.821  1.7564 -0.2963 -0.7732
15856TIP3    H269060   4.832   2.701   6.845  1.2413 -1.0778  2.3017
15857TIP3   OH269061   5.139   6.341   3.799  0.5311 -0.3750  0.1578
15857TIP3    H169062   5.052   6.309   3.825  0.9766 -2.6367 -0.8487
15857TIP3    H269063   5.195   6.322   3.874  0.4615 -0.3407  0.2193
15858TIP3   OH269064   2.926   0.370  11.182  0.4089 -0.1206  0.0252
15858TIP3    H169065   2.999   0.391  11.240  1.1677 -0.0306 -0.9385
15858TIP3    H269066   2.848   0.387  11.235  1.0645  0.7579  0.7432
15859TIP3   OH269067   3.705   4.472  13.274  0.4321  0.1482  0.2919
15859TIP3    H169068   3.780   4.418  13.249 -0.9090 -0.7824 -2.0038
15859TIP3    H269069   3.674   4.434  13.356  0.5928 -1.4621 -0.3627
15860TIP3   OH269070   5.467   0.446   4.452 -0.0791 -0.0059  0.3184
15860TIP3    H169071   5.489   0.426   4.543 -2.6765 -0.7282  0.8585
15860TIP3    H269072   5.463   0.361   4.408 -3.7745 -0.2500  0.8292
15861TIP3   OH269073   0.510   2.509   2.291 -0.1596 -0.5188  0.4798
15861TIP3    H169074   0.520   2.442   2.224 -0.7433  1.0894 -1.3359
15861TIP3    H269075   0.423   2.493   2.328 -0.8737 -0.0550 -0.8807
15862TIP3   OH269076   5.919   1.890   5.015  0.9885  0.9539  0.0609
15862TIP3    H169077   5.856   1.839   4.965  0.2499  1.1185  0.8148
15862TIP3    H269078   5.994   1.831   5.027  0.7179  0.5375 -0.2867
15863TIP3   OH269079   2.026   4.151  15.104 -0.4105  0.1440 -0.1507
15863TIP3    H169080   2.101   4.134  15.048 -0.4050  0.5722 -0.2740
15863TIP3    H269081   2.049   4.229  15.153 -0.1173 -0.6144  0.9722
15864TIP3   OH269082   2.483   1.688   2.454 -0.0086  0.3615 -0.0218
15864TIP3    H169083   2.520   1.604   2.429 -1.1630 -0.5818  1.2496
15864TIP3    H269084   2.480   1.739   2.373  0.9036 -0.7349 -0.7711
15865TIP3   OH269085   6.650   6.349  13.429  0.2776 -0.3388  0.2065
15865TIP3    H169086   6.588   6.277  13.417  1.2294 -1.6509  2.4166
15865TIP3    H269087   6.734   6.312  13.403  0.6344  0.2823  0.4586
15866TIP3   OH269088   2.769   2.377  17.093  0.6546 -0.2160 -0.1815
15866TIP3    H169089   2.807   2.409  17.175  1.0948 -0.2430 -0.3737
15866TIP3    H269090   2.710   2.307  17.120 -0.2909  0.7174  0.2405
15867TIP3   OH269091   2.621   1.007   4.079  0.2343 -0.3327  0.3814
15867TIP3    H169092   2.593   1.040   3.994 -1.0961 -1.4104  0.3593
15867TIP3    H269093   2.699   0.955   4.060  0.3483 -0.0060 -0.0647
15868TIP3   OH269094   0.711   5.253   1.928 -0.0665 -0.3470 -0.3521
15868TIP3    H169095   0.697   5.160   1.909  2.2263 -0.7669 -0.1796
15868TIP3    H269096   0.624   5.285   1.951 -0.6467 -2.8581  1.3773
15869TIP3   OH269097   3.218   1.191  16.097  0.0682  0.1872  0.6953
15869TIP3    H169098   3.231   1.126  16.165  1.2391 -1.2445 -0.8238
15869TIP3    H269099   3.296   1.246  16.101  0.4346 -0.2834  0.1216
15870TIP3   OH269100   0.437   1.144   4.249 -0.4475  0.4390 -0.2090
15870TIP3    H169101   0.361   1.095   4.281 -1.1029  1.4016 -0.2555
15870TIP3    H269102   0.495   1.077   4.214 -2.7847 -0.1727 -3.4307
15871TIP3   OH269103   5.180   5.421  16.148  0.2854  0.4710  0.6607
15871TIP3    H169104   5.215   5.491  16.204  0.0102  0.1810  1.2089
15871TIP3    H269105   5.257   5.387  16.101  0.5424  0.6477  0.9492
15872TIP3   OH269106   4.197   6.713  14.160 -0.2836 -0.0543  0.1069
15872TIP3    H169107   4.163   6.631  14.124  1.8288 -0.5324 -0.9645
15872TIP3    H269108   4.291   6.708  14.147  0.2325  1.3362  2.6189
15873TIP3   OH269109   4.141   1.232   1.141 -0.4040  0.2858  0.4273
15873TIP3    H169110   4.083   1.304   1.117  1.4198  2.9569  3.2223
15873TIP3    H269111   4.210   1.234   1.074 -0.9058  0.4241 -0.0964
15874TIP3   OH269112   1.324   4.492  15.912  0.8497  0.3156 -0.1482
15874TIP3    H169113   1.357   4.492  16.002  1.8267  3.1440 -0.3913
15874TIP3    H269114   1.229   4.499  15.921  0.6647 -2.2865  0.5936
15875TIP3   OH269115   2.080   2.310  15.295  0.2447 -1.0438 -0.4197
15875TIP3    H169116   2.106   2.247  15.228  1.5331 -0.7297 -0.2368
15875TIP3    H269117   2.162   2.350  15.323 -0.5541  0.9014 -0.7011
15876TIP3   OH269118   2.135   0.472  13.881  0.1615 -0.3247 -0.1587
15876TIP3    H169119   2.075   0.407  13.843 -1.0416 -0.3713  1.6908
15876TIP3    H269120   2.153   0.533  13.809  1.2726 -2.5973 -1.9416
15877TIP3   OH269121   1.838   1.137  14.853  0.2527 -0.4827 -0.1312
15877TIP3    H169122   1.749   1.138  14.817  0.0839  0.7319  0.2944
15877TIP3    H269123   1.887   1.080  14.794 -1.2267 -2.7470  0.6665
15878TIP3   OH269124   4.692   0.161  16.809 -0.2539  0.7297 -0.0484
15878TIP3    H169125   4.669   0.163  16.902  2.6178 -0.7450  0.8047
15878TIP3    H269126   4.701   0.068  16.789  2.6091  1.0840 -0.7894
15879TIP3   OH269127   2.196   4.393   2.948 -0.6201  0.1313 -0.1835
15879TIP3    H169128   2.192   4.307   2.989  0.0233  0.4174  0.5132
15879TIP3    H269129   2.114   4.435   2.972 -0.4100  0.1553  0.5234
15880TIP3   OH269130   2.920   3.458  12.215  0.2627  0.5075 -0.2796
15880TIP3    H169131   2.974   3.411  12.279  0.4323  0.8342 -0.1838
15880TIP3    H269132   2.931   3.409  12.134  0.2040  0.2053 -0.1080
15881TIP3   OH269133   4.572   3.377  15.360 -0.0248 -0.3283  0.3666
15881TIP3    H169134   4.498   3.409  15.410 -0.7579 -1.7570  0.2541
15881TIP3    H269135   4.578   3.436  15.285 -1.1098 -0.2400  0.3333
15882TIP3   OH269136   2.151   0.702   5.620  0.3121 -0.0473 -0.0408
15882TIP3    H169137   2.175   0.610   5.612  2.2998  0.5150 -1.1867
15882TIP3    H269138   2.117   0.710   5.709 -0.0508 -1.8987  0.0305
15883TIP3   OH269139   4.905   4.886   6.338  0.2737 -0.4931 -0.3770
15883TIP3    H169140   4.952   4.925   6.412  0.4598 -0.5031 -0.4887
15883TIP3    H269141   4.813   4.907   6.354  0.1677 -1.5451  0.4979
15884TIP3   OH269142   1.226   4.723   1.095 -0.3976 -0.2558  0.2117
15884TIP3    H169143   1.222   4.629   1.116 -0.3890 -0.5418 -0.9754
15884TIP3    H269144   1.135   4.749   1.084 -0.3433 -0.5736 -1.2230
15885TIP3   OH269145   1.575   0.124  17.224  0.0490 -0.1981 -0.0888
15885TIP3    H169146   1.504   0.061  17.234  0.1058 -0.0106  1.8708
15885TIP3    H269147   1.655   0.073  17.235  0.1453 -0.0364 -0.0313
15886TIP3   OH269148   6.544   2.267   2.635  0.5987 -0.1023 -0.3194
15886TIP3    H169149   6.455   2.244   2.607  0.9908 -0.4860 -1.2769
15886TIP3    H269150   6.601   2.225   2.571  1.3941  2.3136 -1.3375
15887TIP3   OH269151   3.936   5.164  12.887  0.0709 -0.4680 -0.1214
15887TIP3    H169152   3.975   5.130  12.968  0.4325  0.7080  0.2073
15887TIP3    H269153   3.844   5.140  12.894  0.2141 -0.9111  0.3576
15888TIP3   OH269154   4.544   4.121  13.433  0.0540 -0.0687  0.0317
15888TIP3    H169155   4.593   4.040  13.446 -0.5309 -0.4056  0.1751
15888TIP3    H269156   4.529   4.124  13.338 -1.6585 -1.1792  0.2324
15889TIP3   OH269157   2.332   3.033   0.115  0.1681  0.2335  0.0446
15889TIP3    H169158   2.322   3.019   0.021 -3.4556 -1.1419  0.4542
15889TIP3    H269159   2.301   3.122   0.130 -1.6386 -0.3653  0.1134
15890TIP3   OH269160   5.382   4.800   2.564 -0.3759 -0.5495  0.5272
15890TIP3    H169161   5.304   4.775   2.515 -0.3113  1.0565 -0.4602
15890TIP3    H269162   5.455   4.764   2.513 -0.3956 -0.5061  0.4684
15891TIP3   OH269163   4.505   5.441   4.049 -0.0831  0.1471 -0.1391
15891TIP3    H169164   4.561   5.364   4.055 -0.1186  0.2132  3.2794
15891TIP3    H269165   4.565   5.515   4.048 -0.0875  0.1478 -0.7488
15892TIP3   OH269166   6.694   5.277   6.393  0.5341  0.3713  0.9119
15892TIP3    H169167   6.602   5.254   6.407  0.0276  0.5605 -1.6071
15892TIP3    H269168   6.743   5.215   6.446 -1.0174 -0.8008  1.0287
15893TIP3   OH269169   2.853   2.144   3.068 -0.1879  0.0734 -0.3676
15893TIP3    H169170   2.873   2.061   3.025  0.0735 -0.5411  0.8860
15893TIP3    H269171   2.774   2.126   3.119  0.2919  0.3638  0.5035
15894TIP3   OH269172   1.224   5.692  15.479 -0.1799  0.3278  0.3035
15894TIP3    H169173   1.221   5.611  15.428  1.0257  0.4621 -0.0233
15894TIP3    H269174   1.154   5.683  15.543 -1.4648 -0.0347 -1.0966
15895TIP3   OH269175   1.553   1.924  12.352  0.3417  0.1672 -0.4357
15895TIP3    H169176   1.548   2.004  12.404  1.8652  0.0842 -0.0973
15895TIP3    H269177   1.647   1.911  12.338  0.2055 -2.0462  0.2965
15896TIP3   OH269178   4.044   2.739   5.806 -0.3138 -0.2385 -0.2564
15896TIP3    H169179   3.985   2.699   5.742 -0.4974  0.7646 -0.7390
15896TIP3    H269180   4.024   2.694   5.888 -1.2240 -0.4382 -0.5684
15897TIP3   OH269181   4.540   0.559   0.030 -0.2360 -0.4382  0.6473
15897TIP3    H169182   4.625   0.519   0.009 -0.3447  0.2903 -1.4276
15897TIP3    H269183   4.533   0.632  -0.032 -1.8337  0.2805  1.6326
15898TIP3   OH269184   1.590   0.255   0.190  0.6015  0.0851  0.4314
15898TIP3    H169185   1.533   0.278   0.117 -2.2367 -2.5238  1.6031
15898TIP3    H269186   1.648   0.188   0.156  2.2918  1.8593 -0.4200
15899TIP3   OH269187   5.262   5.022   0.044  0.5254 -0.4316 -0.6112
15899TIP3    H169188   5.204   5.076   0.098  1.2092  0.0457 -0.3306
15899TIP3    H269189   5.249   4.933   0.077 -0.7057 -0.4786 -1.1645
15900TIP3   OH269190   3.876   2.781  11.659 -0.3102  0.3167 -0.2126
15900TIP3    H169191   3.961   2.781  11.617 -0.5773  1.9155 -0.8280
15900TIP3    H269192   3.828   2.709  11.618  0.1124  0.5945 -1.2123
15901TIP3   OH269193   3.808   5.448  13.314 -0.1646 -0.1182 -0.0058
15901TIP3    H169194   3.822   5.464  13.408  0.3032 -0.0348 -0.0831
15901TIP3    H269195   3.823   5.354  13.304 -1.4557 -0.3551  0.2078
15902TIP3   OH269196   5.141   0.138   0.598  0.3791 -0.7521 -0.3679
15902TIP3    H169197   5.189   0.095   0.526 -0.5736 -1.7025 -0.4607
15902TIP3    H269198   5.057   0.093   0.600  0.0203 -0.0487  0.7028
15903TIP3   OH269199   3.317   2.240  16.851  0.0336 -0.3953  0.0190
15903TIP3    H169200   3.389   2.300  16.833 -0.1014  0.0149  0.7811
15903TIP3    H269201   3.243   2.276  16.802  0.7457 -1.8313 -2.2705
15904TIP3   OH269202   5.313   3.178  13.159  0.1898 -0.2791  0.2085
15904TIP3    H169203   5.372   3.118  13.113 -1.5648 -0.7850 -1.5080
15904TIP3    H269204   5.292   3.246  13.095 -1.1050 -0.1346  0.7436
15905TIP3   OH269205   5.890   2.564  11.015 -0.1385 -0.2160 -0.0003
15905TIP3    H169206   5.815   2.607  10.976  0.3429  1.1592  0.5211
15905TIP3    H269207   5.966   2.599  10.968  0.1592 -2.7479 -1.6093
15906TIP3   OH269208   3.915   1.605   1.692  0.3416 -0.0585 -0.7016
15906TIP3    H169209   3.894   1.621   1.600  0.4580 -0.5105 -0.8128
15906TIP3    H269210   3.899   1.511   1.704 -0.5832  0.1735 -0.0180
15907TIP3   OH269211   0.875   1.853  12.475 -0.0516 -0.7009  0.8084
15907TIP3    H169212   0.794   1.831  12.430 -0.1148 -0.7929  0.9690
15907TIP3    H269213   0.848   1.911  12.547  0.3522  2.1895 -1.1869
15908TIP3   OH269214   5.119   1.727   3.564  0.5086  0.1159  0.1003
15908TIP3    H169215   5.150   1.817   3.564  0.3842  0.1728  1.0035
15908TIP3    H269216   5.039   1.729   3.617 -0.6875 -0.1503 -1.6332
15909TIP3   OH269217   1.681   0.184  14.809  0.0913 -0.1100  0.3720
15909TIP3    H169218   1.586   0.193  14.817 -0.3461 -1.7086 -1.9787
15909TIP3    H269219   1.700   0.096  14.841  0.3050 -0.8947 -1.7474
15910TIP3   OH269220   5.470   0.655   1.067 -0.3050  0.4377 -0.0976
15910TIP3    H169221   5.550   0.611   1.039 -1.2088 -1.8544  0.6544
15910TIP3    H269222   5.406   0.637   0.998 -0.6220  0.8578  0.0733
15911TIP3   OH269223   3.777   2.779  10.882  0.5855  0.2364  0.1520
15911TIP3    H169224   3.699   2.763  10.934 -0.1251 -0.9914 -1.2294
15911TIP3    H269225   3.790   2.874  10.887 -1.5572  0.5980 -0.3610
15912TIP3   OH269226   0.512   5.500   3.597 -0.4393 -0.2759  1.1008
15912TIP3    H169227   0.531   5.546   3.679 -0.0426  0.3183  0.6777
15912TIP3    H269228   0.418   5.511   3.585 -0.2611  0.9026  0.7201
15913TIP3   OH269229   1.742   2.596   1.607  0.0305 -0.9740  0.2740
15913TIP3    H169230   1.812   2.617   1.669 -1.3098 -1.1394  1.9060
15913TIP3    H269231   1.711   2.510   1.633 -0.3025 -1.2274 -0.8886
15914TIP3   OH269232   0.310   5.025  14.178 -0.0987 -0.7045  0.2635
15914TIP3    H169233   0.334   5.094  14.116  0.7817  0.2055  1.5656
15914TIP3    H269234   0.227   4.991  14.144  0.6837 -0.7217 -1.7669
15915TIP3   OH269235   4.436   2.430  10.946  0.0980 -0.2150  0.4215
15915TIP3    H169236   4.353   2.464  10.912  0.3081 -0.0489  0.0765
15915TIP3    H269237   4.416   2.339  10.968 -0.2411 -0.1085  0.5677
15916TIP3   OH269238   6.296   5.248   2.953  0.4929  0.0849  0.2860
15916TIP3    H169239   6.268   5.168   2.997  0.0230 -0.7754 -1.4609
15916TIP3    H269240   6.265   5.319   3.009 -0.0081 -0.9471  1.3482
15917TIP3   OH269241   4.403   1.002   0.013 -0.1942  0.4714 -0.2142
15917TIP3    H169242   4.362   1.056  -0.055 -0.6675 -1.5786 -1.6309
15917TIP3    H269243   4.331   0.977   0.071 -0.2873  0.0043 -0.5246
15918TIP3   OH269244   5.684   4.072  10.845  0.1368  0.2722 -0.2705
15918TIP3    H169245   5.676   4.095  10.753 -1.9968  0.4781 -0.0787
15918TIP3    H269246   5.594   4.065  10.876  0.7585  1.9316  2.2296
15919TIP3   OH269247   5.464   4.793  16.537  0.3607 -0.3902 -0.1136
15919TIP3    H169248   5.449   4.744  16.455  0.0393 -0.2316 -0.1466
15919TIP3    H269249   5.557   4.778  16.556 -0.2591 -3.2013  1.2811
15920TIP3   OH269250   0.824   5.185  12.390 -0.3300 -0.0710  0.1089
15920TIP3    H169251   0.752   5.203  12.329 -0.2526 -1.1133 -0.3263
15920TIP3    H269252   0.784   5.130  12.458 -0.4576  1.2312  1.1198
15921TIP3   OH269253   4.919   4.500   2.943  0.2110  0.7157 -1.0590
15921TIP3    H169254   5.001   4.486   2.991  0.5181  0.9743 -1.5038
15921TIP3    H269255   4.944   4.493   2.851 -0.6112 -1.2034 -1.1924
15922TIP3   OH269256   2.621   5.920  15.354  0.1246  0.2772  0.4074
15922TIP3    H169257   2.578   5.995  15.394 -0.5238  0.4347 -0.5381
15922TIP3    H269258   2.577   5.909  15.269 -0.0692 -1.4153  0.6827
15923TIP3   OH269259   3.909   6.433   3.944 -0.3160 -0.0415  0.0757
15923TIP3    H169260   3.931   6.398   4.030  0.4137 -0.4468 -0.2709
15923TIP3    H269261   3.924   6.361   3.883  0.7224  0.6934 -0.5816
15924TIP3   OH269262   6.485   5.533   1.635  0.1640  0.2240 -0.5382
15924TIP3    H169263   6.470   5.628   1.634 -1.8939 -0.0404  0.0597
15924TIP3    H269264   6.493   5.512   1.728 -0.5485 -0.3152 -0.5869
15925TIP3   OH269265   4.976   0.159   2.473 -0.3245  0.5406 -0.1500
15925TIP3    H169266   4.975   0.192   2.383  1.6989  1.4077  0.0944
15925TIP3    H269267   5.068   0.136   2.489 -0.8009 -0.4208  1.4232
15926TIP3   OH269268   1.926   4.831  13.322 -0.5690 -0.1598  0.1181
15926TIP3    H169269   1.920   4.922  13.351 -0.9459 -0.2212  0.2302
15926TIP3    H269270   1.837   4.797  13.328 -0.2750 -0.8247  1.0196
15927TIP3   OH269271   0.809   2.787  16.725 -0.1190  0.1067  0.2016
15927TIP3    H169272   0.893   2.774  16.680 -0.0844 -1.3015  0.6366
15927TIP3    H269273   0.832   2.794  16.817 -0.4660 -0.0845  0.3023
15928TIP3   OH269274   3.747   3.814   3.171  0.1291  0.1430 -0.1316
15928TIP3    H169275   3.775   3.862   3.250  1.5848  3.2073 -2.3201
15928TIP3    H269276   3.826   3.770   3.141  0.1495  0.7850 -1.0386
15929TIP3   OH269277   6.068   0.077  12.239  0.1130  0.2303 -0.5013
15929TIP3    H169278   6.117  -0.006  12.238 -0.4818 -0.1279 -1.1703
15929TIP3    H269279   6.089   0.118  12.155  0.6372  0.9119 -0.0507
15930TIP3   OH269280   5.294   6.808  17.134 -0.4017 -0.2540 -0.7362
15930TIP3    H169281   5.364   6.860  17.094  2.0614 -0.4665  2.7666
15930TIP3    H269282   5.221   6.869  17.143  0.4566  0.9769 -1.6910
15931TIP3   OH269283   1.757   4.161  14.017 -0.1772 -0.8550 -0.4848
15931TIP3    H169284   1.848   4.190  14.007  0.3454 -0.7857  3.1427
15931TIP3    H269285   1.763   4.065  14.023 -0.4341 -0.8989 -0.9136
15932TIP3   OH269286   3.550   4.293  15.825  0.3933  0.0898  0.6543
15932TIP3    H169287   3.632   4.331  15.858  0.2261  1.2439 -0.1917
15932TIP3    H269288   3.575   4.244  15.747  0.3628 -0.0736  0.7467
15933TIP3   OH269289   6.746   0.907  15.047 -0.1982  0.1216 -0.4082
15933TIP3    H169290   6.669   0.851  15.047  0.2060 -0.4464 -0.6736
15933TIP3    H269291   6.816   0.852  15.010  0.3630  0.5766 -0.0518
15934TIP3   OH269292   6.139   6.149   0.656 -0.1713 -0.6400 -0.4846
15934TIP3    H169293   6.189   6.202   0.717  0.8023 -0.8961 -1.0308
15934TIP3    H269294   6.204   6.114   0.595 -1.3392  1.7295 -3.3212
15935TIP3   OH269295   3.381   0.937   1.548 -0.7388  0.0126 -0.2865
15935TIP3    H169296   3.360   0.955   1.456  0.7825 -0.5783 -0.7890
15935TIP3    H269297   3.331   0.858   1.569  0.7977 -1.3506 -1.4342
15936TIP3   OH269298   3.753   6.010   6.513 -0.3353 -0.1974  0.0337
15936TIP3    H169299   3.825   6.072   6.498 -0.1722  0.2005  2.1152
15936TIP3    H269300   3.674   6.064   6.507 -0.2335  0.1045  1.0988
15937TIP3   OH269301   0.719   2.166   2.754  0.0533 -0.2733 -0.6326
15937TIP3    H169302   0.791   2.221   2.724 -0.3034 -0.0218 -1.0549
15937TIP3    H269303   0.657   2.166   2.681 -1.4411  1.3915  0.5198
15938TIP3   OH269304   4.379   6.081   4.212 -0.4243 -0.0564 -0.1648
15938TIP3    H169305   4.428   6.038   4.282 -1.6153 -0.0540  0.7081
15938TIP3    H269306   4.332   6.152   4.257 -0.0266  0.9222 -1.2417
15939TIP3   OH269307   0.280   5.746  16.358  0.3222  0.4026  0.6028
15939TIP3    H169308   0.235   5.809  16.414 -0.7117 -1.2787  1.7817
15939TIP3    H269309   0.372   5.775  16.358  0.3328  0.6087  3.0447
15940TIP3   OH269310   6.137   4.011   2.152  0.1078  0.3526 -0.3123
15940TIP3    H169311   6.180   3.951   2.091  0.5368  1.1131 -0.7735
15940TIP3    H269312   6.193   4.088   2.154 -0.7895  1.0261 -0.2783
15941TIP3   OH269313   4.244   2.233  15.676 -0.1388  0.1706  0.2624
15941TIP3    H169314   4.243   2.314  15.625  0.5367 -0.2327 -0.4017
15941TIP3    H269315   4.198   2.170  15.621 -0.4883  0.0406  0.6944
15942TIP3   OH269316   2.203   6.773   0.930 -0.0296  0.0564 -0.1274
15942TIP3    H169317   2.207   6.844   0.867  2.3504 -0.0002 -0.1405
15942TIP3    H269318   2.247   6.807   1.008  1.2744 -1.4154 -0.1796
15943TIP3   OH269319   3.058   6.051  13.289  0.1091  0.5616 -0.3156
15943TIP3    H169320   3.058   6.079  13.380  0.0623 -0.5880  0.0428
15943TIP3    H269321   3.104   5.967  13.289 -1.6194 -0.4424 -1.0237
15944TIP3   OH269322   0.769   0.574   0.674 -0.4926 -0.0645 -0.1142
15944TIP3    H169323   0.844   0.576   0.734  1.5935 -3.3142 -2.2615
15944TIP3    H269324   0.760   0.664   0.644  2.5422  0.5310  0.3905
15945TIP3   OH269325   1.110   0.752   2.898 -0.3509  0.7911  0.3162
15945TIP3    H169326   1.173   0.681   2.906 -1.9772 -0.8378 -0.6111
15945TIP3    H269327   1.062   0.733   2.817 -2.0869  1.9065  1.0190
15946TIP3   OH269328   0.599   6.606   4.203  0.0146 -0.5407 -0.4251
15946TIP3    H169329   0.670   6.544   4.188 -0.3443 -0.8831 -0.6982
15946TIP3    H269330   0.575   6.594   4.295  1.0179  0.3202 -0.0214
15947TIP3   OH269331   4.348   2.237  16.961 -0.4395  0.7497 -0.3158
15947TIP3    H169332   4.279   2.191  16.914  0.1629 -1.0251  0.4357
15947TIP3    H269333   4.303   2.279  17.035 -0.6090 -1.6748  1.0770
15948TIP3   OH269334   4.405   6.790   4.733  0.3604 -0.1552  0.4718
15948TIP3    H169335   4.336   6.733   4.700  2.4612 -0.9813 -2.9597
15948TIP3    H269336   4.397   6.870   4.682  0.7628  0.5472  1.4607
15949TIP3   OH269337   2.876   0.362   1.326  0.0298 -0.1562 -0.5410
15949TIP3    H169338   2.953   0.305   1.325  0.1740 -0.0167  0.7210
15949TIP3    H269339   2.911   0.450   1.340 -0.3883 -0.2055  0.9886
15950TIP3   OH269340   6.607   5.230  11.357 -0.4518  0.4720 -0.2040
15950TIP3    H169341   6.606   5.150  11.409  0.7247  1.1214  0.8583
15950TIP3    H269342   6.682   5.279  11.389 -1.3605  2.1885 -0.5676
15951TIP3   OH269343   2.139   5.315   1.257  0.3666 -0.3084 -0.1267
15951TIP3    H169344   2.050   5.343   1.278 -0.2305 -1.5672 -0.8578
15951TIP3    H269345   2.134   5.220   1.255  1.5694 -0.3769 -0.8717
15952TIP3   OH269346   1.459   4.034   0.696 -0.1914 -0.4084  0.4102
15952TIP3    H169347   1.541   3.988   0.717  0.1699  0.3179  0.6256
15952TIP3    H269348   1.482   4.092   0.624 -0.1412  0.8348  1.3876
15953TIP3   OH269349   5.451   1.204   3.719 -0.1123 -0.0021 -0.0203
15953TIP3    H169350   5.469   1.254   3.639  1.1462  0.4580  0.5135
15953TIP3    H269351   5.492   1.256   3.788  2.6779 -2.4876  0.3894
15954TIP3   OH269352   2.304   3.749  15.314 -0.2498 -0.3659 -0.0975
15954TIP3    H169353   2.211   3.771  15.319 -0.2420  0.2099 -1.8425
15954TIP3    H269354   2.339   3.773  15.400 -1.5927 -0.0435  0.3854
15955TIP3   OH269355   0.650   6.379   2.956 -0.0036  0.0966  0.0106
15955TIP3    H169356   0.699   6.429   3.021  1.5194  1.3225 -1.9528
15955TIP3    H269357   0.560   6.380   2.987  0.3934  2.0193  1.2788
15956TIP3   OH269358   2.983   0.886   4.269 -0.5992 -0.2915  0.2785
15956TIP3    H169359   3.024   0.955   4.216 -0.9941  0.7976  1.3333
15956TIP3    H269360   2.947   0.933   4.345  1.2870 -1.9768  2.3290
15957TIP3   OH269361   3.776   4.036   1.173 -0.5090 -0.3499  0.2660
15957TIP3    H169362   3.840   3.971   1.203 -0.2317 -0.8097 -1.2520
15957TIP3    H269363   3.824   4.119   1.174 -0.0830 -0.5856 -0.2364
15958TIP3   OH269364   1.704   3.857   6.189 -0.0422  0.1745  0.0214
15958TIP3    H169365   1.694   3.788   6.255  0.8098 -0.6248 -0.6561
15958TIP3    H269366   1.618   3.899   6.185 -1.1293 -1.9604 -0.7424
15959TIP3   OH269367   1.628   6.727   3.860 -0.5484 -0.0578 -0.7852
15959TIP3    H169368   1.630   6.634   3.881 -0.0660  0.2204  0.4939
15959TIP3    H269369   1.536   6.745   3.839 -1.1667 -0.3228  1.4694
15960TIP3   OH269370   0.858   1.035   0.619 -0.8597  0.5086 -1.0155
15960TIP3    H169371   0.855   1.124   0.653 -1.4573  0.1538 -0.1215
15960TIP3    H269372   0.786   1.031   0.556  0.4405  1.2592 -2.6397
15961TIP3   OH269373   5.073   2.666   1.810  0.1519 -0.1599 -0.2954
15961TIP3    H169374   5.104   2.732   1.873  0.0847  0.3230 -0.7591
15961TIP3    H269375   5.151   2.641   1.761  0.2393 -0.6759  0.1059
15962TIP3   OH269376   5.652   2.716  14.196 -0.2152  0.0008  0.2094
15962TIP3    H169377   5.721   2.651  14.188 -1.5520 -1.7240  1.8048
15962TIP3    H269378   5.686   2.781  14.257  1.3321  1.1727 -1.7847
15963TIP3   OH269379   6.308   1.809   0.356 -0.4471 -0.3108 -0.6212
15963TIP3    H169380   6.221   1.844   0.376 -0.1621 -0.1334  0.3804
15963TIP3    H269381   6.353   1.808   0.441  0.8478  0.4753 -1.2613
15964TIP3   OH269382   0.233   3.924  14.410 -0.3560 -0.2705  0.2468
15964TIP3    H169383   0.259   3.871  14.485 -0.1022 -0.2093  0.2019
15964TIP3    H269384   0.315   3.948  14.367 -0.4799 -0.0317  0.1373
15965TIP3   OH269385   4.074   6.362  10.609  0.0438  0.2385  0.4969
15965TIP3    H169386   4.115   6.443  10.579 -2.5270  0.6522 -2.3479
15965TIP3    H269387   4.000   6.390  10.662  0.0429 -0.3435  0.8178
15966TIP3   OH269388   3.306   0.202   4.511  0.1561  0.3169  0.2098
15966TIP3    H169389   3.270   0.256   4.582  0.6699 -0.0781  0.7733
15966TIP3    H269390   3.398   0.189   4.534  0.5939  1.0047 -1.0305
15967TIP3   OH269391   4.416   2.212  15.429 -0.1508 -0.0168  0.3291
15967TIP3    H169392   4.420   2.144  15.497  0.2932 -0.5862 -0.2646
15967TIP3    H269393   4.456   2.173  15.352  0.9493  1.2361  0.2287
15968TIP3   OH269394   3.489   5.055  10.237 -0.2964 -0.0634 -0.2663
15968TIP3    H169395   3.472   5.139  10.279  2.1853 -0.7231  2.4673
15968TIP3    H269396   3.582   5.059  10.214 -0.3029 -1.8046 -0.7114
15969TIP3   OH269397   6.655   0.607   1.734 -0.5161  0.1207  0.0120
15969TIP3    H169398   6.709   0.585   1.659  1.1619  2.2610  0.4608
15969TIP3    H269399   6.568   0.624   1.698 -0.0736 -0.1813 -1.2385
15970TIP3   OH269400   4.408   6.450  14.785  0.0888  0.0766 -0.3966
15970TIP3    H169401   4.433   6.447  14.693 -0.5419 -1.1154 -0.5553
15970TIP3    H269402   4.491   6.452  14.832  0.4353  2.4442 -0.9774
15971TIP3   OH269403   2.189   6.628  16.185  0.0947 -0.2974  0.4734
15971TIP3    H169404   2.110   6.604  16.234 -0.7536  1.1537 -0.1131
15971TIP3    H269405   2.158   6.690  16.119  1.2530 -1.8235 -1.6491
15972TIP3   OH269406   3.241   1.401   1.351  0.0388  0.5455  0.8803
15972TIP3    H169407   3.329   1.383   1.382  0.2621 -0.1002 -0.0691
15972TIP3    H269408   3.233   1.348   1.271 -0.6322  1.8265  0.0642
15973TIP3   OH269409   3.527   4.379   3.198 -0.3704 -1.0094  0.4328
15973TIP3    H169410   3.535   4.302   3.254  2.8836 -1.8958 -1.0271
15973TIP3    H269411   3.513   4.343   3.110  1.2712  0.0133 -0.2802
15974TIP3   OH269412   3.688   2.378  11.047 -0.0242  0.0372  1.2104
15974TIP3    H169413   3.653   2.397  11.133 -0.8965 -1.5419  1.2584
15974TIP3    H269414   3.624   2.318  11.008  0.5729  0.3581 -0.3571
15975TIP3   OH269415   4.547   4.701  17.107  0.2230 -0.6668  0.2576
15975TIP3    H169416   4.608   4.649  17.054  0.5510 -0.4771  0.4561
15975TIP3    H269417   4.584   4.789  17.108  2.2473 -1.3838  3.8631
15976TIP3   OH269418   1.934   4.093   1.432  0.3991 -0.1693 -0.0469
15976TIP3    H169419   1.970   4.077   1.345  2.5984  0.8283  0.5951
15976TIP3    H269420   1.951   4.186   1.448 -0.5986 -0.1683  1.1718
15977TIP3   OH269421   6.218   2.551  16.890 -0.1879 -0.2978 -0.0007
15977TIP3    H169422   6.310   2.573  16.881  0.1511 -1.8055 -0.3797
15977TIP3    H269423   6.213   2.498  16.970 -0.5681 -0.9683 -0.4530
15978TIP3   OH269424   2.784   4.277   2.266  0.1271 -0.3193 -0.2969
15978TIP3    H169425   2.819   4.266   2.354 -2.5698  0.3989  0.9965
15978TIP3    H269426   2.786   4.372   2.252 -0.5703 -0.3303 -0.4881
15979TIP3   OH269427   0.465   6.123   1.899  0.0327 -0.4874 -0.1149
15979TIP3    H169428   0.458   6.061   1.825  0.7960  0.0206 -0.6220
15979TIP3    H269429   0.462   6.209   1.858  0.1332 -0.1938  0.4916
15980TIP3   OH269430   5.392   3.048   0.450 -0.4591 -0.6454 -0.8074
15980TIP3    H169431   5.388   3.132   0.403 -1.2547  0.0901  0.5199
15980TIP3    H269432   5.355   2.985   0.388 -1.0922  0.2182 -1.3387
15981TIP3   OH269433   1.174   1.403   5.725 -0.8279 -0.1017 -0.5374
15981TIP3    H169434   1.105   1.341   5.701 -1.0532 -1.5975  3.2179
15981TIP3    H269435   1.127   1.484   5.747 -1.4936 -0.9973  1.6423
15982TIP3   OH269436   3.521   1.106   2.525  0.4562 -0.4090  0.0690
15982TIP3    H169437   3.531   1.030   2.582  1.2429  0.1341  0.6777
15982TIP3    H269438   3.580   1.171   2.562 -0.9489  0.8595  0.1669
15983TIP3   OH269439   4.035   0.357   1.885  0.4477 -0.2545  0.1862
15983TIP3    H169440   3.994   0.443   1.881 -1.7963 -1.2631 -2.5124
15983TIP3    H269441   4.042   0.337   1.978 -0.9283  1.9661  0.8303
15984TIP3   OH269442   0.880   4.574  15.407 -0.5221  0.6104 -0.0971
15984TIP3    H169443   0.789   4.551  15.390 -0.5872  0.9034 -0.1396
15984TIP3    H269444   0.876   4.658  15.452 -0.2843  0.5064  0.1233
15985TIP3   OH269445   3.791   2.705   6.234  0.8752 -0.5883  0.0391
15985TIP3    H169446   3.733   2.684   6.307  0.0084 -1.2284 -0.8065
15985TIP3    H269447   3.783   2.800   6.224  0.6008 -0.5644  0.4469
15986TIP3   OH269448   6.111   1.946   2.272 -0.1316  0.2427 -0.2904
15986TIP3    H169449   6.101   2.032   2.313  1.0427  0.1662  0.2106
15986TIP3    H269450   6.185   1.957   2.212 -0.2856 -0.2872 -0.5791
15987TIP3   OH269451   5.909   0.655  13.112  0.1367  0.1754 -0.1303
15987TIP3    H169452   5.945   0.650  13.201  3.0581  2.6022 -1.0240
15987TIP3    H269453   5.845   0.726  13.116  0.3419  0.3532  0.0322
15988TIP3   OH269454   6.805   6.104  10.414  0.7923 -0.7941 -0.3421
15988TIP3    H169455   6.826   6.186  10.370  2.5671 -1.1244 -0.1754
15988TIP3    H269456   6.709   6.105  10.423  0.8793  2.7131  2.4471
15989TIP3   OH269457   0.004   3.912   2.274  0.5043  0.2748  0.3747
15989TIP3    H169458  -0.039   3.993   2.299  2.5710  1.7678 -0.5938
15989TIP3    H269459   0.038   3.929   2.186 -0.0552 -2.1033 -0.3733
15990TIP3   OH269460   2.924   3.343  11.938  0.4318  0.4619 -0.4973
15990TIP3    H169461   2.920   3.421  11.882  1.4010 -0.2704 -1.6318
15990TIP3    H269462   2.860   3.283  11.901  1.7052 -0.3769 -1.4224
15991TIP3   OH269463   4.214   6.062  13.703 -0.2951 -0.5965  0.0294
15991TIP3    H169464   4.247   6.047  13.791  1.2170 -0.7199 -0.5329
15991TIP3    H269465   4.177   5.978  13.676 -1.4951 -0.3485  0.8154
15992TIP3   OH269466   6.007   2.930  11.209  0.6502 -0.4107  0.1224
15992TIP3    H169467   6.071   2.925  11.280  0.1086 -1.4174  0.5660
15992TIP3    H269468   6.035   2.862  11.147  0.6225 -0.1233 -0.2080
15993TIP3   OH269469   6.538   1.409   6.076 -0.2222 -0.4223 -0.2845
15993TIP3    H169470   6.459   1.365   6.045 -0.0505 -0.7184 -0.3073
15993TIP3    H269471   6.575   1.451   5.998 -0.4477 -0.1396 -0.2404
15994TIP3   OH269472   3.125   6.148   3.524  0.0650  0.3504 -0.3856
15994TIP3    H169473   3.200   6.111   3.478  0.9616  0.0767  1.2046
15994TIP3    H269474   3.123   6.239   3.497  0.3134  0.1067 -1.2642
15995TIP3   OH269475   6.683   6.139   1.208  0.1559 -0.1551  0.1429
15995TIP3    H169476   6.636   6.203   1.262  2.2676  0.0127  1.9369
15995TIP3    H269477   6.663   6.054   1.248  1.9619 -0.0043  1.5281
15996TIP3   OH269478   1.735   5.405  13.933 -0.2226 -0.2488  0.0673
15996TIP3    H169479   1.721   5.413  14.027  1.4135 -0.1658  0.3280
15996TIP3    H269480   1.770   5.317  13.920 -0.4375 -0.2616 -0.4651
15997TIP3   OH269481   4.115   4.888   2.258 -0.0138  0.1682  0.4820
15997TIP3    H169482   4.060   4.932   2.193  0.1536  1.1675  0.9939
15997TIP3    H269483   4.205   4.903   2.228  0.0197 -0.5170  0.2341
15998TIP3   OH269484   6.231   3.852  15.454  0.0808 -0.3394 -0.0681
15998TIP3    H169485   6.222   3.780  15.516  0.6162  0.5053  1.0210
15998TIP3    H269486   6.145   3.896  15.455  0.1244 -0.2595  0.1600
15999TIP3   OH269487   1.861   5.401   1.262 -0.2599  0.0207  0.5048
15999TIP3    H169488   1.777   5.360   1.279 -1.5278  2.3463  0.1876
15999TIP3    H269489   1.872   5.395   1.167 -0.1182 -0.1306  0.5288
16000TIP3   OH269490   2.598   1.911   0.610  0.0743 -0.1092  0.0032
16000TIP3    H169491   2.570   1.826   0.575  2.5784  0.2281 -3.2165
16000TIP3    H269492   2.547   1.920   0.691 -2.0407 -3.5587 -0.6946
16001TIP3   OH269493   5.258   2.820   0.330 -0.5955 -0.0779  0.2524
16001TIP3    H169494   5.208   2.745   0.360  0.5523 -1.8246 -1.9242
16001TIP3    H269495   5.286   2.797   0.242 -0.5609  3.1248 -0.6871
16002TIP3   OH269496   4.975   0.027  16.661 -0.0552  0.1531  0.5581
16002TIP3    H169497   5.015   0.018  16.747  0.7487 -3.0634 -0.0019
16002TIP3    H269498   4.983  -0.061  16.622 -1.3905  1.1969 -2.3453
16003TIP3   OH269499   5.803   4.561  13.870  0.0041  0.4635 -0.3832
16003TIP3    H169500   5.739   4.495  13.895 -0.6147  0.8472 -0.9118
16003TIP3    H269501   5.878   4.511  13.837 -1.1000 -0.0090 -2.3797
16004TIP3   OH269502   5.876   5.036   2.020 -0.2474 -0.0178  0.2592
16004TIP3    H169503   5.922   4.962   1.981 -0.2270 -1.0989  2.2004
16004TIP3    H269504   5.946   5.099   2.040  0.0658 -0.5160  0.7692
16005TIP3   OH269505   4.777   4.951  11.065  0.1081 -0.4860 -0.3187
16005TIP3    H169506   4.822   4.914  10.989 -1.1248 -0.1608 -1.2477
16005TIP3    H269507   4.758   4.876  11.121  0.8327 -0.7585 -0.4260
16006TIP3   OH269508   6.753   1.791  17.299  0.0235 -0.2769  0.3449
16006TIP3    H169509   6.663   1.818  17.318 -0.8094 -1.1410 -2.0949
16006TIP3    H269510   6.745   1.713  17.244  2.2171  0.4500 -1.1617
16007TIP3   OH269511   1.750   0.725  14.140 -0.1296  0.2752  0.3452
16007TIP3    H169512   1.681   0.662  14.159 -2.2814  2.3985 -0.0522
16007TIP3    H269513   1.743   0.790  14.209  0.3032  1.4435 -0.6799
16008TIP3   OH269514   6.620   3.163  12.467  1.1193 -0.6829 -0.2318
16008TIP3    H169515   6.698   3.142  12.415  0.8557 -0.2481 -0.8020
16008TIP3    H269516   6.546   3.146  12.409  0.8520  0.5387 -0.2625
16009TIP3   OH269517   4.059   5.474  12.862 -0.2609  0.9135 -0.4679
16009TIP3    H169518   3.969   5.462  12.893 -0.6875  1.2591 -1.5510
16009TIP3    H269519   4.110   5.486  12.942 -1.0453 -0.0988  0.2092
16010TIP3   OH269520   5.682   2.840   5.472  0.1495 -0.4292 -0.0287
16010TIP3    H169521   5.745   2.885   5.528  0.3367 -0.8967  0.1361
16010TIP3    H269522   5.601   2.841   5.523 -0.2790  1.1098 -0.6725
16011TIP3   OH269523   1.930   3.213  16.596  0.5001 -0.2822 -0.4830
16011TIP3    H169524   2.016   3.253  16.611  1.3777 -1.8498 -1.1414
16011TIP3    H269525   1.910   3.168  16.678  1.4788 -1.9554 -1.1147
16012TIP3   OH269526   5.871   5.025   0.600 -0.7010 -0.5471  0.2039
16012TIP3    H169527   5.876   4.954   0.663 -2.2761  0.5631  1.7042
16012TIP3    H269528   5.788   5.070   0.622 -1.0602  0.1830 -2.3484
16013TIP3   OH269529   5.986   5.505   3.904  0.1075  0.3702 -0.7210
16013TIP3    H169530   6.049   5.546   3.844  0.0698  1.7454  0.1310
16013TIP3    H269531   6.001   5.411   3.894  2.5214  0.6427 -0.3294
16014TIP3   OH269532   5.502   5.282  17.024 -0.5750 -0.1374 -0.1082
16014TIP3    H169533   5.566   5.353  17.024 -1.0087  0.2656  0.7459
16014TIP3    H269534   5.439   5.306  16.956 -2.0732  1.5819  1.7740
16015TIP3   OH269535   0.981   3.772   4.416  0.3574 -0.5560  0.4643
16015TIP3    H169536   0.981   3.732   4.330  0.6250  0.1145  0.1482
16015TIP3    H269537   1.072   3.796   4.433 -0.0370  1.6578 -0.1974
16016TIP3   OH269538   3.311   4.087  11.444 -0.3223 -0.9866  0.5030
16016TIP3    H169539   3.406   4.088  11.452 -0.0945  0.1815 -1.6272
16016TIP3    H269540   3.280   4.100  11.534  1.6048  1.7094  0.9101
16017TIP3   OH269541   0.427   4.012  12.884 -0.6137  0.0541  0.2331
16017TIP3    H169542   0.380   3.949  12.828  0.6593 -0.1990 -0.5930
16017TIP3    H269543   0.421   4.095  12.838 -0.5104  0.0841  0.2730
16018TIP3   OH269544   1.405   5.332   2.930  0.1642 -0.6391  0.5287
16018TIP3    H169545   1.330   5.349   2.873 -0.5849 -2.0220  1.0479
16018TIP3    H269546   1.436   5.418   2.955  0.2206  0.0053 -1.5720
16019TIP3   OH269547   4.426   5.712   3.745 -0.1116 -0.0905  0.1856
16019TIP3    H169548   4.373   5.691   3.668  0.5538 -2.5776  0.3050
16019TIP3    H269549   4.427   5.808   3.749 -1.4588  0.0717 -1.9605
16020TIP3   OH269550   4.358   3.397   1.774 -0.0756  0.5899 -0.6914
16020TIP3    H169551   4.281   3.340   1.784  0.7937 -0.3122  6.5113
16020TIP3    H269552   4.426   3.339   1.739 -0.9081 -0.9766  0.1142
16021TIP3   OH269553   4.164   4.064   2.219 -0.0867  0.2811 -0.1440
16021TIP3    H169554   4.192   4.025   2.136 -1.9108 -0.8085 -0.3079
16021TIP3    H269555   4.202   4.008   2.286  0.3373  0.4085 -0.2758
16022TIP3   OH269556   2.751   3.079  11.995  0.3496  0.1603 -0.8279
16022TIP3    H169557   2.815   3.086  11.924  1.3081 -0.2742 -0.0482
16022TIP3    H269558   2.681   3.025  11.960  0.6210  0.2846 -1.5726
16023TIP3   OH269559   0.010   4.707   5.002 -0.4858  1.1337  0.0222
16023TIP3    H169560  -0.007   4.763   4.926  1.8378  0.4803 -1.0668
16023TIP3    H269561  -0.010   4.619   4.972 -0.0515  0.9236  0.3418
16024TIP3   OH269562   4.883   1.976   2.254  0.0348 -0.3148  0.1383
16024TIP3    H169563   4.839   1.928   2.184 -0.1419 -1.1683  0.8118
16024TIP3    H269564   4.967   1.932   2.265 -0.1341 -0.4990  0.7694
16025TIP3   OH269565   3.609   3.922   0.539 -0.0799  0.2205  0.3927
16025TIP3    H169566   3.569   3.869   0.608 -1.3133  0.7132  0.0798
16025TIP3    H269567   3.552   3.909   0.463  0.4646  0.7989 -0.1227
16026TIP3   OH269568   5.327   2.210   3.235 -0.4680  0.6788  0.4081
16026TIP3    H169569   5.283   2.139   3.188  1.2880 -0.5496  0.5441
16026TIP3    H269570   5.379   2.255   3.168 -1.0765  1.4678  0.4460
16027TIP3   OH269571   4.085   0.117   1.473 -0.3366  0.0330  0.3804
16027TIP3    H169572   4.126   0.201   1.497  0.2070 -0.3608  0.8573
16027TIP3    H269573   4.158   0.064   1.441 -0.4238 -0.7446  1.4126
16028TIP3   OH269574   0.698   0.533  14.869 -0.3326  0.2052  0.1729
16028TIP3    H169575   0.714   0.627  14.858  0.1476  0.0059 -0.8777
16028TIP3    H269576   0.614   0.529  14.915 -0.2625  1.1467  0.4143
16029TIP3   OH269577   6.000   5.743   3.616 -0.0117  0.6719 -0.8581
16029TIP3    H169578   5.977   5.826   3.575 -1.4866  0.2625 -0.8989
16029TIP3    H269579   6.014   5.683   3.542  1.2944  0.9207 -0.8372
16030TIP3   OH269580   3.008   1.231  11.640 -0.0097 -0.1242  0.1597
16030TIP3    H169581   3.034   1.225  11.732 -0.6129  2.6105  0.6090
16030TIP3    H269582   2.919   1.198  11.637 -0.4311  0.8975  0.8447
16031TIP3   OH269583   0.650   4.680  11.571 -0.2106  0.6024 -0.2275
16031TIP3    H169584   0.626   4.760  11.617 -0.7662  0.4951 -0.3228
16031TIP3    H269585   0.739   4.696  11.538 -0.0437  0.8996  0.3706
16032TIP3   OH269586   4.789   0.228  14.716  0.2974 -0.1088 -0.0745
16032TIP3    H169587   4.809   0.172  14.791  0.5077  1.3219  0.9934
16032TIP3    H269588   4.705   0.269  14.738 -0.8020 -1.3691 -1.6915
16033TIP3   OH269589   5.932   0.074   3.186  0.8343 -1.0449 -0.3384
16033TIP3    H169590   5.903   0.086   3.277  2.0397 -2.3027  0.2338
16033TIP3    H269591   5.905   0.155   3.142 -4.6453 -2.3912 -0.2327
16034TIP3   OH269592   4.496   0.879   5.677  0.6798 -0.0034 -0.2236
16034TIP3    H169593   4.527   0.959   5.718  1.1679  0.5632 -1.6248
16034TIP3    H269594   4.425   0.907   5.619  0.3992 -0.6900 -0.2298
16035TIP3   OH269595   5.880   5.816  13.252  0.0985 -1.1143  0.2146
16035TIP3    H169596   5.858   5.865  13.331 -0.4558 -1.6073  0.3718
16035TIP3    H269597   5.800   5.816  13.200  0.4008 -0.9681 -0.2601
16036TIP3   OH269598   1.798   4.221  16.465 -0.2157 -0.5826 -0.0475
16036TIP3    H169599   1.791   4.253  16.555  0.9892 -1.1205  0.2486
16036TIP3    H269600   1.785   4.299  16.411  0.1808 -0.0560  0.6084
16037TIP3   OH269601   0.818   4.126  11.571  0.6492 -0.1043  0.2414
16037TIP3    H169602   0.806   4.217  11.596  1.5939  0.3515 -0.8545
16037TIP3    H269603   0.848   4.130  11.480  0.4613 -1.5228  0.0888
16038TIP3   OH269604   3.719   4.689   3.374 -0.0001 -0.3188  0.2143
16038TIP3    H169605   3.792   4.665   3.431 -0.1559 -1.8178 -0.1821
16038TIP3    H269606   3.643   4.688   3.432  0.0738 -0.2514  0.3131
16039TIP3   OH269607   0.845   5.753   6.930  0.2903  0.0812 -0.8584
16039TIP3    H169608   0.874   5.727   6.843 -1.3032  1.3740 -1.8437
16039TIP3    H269609   0.792   5.831   6.915  0.9717  1.0813  1.4133
16040TIP3   OH269610   2.400   6.468  11.732  0.1733  0.3409 -0.1140
16040TIP3    H169611   2.468   6.534  11.719 -0.4935  1.4641  1.6760
16040TIP3    H269612   2.339   6.509  11.794 -2.9160 -0.0648 -2.6414
16041TIP3   OH269613   6.706   3.298   3.549  0.5061 -0.1254  0.0234
16041TIP3    H169614   6.623   3.287   3.503  0.1999  0.8413  0.3312
16041TIP3    H269615   6.755   3.218   3.529  0.4181  0.2881 -2.0329
16042TIP3   OH269616   3.807   4.759   4.963 -0.4371  0.2786 -0.4580
16042TIP3    H169617   3.713   4.750   4.949 -0.2188 -1.0334 -1.1724
16042TIP3    H269618   3.839   4.670   4.971  0.7032  0.7256  0.1572
16043TIP3   OH269619   0.816   1.146   5.207  0.0546  0.1674 -0.5127
16043TIP3    H169620   0.741   1.199   5.180  0.5804  1.1138 -0.1737
16043TIP3    H269621   0.887   1.210   5.219  0.4413 -0.4844  0.8680
16044TIP3   OH269622   3.371   6.583  11.940  0.6051 -0.2814 -0.2487
16044TIP3    H169623   3.446   6.525  11.950 -0.8996 -2.0189  1.7599
16044TIP3    H269624   3.402   6.669  11.969  1.9813 -0.7841 -0.1893
16045TIP3   OH269625   6.368   3.963  16.581  0.1733  0.1771 -0.8016
16045TIP3    H169626   6.423   3.985  16.657 -0.8085  0.6047 -0.1945
16045TIP3    H269627   6.418   3.896  16.535  1.5121  1.0124 -0.6358
16046TIP3   OH269628   5.181   0.247  15.113 -0.1215 -0.2547  0.1085
16046TIP3    H169629   5.119   0.301  15.162 -0.4767 -0.1385 -0.4544
16046TIP3    H269630   5.235   0.309  15.065  0.6989 -0.3463  0.9074
16047TIP3   OH269631   2.150   2.000  13.695  0.3915  0.2740 -0.5307
16047TIP3    H169632   2.117   2.089  13.683  2.3907  1.2859  0.9773
16047TIP3    H269633   2.074   1.944  13.679 -1.3824  2.3278  0.2715
16048TIP3   OH269634   1.615   6.122   3.532  0.0127  0.5962  0.3662
16048TIP3    H169635   1.653   6.194   3.582  0.4000 -1.1349  2.6894
16048TIP3    H269636   1.521   6.136   3.538  0.0876  1.8351 -0.7333
16049TIP3   OH269637   4.964   5.923  11.561 -0.0429 -0.7015  0.0246
16049TIP3    H169638   4.906   5.848  11.548 -0.1827 -0.4719 -0.7107
16049TIP3    H269639   5.047   5.895  11.522  0.1633 -0.8011  0.5316
16050TIP3   OH269640   6.309   5.456  15.886  0.0015  0.7156  0.2812
16050TIP3    H169641   6.232   5.512  15.878  0.3129  1.0134 -0.7523
16050TIP3    H269642   6.278   5.369  15.859 -0.5536  0.2771  2.1552
16051TIP3   OH269643   2.610   6.683  16.843 -0.1283 -0.0842 -0.4721
16051TIP3    H169644   2.615   6.766  16.796  2.2173  0.2088  0.1921
16051TIP3    H269645   2.592   6.618  16.775 -0.8811  0.8053 -1.1538
16052TIP3   OH269646   4.295   5.112  17.259  0.1851 -0.0648 -0.0560
16052TIP3    H169647   4.333   5.192  17.222 -0.6313  1.5385  2.3259
16052TIP3    H269648   4.226   5.087  17.197 -1.3098  2.6439  0.3342
16053TIP3   OH269649   2.545   1.300   5.843  0.0566  0.4153 -0.1669
16053TIP3    H169650   2.602   1.275   5.916 -0.1717  0.8296  0.1516
16053TIP3    H269651   2.456   1.292   5.878 -0.0401  1.0652 -0.2553
16054TIP3   OH269652   1.292   1.578  16.166  0.3603  0.1081  0.1197
16054TIP3    H169653   1.249   1.542  16.089  1.2588  2.1964 -1.4531
16054TIP3    H269654   1.223   1.585  16.232 -0.7309 -0.4085 -0.9429
16055TIP3   OH269655   2.334   0.815   3.912  0.5994  0.2020  0.4296
16055TIP3    H169656   2.329   0.875   3.987  0.0889 -0.3068  0.8084
16055TIP3    H269657   2.276   0.855   3.846 -1.6375 -1.0409  1.5361
16056TIP3   OH269658   2.430   5.507  11.882 -0.4008 -0.1947 -0.4151
16056TIP3    H169659   2.498   5.542  11.825 -1.7285  0.0215 -1.9449
16056TIP3    H269660   2.475   5.486  11.964  0.6610  4.3770  0.3954
16057TIP3   OH269661   4.543   5.569  12.468  0.0042  0.1884  0.0290
16057TIP3    H169662   4.573   5.655  12.437 -0.4032  0.6067  0.7844
16057TIP3    H269663   4.620   5.532  12.512 -0.1730  0.6898  0.7768
16058TIP3   OH269664   0.792   3.237   1.465  0.0503 -0.8915 -0.4257
16058TIP3    H169665   0.814   3.327   1.490 -2.5433 -0.5501  1.0700
16058TIP3    H269666   0.746   3.246   1.381  1.8564 -1.1558 -1.4959
16059TIP3   OH269667   4.581   5.262   3.040 -0.2616 -0.5875  0.0237
16059TIP3    H169668   4.600   5.171   3.015 -0.4262 -0.5827 -0.1162
16059TIP3    H269669   4.649   5.313   2.996 -1.1967 -0.4605 -1.3190
16060TIP3   OH269670   2.129   1.645  15.578 -0.0690  0.4559  0.4895
16060TIP3    H169671   2.212   1.599  15.568 -0.0856  0.6270 -0.5079
16060TIP3    H269672   2.147   1.734  15.546 -0.5987  0.5358  0.4086
16061TIP3   OH269673   4.663   0.269   5.060 -0.3028 -0.6207  0.0358
16061TIP3    H169674   4.673   0.178   5.035  0.3377 -0.5247 -0.0702
16061TIP3    H269675   4.752   0.304   5.061 -0.4782 -0.1590  0.6782
16062TIP3   OH269676   4.375   1.681  13.042  0.1993  0.3130  0.1965
16062TIP3    H169677   4.400   1.713  13.129 -0.1194  0.2169  0.3241
16062TIP3    H269678   4.281   1.665  13.049 -0.5698  3.5149 -1.1087
16063TIP3   OH269679   0.467   2.537  14.102  0.2935 -0.0970 -0.0303
16063TIP3    H169680   0.528   2.478  14.058  1.2588 -1.2282  2.6205
16063TIP3    H269681   0.381   2.503  14.079  0.6967 -0.2313 -1.5039
16064TIP3   OH269682   5.197   2.416  13.898  0.1933  0.1317 -0.2908
16064TIP3    H169683   5.270   2.355  13.890  0.5494  0.4583  0.3920
16064TIP3    H269684   5.201   2.470  13.819 -1.3449 -1.9946 -1.9594
16065TIP3   OH269685   4.979   1.745   3.281  0.1751  0.6863  0.0067
16065TIP3    H169686   4.902   1.732   3.227  0.5575  2.6915 -1.1342
16065TIP3    H269687   4.953   1.715   3.368 -1.0717 -0.8913 -0.8635
16066TIP3   OH269688   4.389   3.562  16.960  0.2721 -0.5340 -0.1295
16066TIP3    H169689   4.384   3.552  17.055  0.5388 -0.8170 -0.1430
16066TIP3    H269690   4.459   3.626  16.946  1.1467 -1.4780 -0.1794
16067TIP3   OH269691   6.317   1.645  12.448  0.2429  0.4937  0.3008
16067TIP3    H169692   6.346   1.689  12.528 -1.2133  0.8327  0.6885
16067TIP3    H269693   6.327   1.552  12.467 -0.5218  0.5499  1.0918
16068TIP3   OH269694   4.375   6.377   3.823  0.0321 -0.3770 -0.0832
16068TIP3    H169695   4.455   6.393   3.772  0.4220  2.6344  1.2749
16068TIP3    H269696   4.407   6.341   3.906  0.1458  1.5498  0.7629
16069TIP3   OH269697   5.490   6.166  12.392 -0.0909  0.0539 -0.5239
16069TIP3    H169698   5.445   6.251  12.399  0.8528  0.4784  0.8925
16069TIP3    H269699   5.582   6.188  12.378  0.4071 -0.6537  1.3030
16070TIP3   OH269700   0.401   6.499  17.034 -0.0784  0.2801  0.3118
16070TIP3    H169701   0.473   6.549  16.995  0.8936 -1.4771 -0.2530
16070TIP3    H269702   0.437   6.464  17.115 -0.7797  0.5171  0.7407
16071TIP3   OH269703   1.710   6.036  13.585  0.5463 -0.1861 -0.1656
16071TIP3    H169704   1.686   6.104  13.648  0.6357 -0.8045  0.5564
16071TIP3    H269705   1.630   5.987  13.571  0.7180 -0.5414  0.0895
16072TIP3   OH269706   4.101   2.728   4.476  0.3516  0.1219  0.0398
16072TIP3    H169707   4.027   2.782   4.448 -0.6618 -1.9359 -1.4453
16072TIP3    H269708   4.163   2.791   4.513 -0.5093  2.3795 -2.0918
16073TIP3   OH269709   6.769   0.427  13.419 -0.1608 -0.4818 -0.3646
16073TIP3    H169710   6.697   0.416  13.481  0.4598  0.4320  0.5627
16073TIP3    H269711   6.731   0.473  13.345 -0.5548 -0.0593  0.0921
16074TIP3   OH269712   6.223   6.330   2.855  0.2888 -0.5065 -0.0126
16074TIP3    H169713   6.238   6.243   2.893  1.0894  0.2550  1.5180
16074TIP3    H269714   6.167   6.374   2.918 -1.4442 -0.3930 -1.5409
16075TIP3   OH269715   6.270   0.521   0.659  0.2641 -0.8563  0.0252
16075TIP3    H169716   6.355   0.566   0.653 -0.6230  0.9197  0.2242
16075TIP3    H269717   6.264   0.495   0.751  0.4717 -0.7763  0.0624
16076TIP3   OH269718   0.996   2.246  14.565  0.4221 -0.3296  0.0988
16076TIP3    H169719   1.034   2.174  14.515  0.6006  0.2138 -0.5628
16076TIP3    H269720   0.934   2.204  14.625 -2.8679 -0.7780 -3.2400
16077TIP3   OH269721   1.236   5.698   1.163 -0.0302  0.3878  0.2645
16077TIP3    H169722   1.222   5.634   1.093  1.5934  0.0067  0.2426
16077TIP3    H269723   1.153   5.745   1.170 -0.6492 -0.4652 -1.0007
16078TIP3   OH269724   1.258   5.795  13.350 -0.0067 -0.3223 -0.5416
16078TIP3    H169725   1.198   5.738  13.302  0.6089 -2.2005  0.8052
16078TIP3    H269726   1.292   5.856  13.283  0.7877 -2.7838 -2.5472
16079TIP3   OH269727   2.985   3.198  12.277  0.5625 -0.4274  0.3118
16079TIP3    H169728   2.949   3.152  12.353  1.1071 -0.4300  0.5699
16079TIP3    H269729   3.064   3.149  12.255  0.8151  0.0219  0.2110
16080TIP3   OH269730   1.077   6.600   2.369 -0.2225 -0.2859 -0.4561
16080TIP3    H169731   1.035   6.648   2.440 -1.6728 -1.1188 -0.7088
16080TIP3    H269732   1.072   6.508   2.395  2.9076 -0.3848  0.2299
16081TIP3   OH269733   4.941   3.644  11.466 -0.2810 -0.1647  0.3345
16081TIP3    H169734   4.900   3.588  11.401 -0.0583  0.2489 -0.1674
16081TIP3    H269735   4.868   3.689  11.510 -0.3810  0.5607 -0.5451
16082TIP3   OH269736   0.338   0.117   4.346 -0.0655  0.3725  0.4349
16082TIP3    H169737   0.376   0.202   4.327  2.4418 -0.5801  0.8136
16082TIP3    H269738   0.349   0.067   4.264  1.1287 -0.4412  1.0560
16083TIP3   OH269739   5.528   0.118   0.391 -0.1553 -0.0618  0.2355
16083TIP3    H169740   5.596   0.093   0.453 -0.7837  0.1717  1.0323
16083TIP3    H269741   5.454   0.146   0.445 -1.8903 -2.7340 -0.5187
16084TIP3   OH269742   3.565   4.887   5.074  0.2424 -0.0269  0.6292
16084TIP3    H169743   3.645   4.894   5.125 -0.5266 -0.7923  1.9773
16084TIP3    H269744   3.495   4.909   5.135 -0.5771  0.8444 -0.5838
16085TIP3   OH269745   2.143   4.865  12.374  0.2616 -0.0786  0.1043
16085TIP3    H169746   2.129   4.771  12.386 -0.3415 -0.0727 -0.4917
16085TIP3    H269747   2.060   4.906  12.399  0.9219  0.4225  1.6014
16086TIP3   OH269748   4.881   2.667   2.161 -0.2127 -0.1152 -0.5201
16086TIP3    H169749   4.865   2.708   2.076 -0.2808 -1.1856 -1.0338
16086TIP3    H269750   4.796   2.633   2.187 -0.3286  0.7566  0.2870
16087TIP3   OH269751   3.616   1.822   2.219 -0.0856  0.3755  0.0513
16087TIP3    H169752   3.602   1.893   2.157 -0.6799 -0.0072 -0.2595
16087TIP3    H269753   3.691   1.774   2.184 -0.6973 -0.1033 -0.6268
16088TIP3   OH269754   2.512   1.783   4.308 -0.6141 -0.4486  0.3102
16088TIP3    H169755   2.419   1.761   4.314 -0.7208 -0.1357 -0.1840
16088TIP3    H269756   2.523   1.855   4.371 -1.0827  0.7090 -0.8909
16089TIP3   OH269757   1.308   3.674  15.381 -0.4925 -0.2602  0.3035
16089TIP3    H169758   1.366   3.605  15.350 -2.0667 -1.9867  0.9854
16089TIP3    H269759   1.358   3.718  15.451  1.7704  1.5152 -2.1978
16090TIP3   OH269760   2.275   1.137  13.608 -0.3597  0.3890 -0.2254
16090TIP3    H169761   2.336   1.160  13.678  1.6957  0.1464 -1.8250
16090TIP3    H269762   2.329   1.090  13.544 -1.2308  3.4586 -3.5688
16091TIP3   OH269763   0.265   2.973  12.810 -0.0741 -0.1595 -0.1766
16091TIP3    H169764   0.304   3.058  12.788 -0.3430 -0.2244 -0.9236
16091TIP3    H269765   0.292   2.957  12.900  2.9299 -0.8792 -1.0699
16092TIP3   OH269766   5.699   5.561   1.159  0.0616 -0.0236 -0.2086
16092TIP3    H169767   5.684   5.583   1.251  0.0781  0.6400 -0.3643
16092TIP3    H269768   5.616   5.523   1.130  0.0532 -0.2262  0.0758
16093TIP3   OH269769   6.747   5.127  11.127  0.2469 -0.3272  0.1193
16093TIP3    H169770   6.694   5.170  11.194 -0.2863  0.1197 -0.5653
16093TIP3    H269771   6.832   5.172  11.132 -0.6156  1.6236 -1.2868
16094TIP3   OH269772   5.395   4.163  13.291 -0.1940 -0.0970 -0.7637
16094TIP3    H169773   5.430   4.139  13.205  0.3935  0.1947 -0.6161
16094TIP3    H269774   5.453   4.233  13.321 -0.9106  0.3824 -0.4916
16095TIP3   OH269775   2.398   1.498  12.285 -0.3436  0.3341  0.0687
16095TIP3    H169776   2.388   1.447  12.366 -1.0792  1.3229  0.6294
16095TIP3    H269777   2.415   1.433  12.217  0.5323 -0.5063  1.0532
16096TIP3   OH269778   0.647   0.915   6.110 -0.1298 -0.0393 -0.2685
16096TIP3    H169779   0.600   0.924   6.193  0.8113  0.9334  0.1668
16096TIP3    H269780   0.739   0.908   6.134  0.1872  0.5260 -1.2408
16097TIP3   OH269781   2.387   6.825  17.005  0.1474  0.0219 -0.4249
16097TIP3    H169782   2.378   6.910  16.963  0.0502  0.7113  0.9518
16097TIP3    H269783   2.446   6.776  16.947 -0.8530  0.5269 -1.9252
16098TIP3   OH269784   5.665   6.190   4.140  0.8182  0.3770  0.6711
16098TIP3    H169785   5.615   6.259   4.097 -2.3016 -2.1779 -0.1824
16098TIP3    H269786   5.671   6.218   4.232  0.3229  2.0600  0.2287
16099TIP3   OH269787   5.537   1.816   3.794  0.4521  0.4356 -0.2002
16099TIP3    H169788   5.474   1.888   3.802  2.5231  2.4656 -0.7772
16099TIP3    H269789   5.577   1.810   3.880  1.0891  0.8212 -0.4581
16100TIP3   OH269790   5.210   3.299  14.840 -0.1963 -0.3111  0.2955
16100TIP3    H169791   5.164   3.261  14.765  1.0570 -0.8082 -0.2460
16100TIP3    H269792   5.249   3.379  14.806  0.5456 -0.6414  0.3503
16101TIP3   OH269793   4.554   2.242  11.528  0.5981 -0.2279 -0.3179
16101TIP3    H169794   4.587   2.153  11.543  1.3057  0.0569 -0.1576
16101TIP3    H269795   4.506   2.236  11.445 -0.0862 -0.9502  0.1190
16102TIP3   OH269796   1.901   4.093  12.994  0.8412  0.3299 -0.3761
16102TIP3    H169797   1.937   4.053  12.916  0.7575  1.1334 -0.8404
16102TIP3    H269798   1.959   4.167  13.012  0.6540  0.3616  0.1159
16103TIP3   OH269799   3.612   6.430   5.110 -0.5317 -0.0526 -0.4312
16103TIP3    H169800   3.703   6.442   5.083 -0.2820  0.4357  0.5771
16103TIP3    H269801   3.615   6.359   5.174 -0.4503  1.5448  1.4614
16104TIP3   OH269802   6.010   6.158  10.909 -0.4909  1.3583 -0.3638
16104TIP3    H169803   6.062   6.204  10.976  1.0268 -2.1142  1.0837
16104TIP3    H269804   5.921   6.158  10.944 -0.1252  1.4608  0.6043
16105TIP3   OH269805   3.573   6.141   1.370  0.2674 -0.0660  0.5544
16105TIP3    H169806   3.631   6.214   1.392  0.1732 -0.1754  1.2059
16105TIP3    H269807   3.632   6.065   1.363  0.1947 -0.2045  1.3595
16106TIP3   OH269808   2.825   1.310  17.119 -0.0600 -0.3021  0.1745
16106TIP3    H169809   2.768   1.322  17.194  1.0723 -0.2454  1.0538
16106TIP3    H269810   2.797   1.228  17.079 -0.0763 -0.8059  1.2080
16107TIP3   OH269811   2.537   3.470  13.591 -0.0546 -0.1290 -0.3842
16107TIP3    H169812   2.561   3.516  13.511 -0.4885  3.2725  1.2262
16107TIP3    H269813   2.619   3.437  13.627  0.4830  0.5445 -0.9831
16108TIP3   OH269814   2.570   0.541   2.473 -0.2570  0.0032  0.5688
16108TIP3    H169815   2.536   0.475   2.535 -0.5060 -0.8644 -0.4653
16108TIP3    H269816   2.633   0.493   2.419  0.5812  0.9543  0.6639
16109TIP3   OH269817   2.119   3.578   3.290  0.3749  0.0430 -0.0315
16109TIP3    H169818   2.026   3.569   3.272  0.4549 -1.1463  0.0845
16109TIP3    H269819   2.152   3.488   3.295  1.3365  0.4198  0.9031
16110TIP3   OH269820   3.329   0.606  13.291 -0.0603 -0.3276 -0.0309
16110TIP3    H169821   3.423   0.599  13.279  0.0828 -0.5063  1.1062
16110TIP3    H269822   3.318   0.669  13.362 -0.8250  0.1384 -0.5474
16111TIP3   OH269823   3.868   2.660   3.318 -0.2039 -0.9183 -0.4123
16111TIP3    H169824   3.875   2.675   3.412  0.4038  0.5137 -0.6571
16111TIP3    H269825   3.950   2.616   3.295 -0.7994 -2.2050 -0.1216
16112TIP3   OH269826   4.205   5.219  13.687  0.0436  0.2511  0.6104
16112TIP3    H169827   4.299   5.232  13.696  0.1978 -0.5417  0.2532
16112TIP3    H269828   4.197   5.143  13.629 -0.8212  0.7490  0.0633
16113TIP3   OH269829   3.547   4.683  15.778  0.9014  0.0533  0.9275
16113TIP3    H169830   3.553   4.620  15.706  0.4416  0.2884  0.6858
16113TIP3    H269831   3.490   4.641  15.842 -0.1444  0.6020  0.3718
16114TIP3   OH269832   6.374   2.267  12.011  0.6250 -0.0787  0.1907
16114TIP3    H169833   6.421   2.338  11.968 -0.1586 -0.9046 -2.1665
16114TIP3    H269834   6.438   2.195  12.015  0.0030 -0.8003 -1.9029
16115TIP3   OH269835   5.128   2.019  14.341 -0.3018 -0.0532  0.1442
16115TIP3    H169836   5.186   2.024  14.417  0.4892 -2.1501 -0.2419
16115TIP3    H269837   5.132   1.927  14.314 -4.1237 -0.4247  0.3029
16116TIP3   OH269838   5.467   4.023   6.018  0.0331  0.3930 -0.0038
16116TIP3    H169839   5.430   4.068   5.942  0.3989 -0.7779 -0.9110
16116TIP3    H269840   5.433   3.934   6.012  1.6517 -0.2694  0.0508
16117TIP3   OH269841   0.789   4.366   1.608 -0.1364 -0.9134 -0.5468
16117TIP3    H169842   0.816   4.346   1.698  0.4674  0.7713 -0.3169
16117TIP3    H269843   0.872   4.372   1.559 -0.2782  0.7094 -0.6346
16118TIP3   OH269844   6.697   0.158   2.701 -0.7733 -0.4262 -0.0897
16118TIP3    H169845   6.613   0.183   2.664 -0.1373 -2.8778 -3.6494
16118TIP3    H269846   6.725   0.235   2.750 -4.0262  1.2780 -0.6239
16119TIP3   OH269847   5.093   5.876  12.640  0.4557 -0.1313  0.3190
16119TIP3    H169848   5.088   5.782  12.621 -0.5851  0.0805 -0.5392
16119TIP3    H269849   5.006   5.909  12.620  0.6635  0.9400  1.1081
16120TIP3   OH269850   5.565   3.700   0.472  0.0338  0.0477  1.0565
16120TIP3    H169851   5.471   3.708   0.487  0.3178  0.9195  2.6886
16120TIP3    H269852   5.579   3.607   0.457 -1.1889  0.0281 -0.1494
16121TIP3   OH269853   0.994   5.454   4.904  0.5847 -0.1586  0.0352
16121TIP3    H169854   0.978   5.546   4.886 -0.5556 -0.3198  0.1516
16121TIP3    H269855   1.024   5.417   4.821 -1.1086 -0.1419 -0.6090
16122TIP3   OH269856   3.158   5.942   2.267 -0.1569  0.0458  0.2125
16122TIP3    H169857   3.144   5.862   2.318  1.5771 -0.0806  0.5532
16122TIP3    H269858   3.165   5.911   2.177  0.9078 -0.2504  0.3882
16123TIP3   OH269859   5.091   2.764  16.783  0.2528 -0.2913  0.0834
16123TIP3    H169860   5.029   2.804  16.844  1.5278  1.1940  0.4580
16123TIP3    H269861   5.144   2.706  16.838 -0.0152 -0.6573 -0.0354
16124TIP3   OH269862   0.162   5.231   5.895 -0.5824 -0.0228  0.2516
16124TIP3    H169863   0.206   5.304   5.940 -1.0964 -1.3136  3.0846
16124TIP3    H269864   0.090   5.272   5.848 -1.3194  1.3322  2.3804
16125TIP3   OH269865   1.912   2.398   4.786  0.3345  0.2033 -0.7297
16125TIP3    H169866   1.829   2.356   4.765  0.9281 -0.6121 -1.6071
16125TIP3    H269867   1.891   2.466   4.849 -1.0599  0.3450 -1.3277
16126TIP3   OH269868   2.728   3.790   6.233 -0.1651 -0.0376 -0.0415
16126TIP3    H169869   2.659   3.810   6.295 -0.5187 -0.2469 -0.3654
16126TIP3    H269870   2.714   3.698   6.209 -0.0215  0.0326 -0.4097
16127TIP3   OH269871   1.859   5.884  16.266  0.3380 -0.2690  0.1493
16127TIP3    H169872   1.848   5.939  16.189  3.0736  0.8225  0.4184
16127TIP3    H269873   1.866   5.795  16.231 -0.3449 -0.0106 -0.6594
16128TIP3   OH269874   1.420   5.577   0.086  0.2915  0.1592  0.4524
16128TIP3    H169875   1.367   5.609   0.013  0.0778 -1.2162 -0.0236
16128TIP3    H269876   1.360   5.576   0.160 -0.8425 -2.7115 -0.3851
16129TIP3   OH269877   3.043   2.309  15.681  0.4791 -0.0932 -0.2196
16129TIP3    H169878   3.033   2.327  15.774  1.1864 -0.3997 -0.0775
16129TIP3    H269879   2.954   2.300  15.648  0.2497 -1.0218  0.6280
16130TIP3   OH269880   3.399   1.505  15.031 -0.8382  0.0665 -0.4464
16130TIP3    H169881   3.456   1.582  15.034 -1.4570  0.6331  4.4075
16130TIP3    H269882   3.311   1.541  15.026 -1.0792 -0.3516  0.5854
16131TIP3   OH269883   0.130   4.777  15.628 -0.4192 -0.7190  0.6031
16131TIP3    H169884   0.194   4.773  15.699 -0.2586 -0.2747  0.4815
16131TIP3    H269885   0.047   4.752  15.669  0.0189 -2.4477  0.5212
16132TIP3   OH269886   1.345   0.958   4.615  0.3863 -0.5669 -0.7336
16132TIP3    H169887   1.360   1.047   4.647  0.4683  0.1289 -2.5968
16132TIP3    H269888   1.369   0.902   4.688  0.1650  0.9432  0.5448
16133TIP3   OH269889   5.189   5.837  16.878 -0.3668 -0.5758 -0.2449
16133TIP3    H169890   5.279   5.840  16.847  0.3237  0.4599  1.6907
16133TIP3    H269891   5.153   5.923  16.859 -1.1254 -1.1227 -1.4059
16134TIP3   OH269892   1.849   0.779  15.230  0.2489 -0.0561 -0.2992
16134TIP3    H169893   1.878   0.869  15.215 -0.6137  0.3252  0.2154
16134TIP3    H269894   1.776   0.767  15.170 -0.2396 -0.0823  0.2883
16135TIP3   OH269895   5.700   5.802  11.195 -0.8144 -0.1355  0.1597
16135TIP3    H169896   5.726   5.811  11.103  0.9533 -1.3537  0.4827
16135TIP3    H269897   5.710   5.708  11.213  0.9247  0.3529  2.1223
16136TIP3   OH269898   5.509   0.922   1.113  1.2004  0.2153 -0.0624
16136TIP3    H169899   5.452   0.845   1.119 -0.0995  1.1534 -0.1231
16136TIP3    H269900   5.456   0.994   1.146  1.9871  1.3149 -1.1311
16137TIP3   OH269901   0.181   6.571  17.208 -0.3360 -0.4881 -0.4224
16137TIP3    H169902   0.194   6.567  17.113 -0.3338 -1.3403 -0.3937
16137TIP3    H269903   0.269   6.571  17.244 -0.3433 -0.9217 -0.3991
16138TIP3   OH269904   1.300   3.419  15.674 -0.2474  0.3375  0.2023
16138TIP3    H169905   1.323   3.368  15.752  1.5396  1.3110  0.3612
16138TIP3    H269906   1.381   3.424  15.624 -0.7466  1.8104 -0.5152
16139TIP3   OH269907   3.201   5.572  16.537  0.2760  0.3839  0.1445
16139TIP3    H169908   3.270   5.608  16.592  0.6594 -0.1790  0.0368
16139TIP3    H269909   3.197   5.479  16.560  0.3494  0.1710 -0.6771
16140TIP3   OH269910   4.398   5.900   5.949  0.1378  0.4152  0.2997
16140TIP3    H169911   4.445   5.837   5.895 -0.6967 -0.8623  1.0214
16140TIP3    H269912   4.446   5.901   6.032 -0.5615 -0.2442  0.7314
16141TIP3   OH269913   0.239   0.811  10.672  0.2311  0.4981  0.3347
16141TIP3    H169914   0.167   0.764  10.716  0.0982  0.7060  0.3417
16141TIP3    H269915   0.275   0.747  10.610 -1.7315  1.2316 -1.6804
16142TIP3   OH269916   1.201   4.917  17.077 -0.7550 -0.1151  0.7924
16142TIP3    H169917   1.136   4.864  17.032 -0.7150 -1.2423  1.9971
16142TIP3    H269918   1.285   4.886  17.045 -0.7626  0.0740  0.5891
16143TIP3   OH269919   4.333   4.974   2.123 -0.3680 -0.1367 -0.1961
16143TIP3    H169920   4.279   5.028   2.066  0.7108 -0.3066 -1.4232
16143TIP3    H269921   4.420   4.975   2.082 -0.0378 -1.8678  0.3695
16144TIP3   OH269922   4.260   6.311   5.347 -0.4509 -0.4078  0.4308
16144TIP3    H169923   4.319   6.386   5.349  1.1021 -1.5354 -0.5177
16144TIP3    H269924   4.287   6.257   5.421  1.5273 -2.1672 -1.4552
16145TIP3   OH269925   6.172   3.329  15.816  0.6464  0.5513  0.2207
16145TIP3    H169926   6.250   3.285  15.851 -0.1978  0.0612  1.5609
16145TIP3    H269927   6.177   3.315  15.722  1.6059 -0.4414  0.4004
16146TIP3   OH269928   3.516   3.231  15.389  0.4709 -0.5188 -0.1098
16146TIP3    H169929   3.584   3.272  15.444  0.9156  0.3283 -1.2561
16146TIP3    H269930   3.497   3.296  15.322  0.2456 -1.7052 -1.2267
16147TIP3   OH269931   3.346   3.242  14.408 -0.2802  0.1647  0.5201
16147TIP3    H169932   3.288   3.240  14.332  0.5825  0.8149 -0.1867
16147TIP3    H269933   3.355   3.335  14.430 -0.6887 -0.0289  1.5643
16148TIP3   OH269934   5.025   0.592   2.914 -0.0354 -0.3723  0.4674
16148TIP3    H169935   5.076   0.511   2.919 -0.8573 -1.0128 -0.9323
16148TIP3    H269936   4.934   0.563   2.907 -0.2898  0.6491 -0.7078
16149TIP3   OH269937   1.308   4.145   0.912 -0.2907 -0.4722 -0.2664
16149TIP3    H169938   1.358   4.093   0.849  0.9008  0.3192 -0.0155
16149TIP3    H269939   1.333   4.110   0.997 -1.5504 -1.2404 -0.1988
16150TIP3   OH269940   5.282   3.929   1.022 -0.2639  0.0050 -0.0884
16150TIP3    H169941   5.232   3.849   1.003 -3.3640  1.3100  1.7085
16150TIP3    H269942   5.333   3.907   1.100 -1.4772 -0.1611  0.6947
16151TIP3   OH269943   2.032   2.398   4.416 -0.2847  0.0574  0.3114
16151TIP3    H169944   1.964   2.440   4.363  1.4295  2.8049  0.0977
16151TIP3    H269945   1.984   2.339   4.474 -2.9542  2.4063  0.7008
16152TIP3   OH269946   1.281   0.248  15.645  0.1462  0.3689  0.2927
16152TIP3    H169947   1.364   0.225  15.688  0.1713 -0.1434 -0.0198
16152TIP3    H269948   1.292   0.339  15.619  0.1155  0.7098  1.4022
16153TIP3   OH269949   1.022   3.937  11.633  0.4688 -0.3599  0.6287
16153TIP3    H169950   0.938   3.979  11.613  0.2947 -0.6351  0.7711
16153TIP3    H269951   1.076   3.954  11.556  1.0908  1.8278  1.4632
16154TIP3   OH269952   0.278   1.236   3.729  0.5960  0.1273  0.2179
16154TIP3    H169953   0.232   1.227   3.812 -0.9369  0.5009 -0.5444
16154TIP3    H269954   0.345   1.168   3.730  0.0940 -0.3697  1.4292
16155TIP3   OH269955   5.754   5.761  16.937  0.3141 -0.5559 -0.2963
16155TIP3    H169956   5.756   5.851  16.969  3.7533 -1.1412  1.6518
16155TIP3    H269957   5.770   5.768  16.843  0.1759  0.9020 -0.2276
16156TIP3   OH269958   0.607   0.527  12.309 -0.0291  0.0202  0.3496
16156TIP3    H169959   0.700   0.512  12.298  0.0826  0.1221  1.1279
16156TIP3    H269960   0.582   0.578  12.232  0.5533  0.0133  0.1500
16157TIP3   OH269961   6.278   2.318   1.741  0.8657 -0.2551  0.0397
16157TIP3    H169962   6.264   2.246   1.802  2.6767 -1.9774 -1.4093
16157TIP3    H269963   6.369   2.344   1.756  1.1491 -0.3053 -1.4713
16158TIP3   OH269964   2.579   5.228  12.605  0.6184  0.1730  0.3767
16158TIP3    H169965   2.494   5.188  12.623  0.1860 -0.0250 -1.8770
16158TIP3    H269966   2.609   5.187  12.524  0.9918  3.0571 -1.0645
16159TIP3   OH269967   5.549   6.349  10.805 -0.2922 -0.4204  0.0124
16159TIP3    H169968   5.495   6.354  10.884  0.7322  1.2593  0.6608
16159TIP3    H269969   5.597   6.267  10.814 -2.4788 -1.8243 -0.4568
16160TIP3   OH269970   4.544   0.938   5.044  0.3990 -0.2065  0.0574
16160TIP3    H169971   4.612   0.895   5.096  0.4694  0.0727  0.1959
16160TIP3    H269972   4.478   0.964   5.108  0.6785  0.5038  0.0568
16161TIP3   OH269973   4.432   5.991  11.419 -0.1913  0.0708  0.7602
16161TIP3    H169974   4.496   6.032  11.360  0.7597 -0.2409  1.5439
16161TIP3    H269975   4.481   5.919  11.461 -1.4548 -1.0600  0.3662
16162TIP3   OH269976   5.762   4.632  16.271  0.7547 -0.1746 -0.6076
16162TIP3    H169977   5.740   4.598  16.184 -0.9943 -0.6167 -0.0242
16162TIP3    H269978   5.755   4.727  16.262 -1.3305 -0.2836 -0.5045
16163TIP3   OH269979   1.193   4.441   2.793  0.1491  0.3789  0.5244
16163TIP3    H169980   1.212   4.444   2.699 -0.4967  1.2029  0.4065
16163TIP3    H269981   1.105   4.402   2.797  0.7335 -0.9564  0.8892
16164TIP3   OH269982   3.608   0.928  15.585  0.3425  1.2588 -0.1493
16164TIP3    H169983   3.524   0.899  15.621  0.4369  0.6463 -0.4038
16164TIP3    H269984   3.588   0.953  15.495  0.7366 -0.6643 -0.8298
16165TIP3   OH269985   3.887   3.880   4.867  0.4209 -0.3781 -0.6161
16165TIP3    H169986   3.903   3.974   4.862  0.4912 -0.1699  1.9890
16165TIP3    H269987   3.973   3.842   4.885  0.1015 -0.7065  0.2787
16166TIP3   OH269988   5.506   4.275   5.481  0.3282  0.4471 -0.4173
16166TIP3    H169989   5.570   4.204   5.490  2.2620  2.1801  0.4879
16166TIP3    H269990   5.553   4.343   5.433 -0.9322  1.6918  0.0568
16167TIP3   OH269991   0.948   4.907   0.011 -0.0955  0.2275  0.0850
16167TIP3    H169992   0.918   4.987  -0.031 -0.7035  0.6223  1.2559
16167TIP3    H269993   1.044   4.911   0.005 -0.1552 -0.0893 -1.8858
16168TIP3   OH269994   5.097   0.180  17.103  0.5803 -0.2271 -0.5318
16168TIP3    H169995   5.027   0.124  17.070 -0.0367  0.7117 -0.8542
16168TIP3    H269996   5.066   0.270  17.087 -0.3491  0.4170  3.5641
16169TIP3   OH269997   4.008   4.535   3.056  0.1497 -0.0949 -0.2953
16169TIP3    H169998   3.914   4.526   3.067  0.1420 -0.9713 -0.8837
16169TIP3    H269999   4.046   4.493   3.133  0.0559 -1.5226 -0.9872
16170TIP3   OH270000   2.309   5.118  12.532 -0.2866 -0.3349  0.4804
16170TIP3    H170001   2.315   5.024  12.549 -2.0503 -0.5229  0.2724
16170TIP3    H270002   2.240   5.148  12.591 -0.0809  0.7400  0.1851
16171TIP3   OH270003   5.240   3.371   3.596 -0.3929  0.1581  0.2727
16171TIP3    H170004   5.303   3.351   3.526  1.2136  0.6520  1.5164
16171TIP3    H270005   5.243   3.466   3.604  0.6276  0.0217  2.0147
16172TIP3   OH270006   3.924   0.289   2.798 -0.0525  0.0798  0.1856
16172TIP3    H170007   3.922   0.366   2.741 -1.0669 -0.0818 -0.0137
16172TIP3    H270008   3.846   0.297   2.852  0.9738  0.3276  1.7095
16173TIP3   OH270009   6.080   1.780   3.076  0.7720 -0.4004  0.3525
16173TIP3    H170010   5.993   1.819   3.091  0.4890 -0.9870  0.2691
16173TIP3    H270011   6.140   1.837   3.124  0.1143 -1.1147  2.0835
16174TIP3   OH270012   1.195   6.194  12.303 -0.2141  0.2312 -0.3233
16174TIP3    H170013   1.207   6.100  12.310 -0.3787  0.2281 -0.0889
16174TIP3    H270014   1.212   6.213  12.210  2.0337  0.2864  0.0350
16175TIP3   OH270015   1.095   5.721   0.520  1.1284  0.3029  0.7216
16175TIP3    H170016   1.069   5.810   0.546  0.7252  0.2175  0.6255
16175TIP3    H270017   1.124   5.680   0.601 -2.4295 -0.7738  1.6561
16176TIP3   OH270018   5.023   3.589   2.636 -0.0369 -0.8191 -0.0086
16176TIP3    H170019   4.987   3.640   2.564 -1.5985 -2.3622 -0.3847
16176TIP3    H270020   5.093   3.537   2.597  0.8534  0.2240  0.1600
16177TIP3   OH270021   5.542   1.943  12.412  0.5209  0.3442  0.0204
16177TIP3    H170022   5.481   1.920  12.342 -0.7513  2.9211  0.1525
16177TIP3    H270023   5.610   1.996  12.368  0.1043  1.3621  0.5605
16178TIP3   OH270024   4.117   0.244  15.171  0.1329 -0.4733  0.0006
16178TIP3    H170025   4.112   0.272  15.262 -2.8249 -3.4888  0.9251
16178TIP3    H270026   4.108   0.325  15.121  1.1471  1.1774  2.3087
16179TIP3   OH270027   6.217   2.522  11.887  0.0732 -0.0344  0.1003
16179TIP3    H170028   6.200   2.462  11.960  1.2426 -1.8092 -1.0256
16179TIP3    H270029   6.306   2.554  11.903  0.6134 -0.9873 -0.8801
16180TIP3   OH270030   1.377   2.810   0.394  0.7007 -0.1909  0.4742
16180TIP3    H170031   1.441   2.813   0.323 -0.5878  0.4935 -0.7072
16180TIP3    H270032   1.325   2.731   0.377  1.3223 -0.8487  1.5343
16181TIP3   OH270033   5.050   3.232  14.625 -0.1827 -0.3132 -0.8709
16181TIP3    H170034   5.009   3.318  14.638 -1.6830 -1.2408  1.1229
16181TIP3    H270035   5.042   3.216  14.531 -0.9720  1.1935 -1.1025
16182TIP3   OH270036   3.525   6.145   6.218 -0.0874  0.0715  0.0572
16182TIP3    H170037   3.501   6.099   6.298 -1.6978  0.7465  0.0075
16182TIP3    H270038   3.603   6.196   6.242 -0.3883  0.0553  1.1126
16183TIP3   OH270039   5.388   6.666  12.492  0.1110  0.0075  0.9791
16183TIP3    H170040   5.350   6.649  12.577  1.2598  0.2932  1.5748
16183TIP3    H270041   5.390   6.762  12.484 -0.5913 -0.0213  0.3439
16184TIP3   OH270042   4.419   5.884  16.529  0.8125  0.3550 -0.2482
16184TIP3    H170043   4.500   5.893  16.579  0.6031  1.4808 -0.0741
16184TIP3    H270044   4.448   5.880  16.437  1.1390 -0.7841 -0.1141
16185TIP3   OH270045   3.020   5.509   5.684  0.5632  0.0789 -0.0114
16185TIP3    H170046   2.941   5.455   5.689  0.5441 -0.2156 -2.1799
16185TIP3    H270047   2.989   5.599   5.691  0.3203 -0.0940  1.3361
16186TIP3   OH270048   6.056   2.344   2.124  0.5258 -0.3048 -0.0789
16186TIP3    H170049   5.961   2.349   2.135  0.5549 -0.0436  0.0566
16186TIP3    H270050   6.079   2.423   2.077  0.6480 -0.4845 -0.3235
16187TIP3   OH270051   5.517   3.509   3.315 -0.1594  0.0026 -0.2365
16187TIP3    H170052   5.446   3.561   3.354 -1.0893 -2.5918  1.8050
16187TIP3    H270053   5.516   3.427   3.363  2.6564 -1.1214 -1.8548
16188TIP3   OH270054   3.961   2.059  11.553  0.1958  0.0904 -0.3112
16188TIP3    H170055   4.042   2.107  11.538 -0.4484  1.4907  0.5194
16188TIP3    H270056   3.954   2.000  11.478  0.9010  1.4364 -1.4827
16189TIP3   OH270057   5.602   2.876  11.534  0.6083  0.0873 -0.0579
16189TIP3    H170058   5.548   2.873  11.613  1.2969 -0.0686  0.4208
16189TIP3    H270059   5.543   2.907  11.465 -0.2247 -0.6185  0.3272
16190TIP3   OH270060   3.555   6.129   6.731  0.0025  0.6720 -0.4410
16190TIP3    H170061   3.553   6.038   6.702 -0.4636  0.4855  0.1590
16190TIP3    H270062   3.527   6.127   6.822  1.7642  1.2175  0.1580
16191TIP3   OH270063   6.324   3.055  17.050  0.8487 -0.1555 -0.1828
16191TIP3    H170064   6.349   3.080  17.139 -1.5687 -1.9164  1.1173
16191TIP3    H270065   6.231   3.077  17.044  0.0686 -3.2092 -0.9638
16192TIP3   OH270066   4.062   3.413   3.673  0.6777 -0.1584  0.0298
16192TIP3    H170067   4.056   3.338   3.614 -0.2343  0.9275 -1.3424
16192TIP3    H270068   3.994   3.397   3.739 -0.5582  0.1133 -1.1125
16193TIP3   OH270069   6.388   0.933   1.691 -0.1260 -0.2148 -0.0691
16193TIP3    H170070   6.441   0.922   1.771 -0.4684 -0.5255  0.1194
16193TIP3    H270071   6.298   0.932   1.723 -0.2299  1.2956 -0.2715
16194TIP3   OH270072   3.385   5.817   4.215 -0.6804  0.5062 -0.4172
16194TIP3    H170073   3.319   5.852   4.155 -1.8323  0.5828  0.8642
16194TIP3    H270074   3.392   5.725   4.192 -0.5380  0.6962 -1.1675
16195TIP3   OH270075   2.645   3.770   5.415  0.3865 -0.2919 -0.7738
16195TIP3    H170076   2.641   3.677   5.394 -0.5091  0.1625 -2.8375
16195TIP3    H270077   2.567   3.808   5.373  1.2336  1.5280 -0.8065
16196TIP3   OH270078   2.071   0.860  11.142  0.9231 -0.0346  0.2008
16196TIP3    H170079   2.103   0.920  11.074 -0.6459  0.4662 -0.1504
16196TIP3    H270080   2.045   0.781  11.094  0.0814  0.2087  0.2468
16197TIP3   OH270081   3.006   2.420   5.568  0.3700 -0.9755 -0.6745
16197TIP3    H170082   2.938   2.368   5.525  0.2340 -1.0359 -0.3855
16197TIP3    H270083   2.958   2.488   5.616  0.5049 -1.1015 -0.3583
16198TIP3   OH270084   2.072   4.391  15.235 -0.3072  0.0152 -0.1043
16198TIP3    H170085   1.978   4.388  15.256 -0.1397 -1.1746  0.5211
16198TIP3    H270086   2.106   4.461  15.290 -0.6211 -0.3232  0.5268
16199TIP3   OH270087   6.782   1.469   1.861  0.6782  0.2170 -0.2917
16199TIP3    H170088   6.769   1.553   1.906 -2.4259 -0.1841 -0.2656
16199TIP3    H270089   6.804   1.494   1.771  0.6676  1.0472 -0.0766
16200TIP3   OH270090   1.634   6.715   6.484  0.3593  0.0155  0.4354
16200TIP3    H170091   1.589   6.791   6.523  1.2207  0.6816  0.1474
16200TIP3    H270092   1.705   6.696   6.545  1.2874  0.6206 -0.4465
16201TIP3   OH270093   2.616   2.253  12.884 -0.3539 -0.1255  0.6366
16201TIP3    H170094   2.521   2.260  12.877 -0.2295  0.5474 -0.8532
16201TIP3    H270095   2.643   2.208  12.804  0.5925 -0.2366  0.9975
16202TIP3   OH270096   0.226   4.810  11.656  0.3404 -0.0437  0.0506
16202TIP3    H170097   0.241   4.855  11.573 -2.9124  1.1985  0.0063
16202TIP3    H270098   0.282   4.856  11.719  1.2998  0.3281 -1.0375
16203TIP3   OH270099   4.264   2.649  16.488  0.0920 -0.0208 -0.2018
16203TIP3    H170100   4.357   2.636  16.468 -0.2883 -0.5139 -1.7618
16203TIP3    H270101   4.246   2.739  16.462 -0.1897 -0.3745 -1.2589
16204TIP3   OH270102   0.664   3.865   2.108  0.2333 -0.2621 -0.0640
16204TIP3    H170103   0.619   3.814   2.176 -1.1813 -0.4379 -1.0885
16204TIP3    H270104   0.753   3.831   2.109 -0.4224 -2.1415 -0.0740
16205TIP3   OH270105   0.280   0.511  12.235  0.2731  0.2052  0.8451
16205TIP3    H170106   0.192   0.543  12.255 -1.0308 -1.8253 -1.2339
16205TIP3    H270107   0.289   0.432  12.288 -0.7087 -1.6419 -1.5514
16206TIP3   OH270108   6.328   1.450  14.851  0.5491  0.3326  0.4918
16206TIP3    H170109   6.233   1.435  14.857  0.2500  2.2930  1.3596
16206TIP3    H270110   6.341   1.481  14.762 -0.0851  2.5960  1.1263
16207TIP3   OH270111   4.720   2.283  16.625 -0.3321 -0.0262  0.6158
16207TIP3    H170112   4.732   2.376  16.642  0.2919  0.1530 -0.7484
16207TIP3    H270113   4.677   2.250  16.705  1.3067  1.0044  1.9833
16208TIP3   OH270114   3.713   4.070  12.230 -0.3291  0.3435  0.0907
16208TIP3    H170115   3.680   4.146  12.182  0.7633  0.8377  0.0915
16208TIP3    H270116   3.769   4.024  12.168  0.2599  0.4099  0.5585
16209TIP3   OH270117   0.755   2.827  14.480 -0.1108  0.1903  0.3957
16209TIP3    H170118   0.695   2.898  14.501  0.0378  0.6475 -0.6832
16209TIP3    H270119   0.824   2.868  14.427 -1.1452 -1.1172 -2.1346
16210TIP3   OH270120   6.583   4.484  16.864  0.0540  1.0306  0.2014
16210TIP3    H170121   6.637   4.407  16.847  1.0278  1.7524 -0.0413
16210TIP3    H270122   6.519   4.484  16.793 -0.2141  0.2237  0.4343
16211TIP3   OH270123   6.307   1.744   5.763 -0.0561  0.2068 -0.2800
16211TIP3    H170124   6.266   1.824   5.796 -1.1363  0.0286 -1.1531
16211TIP3    H270125   6.400   1.767   5.756  0.1658  0.4175  2.3375
16212TIP3   OH270126   4.998   4.074  12.633  0.5262 -0.2702 -0.5384
16212TIP3    H170127   4.942   4.140  12.592  0.5295  1.5737  2.1853
16212TIP3    H270128   5.070   4.123  12.672  1.1023 -1.9866  0.6937
16213TIP3   OH270129   2.633   4.346   0.043 -0.7913 -0.9323 -0.2950
16213TIP3    H170130   2.675   4.351   0.129 -0.6096  0.7138 -0.4447
16213TIP3    H270131   2.593   4.432   0.032 -2.5190 -1.7867 -1.0223
16214TIP3   OH270132   2.490   4.076   1.512 -0.1894  0.3962  0.3701
16214TIP3    H170133   2.565   4.130   1.535  0.6199  0.1062 -1.4401
16214TIP3    H270134   2.519   3.986   1.530  0.0392  0.2605 -0.6027
16215TIP3   OH270135   1.575   2.542   0.725 -0.3280 -0.1802  0.3088
16215TIP3    H170136   1.642   2.584   0.671 -0.6079 -1.7973 -1.3867
16215TIP3    H270137   1.624   2.489   0.788  0.0786 -2.1548 -1.5657
16216TIP3   OH270138   0.312   0.702  13.691  0.6173 -0.4168  0.0252
16216TIP3    H170139   0.268   0.617  13.679  1.2732 -0.6917 -0.4999
16216TIP3    H270140   0.404   0.680  13.702  0.6011  0.1389  1.4285
16217TIP3   OH270141   4.106   4.879  12.924 -0.0433 -0.0242 -0.2100
16217TIP3    H170142   4.116   4.833  13.008 -2.2268  0.7699  0.5529
16217TIP3    H270143   4.046   4.824  12.874 -0.4555  0.5836 -0.3906
16218TIP3   OH270144   4.489   5.116  16.553  0.3976 -0.1494  0.9871
16218TIP3    H170145   4.548   5.187  16.579  0.6323  0.4480 -0.9675
16218TIP3    H270146   4.419   5.118  16.618  0.7915  1.3801  1.4149
16219TIP3   OH270147   3.973   5.690  11.709 -0.0967  0.1007  0.1572
16219TIP3    H170148   4.017   5.774  11.724  0.3075 -0.2175  0.7968
16219TIP3    H270149   3.952   5.691  11.615  2.3476 -0.2269 -0.4675
16220TIP3   OH270150   0.665   3.936   0.275 -0.2756 -0.0554 -0.1568
16220TIP3    H170151   0.632   3.900   0.193  0.2894  0.5604 -0.6650
16220TIP3    H270152   0.714   4.013   0.249 -0.1914  0.2151  0.7781
16221TIP3   OH270153   3.034   6.752  15.475 -0.3334 -0.2324  0.0910
16221TIP3    H170154   3.088   6.733  15.399 -0.0340 -1.3551  0.5529
16221TIP3    H270155   2.946   6.726  15.449 -0.2579 -0.4678  0.0648
16222TIP3   OH270156   3.785   2.725   3.617 -0.4607  0.2981 -0.6121
16222TIP3    H170157   3.693   2.746   3.633 -0.2550  0.3315  0.6267
16222TIP3    H270158   3.790   2.630   3.621 -0.0968  0.3451  1.6443
16223TIP3   OH270159   0.187   4.140   6.491  0.3394 -0.5375  0.0998
16223TIP3    H170160   0.118   4.133   6.557  1.3047  0.5644  1.3014
16223TIP3    H270161   0.178   4.229   6.456  1.4896 -0.1379  0.7366
16224TIP3   OH270162   4.372   1.788  14.841 -0.0216 -0.3528  0.2914
16224TIP3    H170163   4.360   1.811  14.933 -0.4726  0.1068  0.1252
16224TIP3    H270164   4.315   1.849  14.794  2.0996  1.1277 -0.4712
16225TIP3   OH270165   1.379   4.440   4.245 -0.2945 -0.1551  0.1609
16225TIP3    H170166   1.422   4.525   4.236  0.0445 -0.3670 -0.2279
16225TIP3    H270167   1.289   4.456   4.218 -0.1729  0.0302 -0.1382
16226TIP3   OH270168   5.334   5.411  12.567  0.0508 -0.4621 -0.0154
16226TIP3    H170169   5.397   5.361  12.619  0.6633 -1.1414 -1.3782
16226TIP3    H270170   5.249   5.373  12.589  0.2403 -0.4113  0.8378
16227TIP3   OH270171   4.153   0.109   3.233 -0.3632 -0.0402  0.1339
16227TIP3    H170172   4.174   0.017   3.249  1.4071  0.1226 -1.0317
16227TIP3    H270173   4.074   0.106   3.178 -0.7392 -0.8192  0.6904
16228TIP3   OH270174   1.572   3.397   4.084  0.2092  0.0952 -0.3835
16228TIP3    H170175   1.610   3.479   4.053  2.0062  0.1225  1.6511
16228TIP3    H270176   1.643   3.354   4.132 -1.8544 -0.5731  2.3728
16229TIP3   OH270177   5.826   0.128   4.379  0.3687  0.2484  0.0142
16229TIP3    H170178   5.895   0.184   4.342  0.8285 -1.1928 -1.4177
16229TIP3    H270179   5.817   0.057   4.316 -1.0146 -0.6764  1.2092
16230TIP3   OH270180   3.798   1.304  12.314 -0.4558  0.1072  0.2379
16230TIP3    H170181   3.773   1.397  12.309 -1.7815 -0.0548  2.3367
16230TIP3    H270182   3.729   1.258  12.267  0.7562  0.1977 -1.7223
16231TIP3   OH270183   0.035   1.085  13.573  0.4913  0.1672  0.5561
16231TIP3    H170184  -0.005   1.012  13.621 -1.8609  0.6673 -0.4811
16231TIP3    H270185   0.019   1.161  13.628  0.2723  0.3199  0.2855
16232TIP3   OH270186   0.641   5.523   2.161 -0.3404 -0.0926  0.4594
16232TIP3    H170187   0.550   5.493   2.157 -0.7077  0.5164  2.7617
16232TIP3    H270188   0.635   5.619   2.156 -0.3209  0.2973  4.4204
16233TIP3   OH270189   3.277   1.621  12.835  0.4451 -0.3899 -0.3287
16233TIP3    H170190   3.285   1.665  12.750  0.1975  0.7171  0.1961
16233TIP3    H270191   3.257   1.530  12.814  1.1266 -0.2917 -1.4618
16234TIP3   OH270192   5.415   2.882  14.491 -0.1566 -0.7714 -0.2798
16234TIP3    H170193   5.441   2.952  14.550  0.1262  0.0180 -1.3160
16234TIP3    H270194   5.322   2.897  14.475  0.2989  0.5250 -1.9708
16235TIP3   OH270195   4.612   1.568   2.116 -0.6538 -0.8068 -0.0657
16235TIP3    H170196   4.620   1.659   2.143 -1.7242 -0.8426  0.4256
16235TIP3    H270197   4.682   1.523   2.163 -0.7897 -0.4164  0.5231
16236TIP3   OH270198   0.251   4.814   6.251  0.1537 -0.3089  0.3861
16236TIP3    H170199   0.346   4.827   6.247  0.2772 -0.2607  2.6246
16236TIP3    H270200   0.240   4.719   6.256  0.1587 -0.2754  1.1611
16237TIP3   OH270201   0.185   4.009  11.949 -0.0943 -0.9326 -0.3807
16237TIP3    H170202   0.232   3.981  11.870  0.6232 -1.7395  0.3191
16237TIP3    H270203   0.220   3.954  12.019  1.2756  1.5706  1.0635
16238TIP3   OH270204   3.681   0.182   6.061  0.0684 -0.1178  0.2154
16238TIP3    H170205   3.714   0.229   6.138  1.0744 -1.5609  0.7269
16238TIP3    H270206   3.605   0.133   6.094 -0.9905  1.1113 -0.3198
16239TIP3   OH270207   1.414   0.960  11.138  0.3583 -0.3428 -0.2846
16239TIP3    H170208   1.367   0.914  11.068  1.6998 -0.8276 -0.8943
16239TIP3    H270209   1.436   0.892  11.202  1.1344 -0.3143 -0.5128
16240TIP3   OH270210   5.302   3.941   5.548 -0.0356 -0.4087  0.2150
16240TIP3    H170211   5.329   3.889   5.473 -1.4609 -1.3005  0.2772
16240TIP3    H270212   5.381   3.948   5.602  1.4746  1.5664 -2.0120
16241TIP3   OH270213   4.579   6.333  11.567 -0.0966  0.1568 -0.1723
16241TIP3    H170214   4.609   6.349  11.656 -3.1006  2.7584  0.5395
16241TIP3    H270215   4.659   6.315  11.517  1.6026 -3.0988  3.2110
16242TIP3   OH270216   4.615   0.666   2.277 -0.0562  0.1664  0.7580
16242TIP3    H170217   4.534   0.715   2.261  1.2118  1.1096 -5.0595
16242TIP3    H270218   4.588   0.574   2.271 -1.0262  0.3096  2.1843
16243TIP3   OH270219   4.987   4.087   1.480  0.1191  0.3353  0.5363
16243TIP3    H170220   5.040   4.167   1.484  0.9935  0.0555 -2.6993
16243TIP3    H270221   5.049   4.019   1.453 -1.0571 -0.9666  1.0025
16244TIP3   OH270222   3.438   6.185   1.636 -0.5504  0.3186  0.9320
16244TIP3    H170223   3.412   6.100   1.673  1.3776  0.4264  2.6902
16244TIP3    H270224   3.436   6.171   1.542 -1.4066 -1.3257  1.1485
16245TIP3   OH270225   4.255   5.558   0.111  0.0291 -0.0559  0.0028
16245TIP3    H170226   4.210   5.628   0.159 -0.7425 -0.9617  0.6422
16245TIP3    H270227   4.231   5.478   0.157  0.6399 -0.7839 -0.9031
16246TIP3   OH270228   0.950   2.014   3.376  0.0410 -0.3101 -0.1420
16246TIP3    H170229   0.951   2.072   3.300  0.9412  1.5193  1.1812
16246TIP3    H270230   0.861   2.022   3.411  0.2883  0.7425  0.3121
16247TIP3   OH270231   1.987   2.652   5.546  0.0260  0.1744  0.0703
16247TIP3    H170232   1.950   2.614   5.467 -0.2809  3.0330 -1.3004
16247TIP3    H270233   2.081   2.635   5.540 -0.0050  0.2793 -0.8769
16248TIP3   OH270234   6.292   5.664  13.336  0.2648 -0.2053  0.4169
16248TIP3    H170235   6.283   5.738  13.277  0.6003  0.2724  0.9624
16248TIP3    H270236   6.387   5.650  13.342  0.1880 -1.1184 -0.2193
16249TIP3   OH270237   0.358   1.973  13.265  0.2170  0.5222  0.3785
16249TIP3    H170238   0.324   2.031  13.197 -0.5759  0.2407  0.5324
16249TIP3    H270239   0.438   1.936  13.226 -0.1420  0.4833 -0.3408
16250TIP3   OH270240   1.237   3.247   2.420 -0.0411  0.1963 -0.2036
16250TIP3    H170241   1.206   3.291   2.341  1.2608  0.2309 -0.7223
16250TIP3    H270242   1.209   3.304   2.491  0.9022  1.4797 -0.8168
16251TIP3   OH270243   0.038   5.300   6.159 -0.4717 -0.2523 -0.2047
16251TIP3    H170244   0.036   5.205   6.169  0.7897 -0.1162  1.6924
16251TIP3    H270245  -0.019   5.332   6.229 -0.3945  0.4207 -0.4496
16252TIP3   OH270246   5.678   3.942  11.939  0.1368 -0.0812  0.1047
16252TIP3    H170247   5.629   3.994  11.875  2.0511  0.2646 -1.1941
16252TIP3    H270248   5.712   4.007  12.001  0.4410 -0.0844 -0.0562
16253TIP3   OH270249   2.617   6.766  14.925 -0.0005 -0.3004 -0.0012
16253TIP3    H170250   2.637   6.809  15.008 -0.1898 -1.8494  0.8931
16253TIP3    H270251   2.525   6.785  14.910  0.4140  1.2822 -0.6834
16254TIP3   OH270252   4.654   6.642   0.801 -0.3921 -0.0162 -0.3126
16254TIP3    H170253   4.632   6.596   0.720 -1.1507  0.5966 -0.4716
16254TIP3    H270254   4.729   6.595   0.836 -0.9688 -1.2035 -0.6088
16255TIP3   OH270255   0.099   4.968  17.221 -0.3488 -0.0651  0.4114
16255TIP3    H170256   0.108   5.042  17.282 -0.6550  0.1918  0.1480
16255TIP3    H270257   0.010   4.976  17.186  0.1450  0.3906 -0.8168
16256TIP3   OH270258   5.968   3.164   4.733  1.1763  0.5438  0.2571
16256TIP3    H170259   6.028   3.221   4.781  1.1119  0.1875  0.7694
16256TIP3    H270260   6.002   3.076   4.747  1.6118  0.4877 -1.0119
16257TIP3   OH270261   0.109   5.826   3.291 -0.5724 -0.0201 -0.3183
16257TIP3    H170262   0.016   5.814   3.308 -0.6453 -0.0434 -0.7141
16257TIP3    H270263   0.153   5.770   3.354 -0.8381 -0.3175 -0.3952
16258TIP3   OH270264   0.499   6.234  13.896 -0.2378 -0.3591 -0.9023
16258TIP3    H170265   0.519   6.295  13.825 -1.7828  1.3755  0.0702
16258TIP3    H270266   0.405   6.245  13.911 -0.2879 -1.9893  0.2497
16259TIP3   OH270267   2.055   3.319  12.594  0.6455 -0.1134  0.0095
16259TIP3    H170268   2.142   3.321  12.553 -0.0648  0.6906 -1.5248
16259TIP3    H270269   2.000   3.272  12.531  0.1530 -1.5095  1.4178
16260TIP3   OH270270   0.485   6.188  14.385 -0.5176  0.2392  0.3616
16260TIP3    H170271   0.418   6.132  14.425  1.3915 -0.3452  3.0498
16260TIP3    H270272   0.457   6.277  14.407 -1.0192  0.0770  0.3986
16261TIP3   OH270273   4.987   1.116   5.754  0.2321  0.2707  0.6114
16261TIP3    H170274   5.022   1.169   5.826 -0.2410  0.9414  0.3565
16261TIP3    H270275   5.045   1.040   5.749  0.9274  0.7740  0.9798
16262TIP3   OH270276   5.835   3.249  16.400 -0.4776  0.2978 -0.3745
16262TIP3    H170277   5.776   3.197  16.347 -0.5699  0.1935 -0.1695
16262TIP3    H270278   5.922   3.214  16.381 -0.5558 -0.0484 -0.1041
16263TIP3   OH270279   1.997   1.103  12.607 -0.4497 -0.0679 -0.4511
16263TIP3    H170280   1.925   1.121  12.668 -1.5070 -0.4305 -1.5458
16263TIP3    H270281   2.046   1.185  12.603 -1.1496  0.3834 -0.1337
16264TIP3   OH270282   6.298   4.662  14.319  0.0829  0.3347  0.2779
16264TIP3    H170283   6.287   4.615  14.237  0.1502  0.9812 -0.1110
16264TIP3    H270284   6.391   4.686  14.320  0.1443  0.0954  0.6769
16265TIP3   OH270285   4.534   1.778  14.015 -0.2776 -0.0808 -0.4238
16265TIP3    H170286   4.567   1.688  14.010  0.4852  0.2181 -0.9140
16265TIP3    H270287   4.608   1.833  13.987  0.0045  0.8844  2.0166
16266TIP3   OH270288   6.784   5.457  13.274 -0.3191 -0.2905  0.4952
16266TIP3    H170289   6.795   5.507  13.355 -0.6473 -0.0441  0.3903
16266TIP3    H270290   6.861   5.479  13.222 -0.3888 -0.0154  0.5103
16267TIP3   OH270291   5.636   1.141  15.350  0.4343 -0.6356  0.4978
16267TIP3    H170292   5.658   1.182  15.266  0.0325  1.2623  1.2728
16267TIP3    H270293   5.611   1.214  15.407  0.4581 -1.9002  2.2111
16268TIP3   OH270294   5.394   6.773  11.922  0.0118  0.9425  0.0754
16268TIP3    H170295   5.299   6.769  11.921 -0.0010 -2.0824  1.0129
16268TIP3    H270296   5.417   6.789  12.014  0.3122 -0.9990  0.3989
16269TIP3   OH270297   2.785   0.292  12.864 -0.5584  0.4720 -0.3870
16269TIP3    H170298   2.862   0.275  12.809 -0.7209  2.3312 -1.2565
16269TIP3    H270299   2.718   0.322  12.803 -1.6258 -0.0145  0.5095
16270TIP3   OH270300   1.184   0.196  14.454  0.2289  0.0718  0.3056
16270TIP3    H170301   1.091   0.174  14.455  0.1902  0.2277  0.0875
16270TIP3    H270302   1.224   0.132  14.513  0.4484 -2.1134 -2.0346
16271TIP3   OH270303   1.846   3.348   5.461 -0.4048 -0.3755 -0.0183
16271TIP3    H170304   1.783   3.386   5.522  1.1660  0.8229  0.9562
16271TIP3    H270305   1.924   3.404   5.470  1.4936 -2.9087  0.3131
16272TIP3   OH270306   3.001   0.973  16.432  0.1507 -0.0622  0.1880
16272TIP3    H170307   2.966   1.061  16.440 -0.7144 -0.3971  0.2511
16272TIP3    H270308   3.001   0.938  16.521 -0.0372 -0.3125  0.0927
16273TIP3   OH270309   0.882   2.180   4.510  0.3226  0.4772 -0.0430
16273TIP3    H170310   0.786   2.183   4.508  0.3169  0.1455 -0.9329
16273TIP3    H270311   0.903   2.087   4.520  0.5591  0.5658  0.3302
16274TIP3   OH270312   2.668   3.363   3.026 -0.0602  0.4365 -0.7701
16274TIP3    H170313   2.708   3.301   2.965 -0.7181  0.5086 -1.2813
16274TIP3    H270314   2.695   3.449   2.993 -0.5454  0.4819 -1.0644
16275TIP3   OH270315   5.511   5.125   0.268  0.3660 -0.1472 -0.2910
16275TIP3    H170316   5.597   5.092   0.294  1.2418 -0.0612 -2.7905
16275TIP3    H270317   5.523   5.154   0.178 -2.2264  0.1741 -0.6090
16276TIP3   OH270318   6.579   6.578   2.943  0.0552 -0.5599 -0.2640
16276TIP3    H170319   6.500   6.577   2.888 -0.3202 -0.7224  0.2730
16276TIP3    H270320   6.632   6.649   2.907 -0.6472  0.0103 -0.1936
16277TIP3   OH270321   3.404   2.992  17.027  0.2626 -0.0698  0.0894
16277TIP3    H170322   3.471   2.925  17.045  0.2246 -0.3323 -0.7379
16277TIP3    H270323   3.449   3.075  17.045  0.3986 -0.2888  0.8311
16278TIP3   OH270324   2.588   6.004  14.664  0.3968 -0.0284 -0.4903
16278TIP3    H170325   2.665   5.947  14.671 -0.6566 -1.5116 -0.3168
16278TIP3    H270326   2.529   5.955  14.607 -0.7965  0.6213  0.1645
16279TIP3   OH270327   1.224   1.714   1.709 -0.1369 -0.3776 -0.1949
16279TIP3    H170328   1.152   1.759   1.754  0.0521 -0.8106  0.5668
16279TIP3    H270329   1.260   1.655   1.776  0.7427 -0.3688 -0.6533
16280TIP3   OH270330   4.921   1.336   1.952 -0.0846  0.4430  0.2907
16280TIP3    H170331   4.866   1.364   2.025 -2.2483 -0.0440 -1.0839
16280TIP3    H270332   4.968   1.415   1.925 -1.5783  1.3510  0.2769
16281TIP3   OH270333   4.284   5.190   0.962 -0.1185  0.3219  0.1611
16281TIP3    H170334   4.201   5.153   0.991  0.0667 -0.7069 -0.5710
16281TIP3    H270335   4.351   5.133   1.001  0.3073  1.6845  1.5183
16282TIP3   OH270336   5.252   6.159   5.247 -0.3777  0.3600  0.6552
16282TIP3    H170337   5.317   6.224   5.273 -1.5715  1.3246  1.3033
16282TIP3    H270338   5.278   6.134   5.158 -0.6909  2.7757 -0.1802
16283TIP3   OH270339   5.470   2.931   1.235  0.4906 -0.6807  0.3585
16283TIP3    H170340   5.458   3.002   1.172  0.2041 -1.3390 -0.3465
16283TIP3    H270341   5.383   2.892   1.244  1.2545 -3.4787 -2.3557
16284TIP3   OH270342   4.812   1.820   4.149  0.3198 -0.2423  0.0513
16284TIP3    H170343   4.754   1.872   4.205 -0.4035 -1.1352  0.1613
16284TIP3    H270344   4.753   1.756   4.107  1.1049 -0.6312 -0.4748
16285TIP3   OH270345   0.431   1.373  14.295  0.8118  0.2088 -0.2701
16285TIP3    H170346   0.391   1.436  14.235 -1.2721  0.1418  0.9666
16285TIP3    H270347   0.463   1.427  14.368  0.5641  0.0014 -0.0084
16286TIP3   OH270348   2.693   1.666   5.391 -0.0206 -0.3320  0.3629
16286TIP3    H170349   2.704   1.754   5.355 -0.2539 -0.4858 -0.0946
16286TIP3    H270350   2.782   1.630   5.396 -0.0479 -0.6187 -0.8668
16287TIP3   OH270351   1.090   3.576  15.575  0.4828  0.0482 -0.2182
16287TIP3    H170352   1.167   3.543  15.621  1.2987 -1.0813 -2.2554
16287TIP3    H270353   1.036   3.498  15.561  0.7572  0.1195 -1.9939
16288TIP3   OH270354   2.808   3.416  15.800  0.3587 -0.1732 -0.0959
16288TIP3    H170355   2.750   3.447  15.730 -1.1063 -0.2117  1.0590
16288TIP3    H270356   2.750   3.374  15.862  1.6452 -0.2285  1.1051
16289TIP3   OH270357   0.157   0.495  12.926  0.1320 -0.0708  0.1331
16289TIP3    H170358   0.091   0.563  12.913  1.4716  1.4602  1.0661
16289TIP3    H270359   0.183   0.504  13.017  2.7500  0.4314 -0.5933
16290TIP3   OH270360   2.111   0.566  15.337  0.1223 -0.1983  0.1060
16290TIP3    H170361   2.037   0.541  15.282 -1.1338  3.0764  0.0989
16290TIP3    H270362   2.084   0.540  15.425 -0.2995 -0.5188 -0.1101
16291TIP3   OH270363   2.121   3.848  16.760 -0.2992 -0.0011 -0.3406
16291TIP3    H170364   2.161   3.769  16.797  1.2245 -0.2159 -2.3060
16291TIP3    H270365   2.142   3.917  16.823 -0.1047 -0.8146  0.5107
16292TIP3   OH270366   0.857   2.028   5.778 -0.8531  0.0303  0.7573
16292TIP3    H170367   0.795   2.101   5.776  0.0252  0.7694 -0.6843
16292TIP3    H270368   0.940   2.067   5.805 -0.1539 -0.2211 -0.8966
16293TIP3   OH270369   2.261   4.291  14.004 -0.2145  0.7306  0.1119
16293TIP3    H170370   2.231   4.266  13.916 -0.6098 -0.4321  0.5628
16293TIP3    H270371   2.341   4.341  13.988  0.0890 -0.0416 -0.8923
16294TIP3   OH270372   5.064   2.890   4.318 -0.1422  0.1230 -0.2579
16294TIP3    H170373   5.000   2.823   4.341 -0.1845 -0.4133 -1.8646
16294TIP3    H270374   5.109   2.856   4.241  0.0559  1.7940 -0.9262
16295TIP3   OH270375   5.699   4.181   5.871 -0.3789 -0.2262 -0.2844
16295TIP3    H170376   5.753   4.258   5.854 -0.5945 -0.3226 -1.5225
16295TIP3    H270377   5.614   4.217   5.897  0.5271 -0.0634  2.8555
16296TIP3   OH270378   4.004   4.344   0.024 -0.4052 -0.1980  0.0251
16296TIP3    H170379   3.974   4.322  -0.063 -0.9958  1.5735 -0.2581
16296TIP3    H270380   3.942   4.409   0.056  1.2766  1.1619  0.6982
16297TIP3   OH270381   5.961   4.047  10.633 -0.4366  0.4813 -1.1322
16297TIP3    H170382   6.011   4.114  10.586 -1.0446  1.3634 -0.5348
16297TIP3    H270383   5.974   3.968  10.581  2.6515  0.3254 -0.3056
16298TIP3   OH270384   6.604   4.336   2.592  0.2964 -0.3083  0.8494
16298TIP3    H170385   6.553   4.259   2.617 -0.6354  0.0804  0.1980
16298TIP3    H270386   6.619   4.382   2.675  0.3060 -0.8533  1.1543
16299TIP3   OH270387   3.163   2.763   4.441  0.5080  0.5178  0.0367
16299TIP3    H170388   3.136   2.827   4.376  1.0460  3.2314  2.2783
16299TIP3    H270389   3.256   2.780   4.456  0.6827 -0.8259  0.6717
16300TIP3   OH270390   0.961   2.385   5.491  0.2840 -0.0784  0.2377
16300TIP3    H170391   0.972   2.437   5.571  0.7962 -0.2506  0.2857
16300TIP3    H270392   1.039   2.328   5.489  0.4342  0.1448 -0.5463
16301TIP3   OH270393   6.796   3.311  15.406  0.4373  0.0428 -0.5607
16301TIP3    H170394   6.788   3.274  15.318 -2.8007  1.8002 -1.1447
16301TIP3    H270395   6.716   3.285  15.451  1.3410  0.4400  1.3967
16302TIP3   OH270396   0.907   1.018  13.058  0.1747 -0.2342 -0.7376
16302TIP3    H170397   0.911   1.054  13.147 -1.9611 -1.8486  0.1139
16302TIP3    H270398   0.968   1.071  13.007  0.7446  1.3592  1.4722
16303TIP3   OH270399   3.422   4.985   0.981 -0.4053 -0.8871 -0.1452
16303TIP3    H170400   3.369   5.043   1.035  0.2020  0.4023 -0.8832
16303TIP3    H270401   3.427   4.904   1.031 -0.3962  0.0336  1.4228
16304TIP3   OH270402   4.795   5.050  16.727  0.5057  0.0211  0.0782
16304TIP3    H170403   4.871   5.004  16.764  0.6957  0.1653 -0.1314
16304TIP3    H270404   4.739   5.068  16.803 -0.5638 -2.3523 -0.0475
16305TIP3   OH270405   4.925   5.969  17.050  0.0250  0.2219  0.0543
16305TIP3    H170406   4.838   5.970  17.012 -0.5633  4.0282  1.1594
16305TIP3    H270407   4.914   5.927  17.135 -0.6134  0.2169 -0.0287
16306TIP3   OH270408   1.909   4.976  14.764  0.0569  0.0253  0.2251
16306TIP3    H170409   1.992   5.020  14.782  0.0949 -0.1003  0.3658
16306TIP3    H270410   1.861   5.035  14.706 -0.0593  0.4365  0.7322
16307TIP3   OH270411   0.396   2.649   3.398 -0.1371 -0.6005 -0.3587
16307TIP3    H170412   0.454   2.607   3.461 -0.8627  0.0336  0.7780
16307TIP3    H270413   0.324   2.683   3.452  0.1934  1.6699 -1.2614
16308TIP3   OH270414   6.305   2.895   1.619  0.6568 -0.4658  0.3598
16308TIP3    H170415   6.347   2.811   1.639 -1.8800 -1.4714  1.8640
16308TIP3    H270416   6.273   2.886   1.530  0.8427 -0.9036  0.3361
16309TIP3   OH270417   6.337   0.860  16.626  0.0852  0.2982 -0.0897
16309TIP3    H170418   6.371   0.773  16.606  0.7412  0.6330 -0.4375
16309TIP3    H270419   6.301   0.852  16.715 -0.1357 -0.4028 -0.2390
16310TIP3   OH270420   1.222   3.994  15.719 -0.2583  0.2656  0.0919
16310TIP3    H170421   1.195   4.083  15.696  1.0195  0.1626 -2.0477
16310TIP3    H270422   1.308   4.005  15.760 -1.0617  0.1583  1.8687
16311TIP3   OH270423   3.517   6.346  14.432  0.1317 -0.5490 -0.5600
16311TIP3    H170424   3.565   6.413  14.383 -1.0835  0.6632 -0.1592
16311TIP3    H270425   3.578   6.272  14.438  1.7071  0.6976 -0.5834
16312TIP3   OH270426   0.858   3.727  13.521 -0.0393  0.2791 -0.6594
16312TIP3    H170427   0.844   3.812  13.480 -1.7966 -0.4600 -1.6977
16312TIP3    H270428   0.777   3.710  13.569  1.4569  0.5243  2.1362
16313TIP3   OH270429   1.694   2.040  15.217  0.1640 -0.2756 -0.5953
16313TIP3    H170430   1.625   1.975  15.233  0.3116 -0.1173  0.7689
16313TIP3    H270431   1.673   2.112  15.276  1.1312  0.0725 -0.6617
16314TIP3   OH270432   5.569   6.321  16.701  0.8774 -0.7747 -0.1726
16314TIP3    H170433   5.575   6.379  16.778 -3.2175 -0.1953 -0.0553
16314TIP3    H270434   5.481   6.284  16.706  1.6873 -3.4293 -2.8243
16315TIP3   OH270435   0.192   3.381   1.463 -0.6545 -0.6833 -0.3497
16315TIP3    H170436   0.102   3.411   1.474 -0.0176  1.0709  0.6428
16315TIP3    H270437   0.221   3.361   1.552  0.3010  0.0163 -0.4806
16316TIP3   OH270438   1.417   0.628  12.792 -0.4097  0.0987  0.4080
16316TIP3    H170439   1.463   0.588  12.866  0.3734  0.2762  0.0204
16316TIP3    H270440   1.327   0.595  12.800  0.4971 -3.0241 -0.7349
16317TIP3   OH270441   4.161   5.866   5.668  0.6308  0.4263  0.4872
16317TIP3    H170442   4.217   5.849   5.593  1.4574  1.5455  0.8212
16317TIP3    H270443   4.110   5.786   5.678  0.0767  0.4539 -1.6055
16318TIP3   OH270444   2.149   5.063   1.356  0.5388 -0.2339 -0.3516
16318TIP3    H170445   2.063   5.022   1.354 -0.5108  1.8203  0.1162
16318TIP3    H270446   2.171   5.069   1.449 -0.6206  2.6150 -0.1444
16319TIP3   OH270447   2.068   4.178  14.646  0.5562  0.1013  0.3746
16319TIP3    H170448   2.082   4.273  14.640  2.1767 -0.2059 -1.6353
16319TIP3    H270449   1.973   4.168  14.640  0.4761  1.5155 -1.7078
16320TIP3   OH270450   4.398   2.826  15.425 -0.1726 -0.7067 -0.4190
16320TIP3    H170451   4.330   2.802  15.488 -0.2297 -0.2297 -0.2969
16320TIP3    H270452   4.385   2.766  15.352 -0.5772 -0.7705 -0.2973
16321TIP3   OH270453   2.240   0.018   2.751  0.5514 -0.3815 -0.3018
16321TIP3    H170454   2.203  -0.012   2.834 -1.1037  1.0382 -0.4660
16321TIP3    H270455   2.218  -0.052   2.689 -0.8750 -0.1217 -0.1311
16322TIP3   OH270456   1.232   0.394  12.421 -0.3872  0.4652 -0.0064
16322TIP3    H170457   1.207   0.484  12.443 -0.5133  0.5842 -0.6039
16322TIP3    H270458   1.207   0.385  12.329 -0.3967 -0.1913  0.0582
16323TIP3   OH270459   3.403   0.223  14.271 -0.2150 -0.1059 -0.2714
16323TIP3    H170460   3.482   0.262  14.234  1.2017 -2.1556  0.4187
16323TIP3    H270461   3.419   0.220  14.365 -0.5887 -1.6271 -0.2409
16324TIP3   OH270462   4.895   2.424   2.270  0.4024  0.2342  0.5823
16324TIP3    H170463   4.936   2.366   2.334  1.0872  0.3877  0.2942
16324TIP3    H270464   4.932   2.510   2.288  3.9304 -0.3370 -2.5965
16325TIP3   OH270465   6.392   3.881  14.392 -0.4153  0.7973  0.8302
16325TIP3    H170466   6.415   3.792  14.364 -0.8367  0.6095  1.0633
16325TIP3    H270467   6.409   3.881  14.487  1.2784  1.5112  0.5536
16326TIP3   OH270468   0.825   2.917   1.876 -0.0569 -0.5076  0.3467
16326TIP3    H170469   0.910   2.941   1.914  0.3856  0.5277 -1.1839
16326TIP3    H270470   0.768   2.991   1.895  0.6134  0.7831 -2.2418
16327TIP3   OH270471   5.239   3.222  17.068 -0.1981 -0.3133 -0.1262
16327TIP3    H170472   5.183   3.224  16.991 -1.6912  2.2372  0.8901
16327TIP3    H270473   5.315   3.275  17.044 -0.3374 -0.0888 -0.0738
16328TIP3   OH270474   1.012   3.530   3.864  0.3447  0.3150  0.4223
16328TIP3    H170475   1.088   3.474   3.848  0.7399  0.3508  1.9376
16328TIP3    H270476   1.046   3.598   3.923 -0.2882  1.7716 -0.8161
16329TIP3   OH270477   6.556   3.299   4.062 -0.6535 -0.2122  0.2692
16329TIP3    H170478   6.556   3.378   4.009  0.1288 -0.9049 -0.7956
16329TIP3    H270479   6.481   3.249   4.031  0.6874 -1.3343 -1.3557
16330TIP3   OH270480   3.966   3.109  10.895  0.0140  0.2728 -0.2505
16330TIP3    H170481   3.880   3.149  10.883 -1.2781 -1.3785  2.4597
16330TIP3    H270482   4.021   3.179  10.928 -0.9534  0.8344  0.2065
16331TIP3   OH270483   3.426   4.518  12.421 -0.0051  0.2458 -0.2792
16331TIP3    H170484   3.470   4.458  12.482  0.7772  0.2238 -0.8460
16331TIP3    H270485   3.494   4.581  12.397 -0.9032  1.6260  0.6085
16332TIP3   OH270486   4.393   5.257  11.113  0.5768  0.2439  0.4342
16332TIP3    H170487   4.404   5.268  11.208  0.2387  1.3241  0.3715
16332TIP3    H270488   4.482   5.263  11.078  0.6187  0.7262  0.6134
16333TIP3   OH270489   2.188   3.737  14.824 -0.4179 -0.0744 -0.0991
16333TIP3    H170490   2.247   3.808  14.848 -1.3093  0.6154  0.1045
16333TIP3    H270491   2.237   3.657  14.843  1.2245  0.4374 -1.7963
16334TIP3   OH270492   3.133   6.390   3.356  0.4931  0.5099  0.6393
16334TIP3    H170493   3.100   6.475   3.326  0.5440 -0.0699 -1.2134
16334TIP3    H270494   3.227   6.403   3.365  0.1888  1.4978  3.5942
16335TIP3   OH270495   6.432   3.544   3.387 -0.3998 -0.4478 -0.5501
16335TIP3    H170496   6.477   3.583   3.312 -1.1376 -0.6220 -1.0958
16335TIP3    H270497   6.344   3.581   3.384 -0.0984  0.5193  0.9729
16336TIP3   OH270498   5.525   1.575  14.627 -0.0425 -0.1559 -0.1996
16336TIP3    H170499   5.512   1.523  14.548  0.2292  1.0787 -1.0994
16336TIP3    H270500   5.447   1.630  14.633 -0.8082 -1.3601  1.3196
16337TIP3   OH270501   5.850   3.904  16.799  0.3582  0.4971 -0.1377
16337TIP3    H170502   5.928   3.849  16.809 -0.1062 -0.2226 -0.4033
16337TIP3    H270503   5.798   3.860  16.732  1.1468  2.5994 -2.3023
16338TIP3   OH270504   2.096   1.732   5.954  0.5889 -0.7798  0.3356
16338TIP3    H170505   2.093   1.826   5.967 -2.5243 -0.6749 -0.3562
16338TIP3    H270506   2.041   1.716   5.877  1.5333 -3.1300  0.0390
16339TIP3   OH270507   6.489   1.938  15.155  0.6587 -0.0386 -0.4770
16339TIP3    H170508   6.516   1.853  15.120  2.9207  0.9822 -1.4920
16339TIP3    H270509   6.450   1.983  15.080 -0.5930 -0.1714  0.0727
16340TIP3   OH270510   6.523   1.945  12.984 -0.0378  0.1396  0.2984
16340TIP3    H170511   6.506   2.038  12.971  0.1366  0.1019 -0.2015
16340TIP3    H270512   6.606   1.929  12.939 -0.7142 -0.5355 -0.7418
16341TIP3   OH270513   4.751   3.902   4.222 -0.2760  0.3895 -0.3383
16341TIP3    H170514   4.764   3.855   4.304 -1.7422  0.9969  0.2715
16341TIP3    H270515   4.703   3.840   4.166 -4.3074  1.7796  1.2716
16342TIP3   OH270516   5.198   5.926  16.356  0.3870 -0.2225 -0.0336
16342TIP3    H170517   5.254   5.939  16.433  0.3169 -1.2414  0.1937
16342TIP3    H270518   5.254   5.953  16.283  1.3026 -1.4912  0.1625
16343TIP3   OH270519   3.552   0.651   3.156 -0.6420  0.1004 -0.0552
16343TIP3    H170520   3.606   0.643   3.235  0.5074  1.9060 -0.5768
16343TIP3    H270521   3.464   0.666   3.189  0.0065  2.0717  0.9912
16344TIP3   OH270522   1.436   4.236  16.945 -0.4187 -0.6431 -0.0516
16344TIP3    H170523   1.414   4.274  17.030 -1.3815  0.8610 -0.9345
16344TIP3    H270524   1.370   4.272  16.885 -1.0304 -3.2593 -1.0881
16345TIP3   OH270525   2.567   5.665  15.500  0.1040  0.4651 -0.3736
16345TIP3    H170526   2.586   5.736  15.438  0.4549  1.0114  0.3548
16345TIP3    H270527   2.479   5.684  15.532 -0.7871 -0.7557 -1.9545
16346TIP3   OH270528   0.168   5.040   5.080 -0.0030  0.3761  0.2098
16346TIP3    H170529   0.202   4.962   5.124  0.3603  0.8323  0.7609
16346TIP3    H270530   0.239   5.067   5.021  0.5165  1.1487  1.1340
16347TIP3   OH270531   2.265   0.446   2.581  0.6808  0.1264  0.1724
16347TIP3    H170532   2.320   0.524   2.589  0.7108  0.0689  0.5243
16347TIP3    H270533   2.180   0.473   2.613 -0.4149  1.1351 -3.1971
16348TIP3   OH270534   6.080   5.413  11.342 -0.6189  0.2206  0.1011
16348TIP3    H170535   6.004   5.385  11.291 -0.9413 -0.1462  0.7579
16348TIP3    H270536   6.111   5.493  11.299 -0.8666 -0.0928 -0.6645
16349TIP3   OH270537   2.279   6.196  16.703 -0.4573 -0.1054 -0.0182
16349TIP3    H170538   2.235   6.212  16.786 -0.7416  1.2853 -0.4031
16349TIP3    H270539   2.318   6.281  16.680 -0.9328 -0.2771 -1.6094
16350TIP3   OH270540   4.730   3.676   3.771 -0.6360 -0.3183 -0.2725
16350TIP3    H170541   4.643   3.660   3.807 -1.4741 -1.2981 -2.5002
16350TIP3    H270542   4.731   3.770   3.754 -0.7129 -0.0679  1.0205
16351TIP3   OH270543   6.065   3.545   1.489 -0.0178 -0.3172 -0.1966
16351TIP3    H170544   6.004   3.508   1.553 -0.2643 -1.2594 -0.9332
16351TIP3    H270545   6.061   3.483   1.415  2.5152 -0.9095  0.0862
16352TIP3   OH270546   3.162   1.687   2.561 -0.6349 -0.1520  0.4254
16352TIP3    H170547   3.122   1.773   2.574  1.2158  1.0804 -1.3080
16352TIP3    H270548   3.173   1.651   2.649 -1.6692  1.2779  1.1688
16353TIP3   OH270549   6.037   0.403   2.716  0.4066  0.7402 -0.3341
16353TIP3    H170550   5.944   0.393   2.733  0.6453 -0.0254  0.6707
16353TIP3    H270551   6.075   0.427   2.801  1.2694 -0.1732 -0.4358
16354TIP3   OH270552   4.065   1.594   0.688 -0.0807 -0.1903  0.4181
16354TIP3    H170553   3.979   1.556   0.706 -0.7076  1.1609  0.3986
16354TIP3    H270554   4.078   1.582   0.594 -2.2595  3.3608 -0.5451
16355TIP3   OH270555   6.753   2.144  15.904 -0.1492 -0.1208  0.2824
16355TIP3    H170556   6.837   2.130  15.860  0.2705  1.1048  0.6567
16355TIP3    H270557   6.688   2.129  15.835  0.1662 -3.7480  0.6104
16356TIP3   OH270558   2.218   0.898  15.355 -0.0333  0.4178  0.2922
16356TIP3    H170559   2.158   0.828  15.328  0.1466  0.8614 -1.3508
16356TIP3    H270560   2.272   0.915  15.278  0.3406  1.9494  0.8505
16357TIP3   OH270561   5.677   6.786   2.555  0.0239 -0.4376  0.2217
16357TIP3    H170562   5.744   6.725   2.524 -0.6819 -1.3005  0.3577
16357TIP3    H270563   5.706   6.871   2.523  1.0906 -0.8228  0.1249
16358TIP3   OH270564   5.490   4.773   5.388 -0.5077 -0.7199 -0.7693
16358TIP3    H170565   5.395   4.773   5.375 -0.2932 -1.3342 -2.5037
16358TIP3    H270566   5.523   4.838   5.327  0.1794 -0.1562  0.1725
16359TIP3   OH270567   6.610   0.492   4.707 -0.8328 -0.1653  0.0137
16359TIP3    H170568   6.573   0.454   4.628 -0.6307 -1.7468  0.6419
16359TIP3    H270569   6.550   0.466   4.777 -0.8488  0.9517  0.4461
16360TIP3   OH270570   6.398   3.045  15.643 -0.3323 -0.1270 -0.1565
16360TIP3    H170571   6.371   3.071  15.731 -0.2500 -0.4877 -0.0249
16360TIP3    H270572   6.326   2.991  15.610 -0.6246  0.4894 -0.5365
16361TIP3   OH270573   5.720   4.590  13.091  0.5775 -0.4068  0.4130
16361TIP3    H170574   5.812   4.565  13.092  0.4900 -0.7364  0.2592
16361TIP3    H270575   5.721   4.686  13.093  0.9203 -0.4124  0.4982
16362TIP3   OH270576   1.894   5.302  12.899  0.4638  0.2714  0.6980
16362TIP3    H170577   1.860   5.258  12.977 -2.3572  5.4966  2.9164
16362TIP3    H270578   1.831   5.282  12.831  0.5500 -0.8863  0.9393
16363TIP3   OH270579   4.597   3.768  10.396  0.6230  0.0666  0.5007
16363TIP3    H170580   4.681   3.742  10.358  1.1303  2.1567  0.0590
16363TIP3    H270581   4.533   3.752  10.327  1.0995  1.0676 -0.1960
16364TIP3   OH270582   0.352   0.689  15.894  0.6124  0.7610 -0.0790
16364TIP3    H170583   0.286   0.736  15.945  1.6875  1.0928  1.0688
16364TIP3    H270584   0.347   0.728  15.807  1.4109  3.0143  0.8092
16365TIP3   OH270585   2.228   5.905  16.806 -0.3102 -0.5904  0.4755
16365TIP3    H170586   2.284   5.955  16.865  0.1950 -0.5714 -0.0039
16365TIP3    H270587   2.184   5.972  16.753 -1.7970 -0.5420  1.7064
16366TIP3   OH270588   4.467   0.629   3.606  0.3956  0.1945  0.3347
16366TIP3    H170589   4.404   0.564   3.574 -1.7797  2.1949  0.2287
16366TIP3    H270590   4.487   0.602   3.695  1.3048 -1.8036 -0.4343
16367TIP3   OH270591   1.987   0.866   5.410  0.4101 -0.4504  0.5854
16367TIP3    H170592   1.934   0.793   5.443  0.0852 -0.3898  0.1957
16367TIP3    H270593   2.065   0.824   5.373 -0.8885 -0.8226 -1.8982
16368TIP3   OH270594   1.021   3.085   2.309 -0.6333 -0.2768 -0.0383
16368TIP3    H170595   0.984   3.017   2.366 -0.5684 -0.1737  0.1277
16368TIP3    H270596   1.047   3.155   2.369 -0.6653 -0.1209 -0.2066
16369TIP3   OH270597   5.025   0.214  16.407 -0.0205  0.4494  0.4419
16369TIP3    H170598   4.983   0.137  16.369 -1.9560  1.4359  0.4488
16369TIP3    H270599   5.057   0.185  16.493  0.2201 -0.5919  0.0142
16370TIP3   OH270600   3.683   3.768  13.136  0.5570  0.5015  0.0158
16370TIP3    H170601   3.632   3.790  13.058  0.8288 -0.3553 -0.4136
16370TIP3    H270602   3.716   3.680  13.119  0.1024  0.0553  1.3700
16371TIP3   OH270603   3.341   5.581   5.049 -0.0676  0.0943  0.3699
16371TIP3    H170604   3.378   5.621   4.971 -2.4958  1.1834 -0.3340
16371TIP3    H270605   3.294   5.504   5.017 -0.4663  0.1293  0.8492
16372TIP3   OH270606   1.036   4.087   0.905  0.2608  0.4511 -0.1719
16372TIP3    H170607   1.124   4.093   0.942 -0.4937 -0.1267  1.8866
16372TIP3    H270608   0.978   4.116   0.976 -1.2832 -0.4746 -0.9873
16373TIP3   OH270609   3.149   1.562   5.543  0.1807  0.0387  0.1364
16373TIP3    H170610   3.057   1.582   5.562  0.1240 -0.2373  0.1525
16373TIP3    H270611   3.190   1.648   5.530  0.3274  0.2711  1.9720
16374TIP3   OH270612   0.041   3.488   5.609 -0.5653 -0.1292 -0.1222
16374TIP3    H170613   0.133   3.471   5.588  0.4104  0.2934  3.2057
16374TIP3    H270614   0.039   3.491   5.705 -3.4105  3.3739 -0.1049
16375TIP3   OH270615   1.028   5.975   0.639 -0.4065  0.5326 -0.3411
16375TIP3    H170616   1.082   5.946   0.713  0.0758 -3.1170 -1.8827
16375TIP3    H270617   0.943   5.994   0.679  0.0081 -0.7206  1.2974
16376TIP3   OH270618   0.033   5.805  13.079  0.2766  0.1970  0.6098
16376TIP3    H170619   0.084   5.727  13.098 -1.0396 -0.5300  1.3427
16376TIP3    H270620  -0.044   5.773  13.031 -0.4748  0.9623  1.2503
16377TIP3   OH270621   3.713   4.323   5.692  0.6148  0.5023  0.7463
16377TIP3    H170622   3.740   4.266   5.764  2.6824  1.4051  0.7482
16377TIP3    H270623   3.760   4.405   5.708  0.4108  1.0272 -1.1486
16378TIP3   OH270624   4.461   0.518  13.286  0.2909  0.7903 -0.1881
16378TIP3    H170625   4.479   0.526  13.192 -1.4341  2.9655 -0.4334
16378TIP3    H270626   4.377   0.473  13.290  0.7259  0.0192  0.3689
16379TIP3   OH270627   0.383   0.855   1.195 -0.1823 -0.5664 -0.6937
16379TIP3    H170628   0.357   0.886   1.108  1.1104  0.5167 -0.7142
16379TIP3    H270629   0.473   0.885   1.206 -0.7572  0.5109  1.5746
16380TIP3   OH270630   0.341   4.757   4.801 -0.4463  0.4680 -0.1175
16380TIP3    H170631   0.345   4.717   4.887 -1.1011  1.3470  0.3307
16380TIP3    H270632   0.414   4.820   4.800  1.7071 -1.8518 -1.4507
16381TIP3   OH270633   3.810   2.365  13.740  0.0217  0.2330  0.1869
16381TIP3    H170634   3.764   2.284  13.720  1.4043 -0.3256 -0.9066
16381TIP3    H270635   3.851   2.391  13.657  1.9247  0.5138  1.1593
16382TIP3   OH270636   3.953   0.158   5.469 -0.0470 -0.3200 -0.0031
16382TIP3    H170637   3.889   0.098   5.431 -0.3217 -0.3786  0.5408
16382TIP3    H270638   4.011   0.103   5.521 -0.4392 -0.0992  0.6864
16383TIP3   OH270639   2.052   0.048   5.339  0.0626 -0.1036  0.1597
16383TIP3    H170640   1.977   0.011   5.385 -0.2155  0.8608  0.4855
16383TIP3    H270641   2.109   0.082   5.409  0.4718 -0.1945 -0.1231
16384TIP3   OH270642   6.425   3.514  12.763 -0.5275  0.0035 -0.3557
16384TIP3    H170643   6.489   3.463  12.814 -1.1717 -0.2952  0.1587
16384TIP3    H270644   6.342   3.468  12.774 -0.4462 -0.9414 -2.8731
16385TIP3   OH270645   0.265   6.199  17.219 -0.2406  0.6466  0.2946
16385TIP3    H170646   0.303   6.175  17.303  0.2030  2.3034  0.6140
16385TIP3    H270647   0.191   6.139  17.207 -0.3857  0.4643  1.9218
16386TIP3   OH270648   0.119   2.948   4.222 -0.0113 -0.1467 -0.9345
16386TIP3    H170649   0.036   2.989   4.199  0.9926  1.2710 -2.2722
16386TIP3    H270650   0.175   3.021   4.250  0.7689 -1.0722  0.0104
16387TIP3   OH270651   1.287   1.146   0.579 -0.2409 -0.0799  0.4588
16387TIP3    H170652   1.231   1.078   0.614 -0.1906 -0.1318  0.4388
16387TIP3    H270653   1.246   1.228   0.608  0.2090 -0.1296  1.2896
16388TIP3   OH270654   0.658   6.114   2.850  0.0721 -0.2577 -0.0127
16388TIP3    H170655   0.566   6.093   2.835  0.7847 -2.4294 -1.7114
16388TIP3    H270656   0.659   6.209   2.863 -1.9833  0.4927 -3.8874
16389TIP3   OH270657   0.862   0.200  15.402  0.0056  0.1429 -0.0372
16389TIP3    H170658   0.944   0.159  15.373  1.0202  0.5489  2.0393
16389TIP3    H270659   0.871   0.206  15.498 -1.3955  2.4310  0.0224
16390TIP3   OH270660   5.278   0.077   2.235 -0.0836  0.9646  0.2361
16390TIP3    H170661   5.299   0.046   2.323 -0.1336  0.8781  0.2178
16390TIP3    H270662   5.200   0.027   2.210  0.7034  0.0217 -0.3807
16391TIP3   OH270663   4.057   5.611   3.723 -0.5384  0.1921 -0.0931
16391TIP3    H170664   4.059   5.701   3.755  2.7094 -0.2106  1.1911
16391TIP3    H270665   4.136   5.602   3.669  1.0809 -2.6568  2.4416
16392TIP3   OH270666   6.768   6.193  10.852 -0.4669 -0.3557 -0.3155
16392TIP3    H170667   6.750   6.100  10.842 -1.4700 -0.1095 -0.9585
16392TIP3    H270668   6.799   6.221  10.766 -1.0340  0.0758 -0.3852
16393TIP3   OH270669   2.790   3.575   2.938  0.6121 -0.2094  0.0104
16393TIP3    H170670   2.853   3.607   3.002  0.7395 -0.8388  0.2161
16393TIP3    H270671   2.840   3.561   2.858  0.5083  0.3248 -0.1474
16394TIP3   OH270672   1.976   4.476   4.085  0.0524 -0.1932 -0.0155
16394TIP3    H170673   1.944   4.544   4.025 -1.5579 -0.3572  0.6079
16394TIP3    H270674   1.972   4.395   4.034 -1.3214 -0.3338  0.2952
16395TIP3   OH270675   0.198   1.745   4.106  0.5413  0.0714 -0.1876
16395TIP3    H170676   0.254   1.765   4.030  0.6150  0.2175 -0.0941
16395TIP3    H270677   0.195   1.827   4.156  1.4235 -0.3473  0.5713
16396TIP3   OH270678   1.475   0.984   6.820  0.3078  0.2132  0.2179
16396TIP3    H170679   1.498   0.990   6.727  2.9522 -1.4807  0.6602
16396TIP3    H270680   1.381   1.000   6.822  0.2190  0.6688 -2.6889
16397TIP3   OH270681   2.249   1.970  12.203  0.0839  0.1369  0.0998
16397TIP3    H170682   2.311   1.899  12.218  1.8258  1.7683  1.2021
16397TIP3    H270683   2.297   2.033  12.149 -0.7008  1.2893  0.6899
16398TIP3   OH270684   4.910   6.154  14.705  0.2614  0.0007  0.1599
16398TIP3    H170685   4.857   6.139  14.784 -0.9141  3.6437  0.2528
16398TIP3    H270686   4.863   6.109  14.635 -1.1592  0.4093  0.8196
16399TIP3   OH270687   4.579   4.088  11.397 -0.2660  0.0783 -0.4352
16399TIP3    H170688   4.505   4.030  11.411  0.0714 -0.0587  0.9377
16399TIP3    H270689   4.622   4.093  11.483  0.1952  1.6837 -0.7339
16400TIP3   OH270690   2.541   3.137  16.127  0.0014  0.8135  0.9446
16400TIP3    H170691   2.577   3.223  16.145  0.6603  0.3209  2.1388
16400TIP3    H270692   2.453   3.140  16.165  0.6037  0.4792  2.4398
16401TIP3   OH270693   1.007   6.107   0.270 -0.0011 -0.7200 -0.6114
16401TIP3    H170694   1.057   6.025   0.276  2.0853  0.5898  1.0072
16401TIP3    H270695   0.948   6.104   0.346  1.8337  0.3294  0.9125
16402TIP3   OH270696   2.208   0.909  12.636 -0.0571 -0.0405 -0.6760
16402TIP3    H170697   2.117   0.941  12.634 -0.6027 -1.5571 -1.8340
16402TIP3    H270698   2.201   0.814  12.637  1.4979 -0.2357 -2.1660
16403TIP3   OH270699   3.408   5.694  16.739  0.7387 -0.3303 -0.0015
16403TIP3    H170700   3.479   5.705  16.677  0.0979  1.9545 -0.4288
16403TIP3    H270701   3.385   5.783  16.765 -1.3954 -1.0442  0.7710
16404TIP3   OH270702   6.172   1.067   4.548 -0.1804 -0.0469  0.3543
16404TIP3    H170703   6.080   1.078   4.523  0.1689  1.2987 -0.4692
16404TIP3    H270704   6.194   1.149   4.592  0.4112 -0.6968  1.2971
16405TIP3   OH270705   1.142   2.347   3.022 -0.3213  0.0049  0.1607
16405TIP3    H170706   1.063   2.353   2.968  0.4780 -0.5406 -1.1207
16405TIP3    H270707   1.110   2.358   3.111 -1.8229 -0.0239 -0.3306
16406TIP3   OH270708   4.353   3.868  16.747  0.3649  0.0962  0.2512
16406TIP3    H170709   4.387   3.949  16.786  2.4151 -0.4682 -0.2702
16406TIP3    H270710   4.293   3.898  16.678  0.2907  1.1395  0.7428
16407TIP3   OH270711   4.783   2.033  17.146 -0.0232 -0.2835 -0.1641
16407TIP3    H170712   4.804   2.113  17.194  4.0199 -1.2151  0.0348
16407TIP3    H270713   4.764   1.969  17.215  2.2458 -0.7237  0.1624
16408TIP3   OH270714   4.995   6.108  15.582 -0.4396  0.1464  0.7934
16408TIP3    H170715   4.981   6.014  15.589  2.5375 -0.4788 -0.0351
16408TIP3    H270716   5.059   6.128  15.651  0.6490  1.0857 -0.4216
16409TIP3   OH270717   1.964   1.785   4.429  0.1198 -0.0143 -0.8413
16409TIP3    H170718   2.029   1.790   4.500  1.4615  2.3595 -2.1056
16409TIP3    H270719   1.901   1.719   4.459  1.5872 -0.4042  1.7201
16410TIP3   OH270720   4.448   4.505  13.814  0.3970 -0.1247  0.0850
16410TIP3    H170721   4.483   4.501  13.725 -0.5693  0.1580 -0.3212
16410TIP3    H270722   4.517   4.545  13.865  0.8267  0.0448 -0.6154
16411TIP3   OH270723   5.940   4.428   5.046  0.2559 -0.1870 -0.3498
16411TIP3    H170724   5.895   4.503   5.007  0.1175 -0.6608 -1.1306
16411TIP3    H270725   6.024   4.423   4.999  0.3386 -0.4068 -0.1800
16412TIP3   OH270726   1.264   2.619  15.164 -0.0070  0.3259  0.0106
16412TIP3    H170727   1.263   2.674  15.242 -0.8769  0.1738  0.1138
16412TIP3    H270728   1.357   2.600  15.150  0.3781  2.1856 -0.2981
16413TIP3   OH270729   5.232   0.578   6.538  0.7489  0.3196 -0.7561
16413TIP3    H170730   5.199   0.603   6.624 -1.3254  0.5516 -1.5476
16413TIP3    H270731   5.248   0.662   6.494  0.7829  0.2106 -0.9489
16414TIP3   OH270732   4.110   3.391  17.166  0.0441 -0.8358 -0.0176
16414TIP3    H170733   4.040   3.443  17.206  1.1630 -0.4287  1.4828
16414TIP3    H270734   4.188   3.446  17.174  0.9273 -2.0740  0.1171
16415TIP3   OH270735   3.396   2.058  15.269 -0.2113  0.4641  0.3941
16415TIP3    H170736   3.351   2.022  15.346 -0.0803 -0.9017 -0.1440
16415TIP3    H270737   3.476   2.006  15.261 -0.2040  0.6143 -0.6410
16416TIP3   OH270738   2.433   1.089  14.473 -0.3416  0.2586  0.0025
16416TIP3    H170739   2.441   1.008  14.423 -0.7299  0.5020 -0.4586
16416TIP3    H270740   2.344   1.119  14.456  0.0870  1.2610 -0.5561
16417TIP3   OH270741   0.709   4.473  17.283  0.1020  0.2332 -0.1230
16417TIP3    H170742   0.616   4.485  17.265  0.4564 -0.1143 -2.4520
16417TIP3    H270743   0.751   4.552  17.250  0.8329 -0.5393 -1.0951
16418TIP3   OH270744   5.137   0.292  11.289  0.3638  0.0587 -0.2896
16418TIP3    H170745   5.129   0.210  11.241 -0.6368  0.4702 -0.8695
16418TIP3    H270746   5.057   0.341  11.266 -0.4273  0.0703  2.1574
16419TIP3   OH270747   6.380   4.752   2.512  0.4853 -0.7606  0.1213
16419TIP3    H170748   6.442   4.803   2.461 -2.0089 -0.7623 -3.2261
16419TIP3    H270749   6.307   4.812   2.529 -0.8959 -2.0937 -0.7431
16420TIP3   OH270750   5.472   4.279  15.516  0.2258 -0.0136  0.5633
16420TIP3    H170751   5.468   4.202  15.573  1.1731  0.0080  0.6795
16420TIP3    H270752   5.483   4.353  15.577 -0.7083  0.2184  0.4548
16421TIP3   OH270753   4.918   1.645  15.384 -0.1065 -0.0503 -0.1733
16421TIP3    H170754   4.933   1.706  15.312 -2.2249 -0.3741 -0.9493
16421TIP3    H270755   4.844   1.682  15.432  0.2693 -0.6656  0.9332
16422TIP3   OH270756   3.819   0.815  13.870 -0.4566  0.3466 -0.1459
16422TIP3    H170757   3.907   0.834  13.904 -1.4261  0.8880  2.3068
16422TIP3    H270758   3.774   0.899  13.871 -1.1196  0.0196 -1.0607
16423TIP3   OH270759   3.702   3.863   5.526  0.4152  0.2339 -0.3522
16423TIP3    H170760   3.624   3.896   5.482  0.4862  0.2773 -0.4443
16423TIP3    H270761   3.696   3.898   5.615  0.4746  0.4691 -0.4409
16424TIP3   OH270762   5.747   6.697  16.311 -0.6608 -0.3286  0.9027
16424TIP3    H170763   5.763   6.712  16.218 -1.1599 -2.9857  0.3161
16424TIP3    H270764   5.830   6.661  16.344 -0.2807  1.1702  1.6718
16425TIP3   OH270765   6.402   5.558  14.803 -0.3126 -0.9981  0.2437
16425TIP3    H170766   6.466   5.551  14.732 -0.1798  1.1497  0.0837
16425TIP3    H270767   6.451   5.537  14.882 -0.0178 -1.6730 -0.1103
16426TIP3   OH270768   1.319   3.091   1.393  0.1539 -0.6033 -0.0938
16426TIP3    H170769   1.283   3.179   1.403  0.8285 -0.2756 -0.4389
16426TIP3    H270770   1.373   3.078   1.471 -0.7935 -1.1387  0.4805
16427TIP3   OH270771   0.410   6.070   4.320  0.0315 -0.7803 -0.1904
16427TIP3    H170772   0.396   6.095   4.228  1.6241 -0.7789 -0.4562
16427TIP3    H270773   0.364   5.987   4.329 -0.4180 -0.6178 -0.8961
16428TIP3   OH270774   2.671   5.187   2.093  0.1303 -0.6780 -0.0852
16428TIP3    H170775   2.732   5.114   2.093  3.2788  1.7378 -0.6140
16428TIP3    H270776   2.690   5.235   2.012 -1.6746  0.8315  0.3079
16429TIP3   OH270777   0.077   4.099  12.920  0.0661 -0.3479  0.1011
16429TIP3    H170778   0.020   4.175  12.906  1.3725  0.4315 -1.1201
16429TIP3    H270779   0.059   4.042  12.845  1.8942  0.5682 -1.0896
16430TIP3   OH270780   1.157   5.867   1.457  0.3392 -0.0017 -0.1911
16430TIP3    H170781   1.087   5.856   1.393 -2.1455 -0.5510  2.4096
16430TIP3    H270782   1.171   5.779   1.492  2.7254  0.0168 -0.9459
16431TIP3   OH270783   1.999   4.613   4.349 -0.1795 -0.3780  0.0692
16431TIP3    H170784   2.052   4.684   4.312  0.9015 -1.2948 -0.2313
16431TIP3    H270785   1.981   4.556   4.274 -3.3697  0.8924 -0.2730
16432TIP3   OH270786   2.283   1.733  10.774 -0.3151 -0.1733  0.0674
16432TIP3    H170787   2.325   1.690  10.699 -0.7204  0.4666 -0.5418
16432TIP3    H270788   2.340   1.808  10.793 -1.1771  0.7211 -0.7889
16433TIP3   OH270789   2.014   1.644  14.676 -0.4079  0.0768  0.3299
16433TIP3    H170790   2.008   1.732  14.712  1.0573  0.7667 -1.0140
16433TIP3    H270791   2.096   1.609  14.710  0.1623  0.1159 -0.9569
16434TIP3   OH270792   4.390   4.865  14.934  0.3266 -0.3498 -0.5652
16434TIP3    H170793   4.305   4.900  14.960  0.8971  1.0874 -0.5619
16434TIP3    H270794   4.441   4.863  15.014  1.0157  0.9663 -0.9392
16435TIP3   OH270795   0.583   3.252  14.919 -0.1240 -0.1874  0.8949
16435TIP3    H170796   0.488   3.245  14.907 -0.0029 -0.4297 -0.0154
16435TIP3    H270797   0.595   3.331  14.972 -0.9560 -1.4593  3.1085
16436TIP3   OH270798   1.436   5.668  16.707  0.2653 -0.7133  0.5686
16436TIP3    H170799   1.434   5.576  16.732 -0.4908 -0.6718  0.6726
16436TIP3    H270800   1.347   5.687  16.676 -0.1579  0.4652  2.3059
16437TIP3   OH270801   3.424   1.450   2.849  0.0171 -0.3001  0.8668
16437TIP3    H170802   3.494   1.473   2.788 -1.2076  1.5448  0.0781
16437TIP3    H270803   3.397   1.363   2.821 -1.4822  1.0108 -2.3004
16438TIP3   OH270804   4.220   1.323  13.225  0.2290  0.4408 -0.2342
16438TIP3    H170805   4.147   1.281  13.269 -0.5203  0.6530 -1.2237
16438TIP3    H270806   4.288   1.256  13.221 -0.1837  0.0018  0.0434
16439TIP3   OH270807   3.357   0.308   6.469 -0.1174 -0.0778 -0.5346
16439TIP3    H170808   3.330   0.217   6.476 -1.2597  0.3069  0.3695
16439TIP3    H270809   3.449   0.309   6.495  0.1549 -1.0872 -1.4144
16440TIP3   OH270810   0.772   3.447  12.522  0.1961 -0.5282 -0.3134
16440TIP3    H170811   0.831   3.457  12.596 -0.2685  0.6518 -0.0752
16440TIP3    H270812   0.712   3.377  12.547  2.2485 -2.7152 -1.1033
16441TIP3   OH270813   4.430   4.902   5.860 -0.0026 -1.4708 -0.4453
16441TIP3    H170814   4.504   4.842   5.861  0.9777 -0.3127 -0.9408
16441TIP3    H270815   4.420   4.932   5.950  1.5902  0.0462 -0.7183
16442TIP3   OH270816   2.752   5.371   3.051 -0.4487  0.0800  0.2133
16442TIP3    H170817   2.779   5.414   2.970 -1.0958  0.7286  0.3348
16442TIP3    H270818   2.662   5.402   3.066 -1.8364 -2.9595 -0.8630
16443TIP3   OH270819   0.461   0.870  14.085 -0.7203 -0.1799 -0.1293
16443TIP3    H170820   0.447   0.944  14.143 -2.0977 -0.2661 -0.3226
16443TIP3    H270821   0.555   0.872  14.066 -0.0574 -0.6052  2.6896
16444TIP3   OH270822   2.463   3.922   4.306  0.1696 -0.2003  0.4277
16444TIP3    H170823   2.389   3.976   4.331  0.2693 -0.3747  1.1212
16444TIP3    H270824   2.424   3.845   4.264 -0.0152 -0.0410  0.3080
16445TIP3   OH270825   3.436   3.726  15.669  0.0890  0.2439  0.1089
16445TIP3    H170826   3.395   3.693  15.589  0.3851  0.4592 -0.1349
16445TIP3    H270827   3.523   3.687  15.668  0.6141  1.4000 -0.4288
16446TIP3   OH270828   5.574   4.991   5.241  0.1643 -0.3271  0.2110
16446TIP3    H170829   5.606   5.026   5.157  0.4851 -1.1774 -0.0379
16446TIP3    H270830   5.514   5.057   5.274  2.0708  1.2756  0.6260
16447TIP3   OH270831   5.068   4.186  14.948  0.1083 -0.3859  0.5239
16447TIP3    H170832   4.973   4.186  14.936  0.2026  2.3364 -0.9240
16447TIP3    H270833   5.088   4.098  14.981 -2.6203 -1.8871 -1.3961
16448TIP3   OH270834   2.903   5.603  16.913  0.1431  0.2256 -0.3016
16448TIP3    H170835   2.874   5.625  16.825  1.9964  0.1309 -0.9773
16448TIP3    H270836   2.822   5.599  16.965 -1.2329 -1.8979 -2.4355
16449TIP3   OH270837   2.245   6.506   6.406 -0.3758  0.1227  0.0679
16449TIP3    H170838   2.205   6.420   6.405 -1.3108  0.5076 -2.6147
16449TIP3    H270839   2.325   6.495   6.458 -0.3915 -2.3785 -0.3344
16450TIP3   OH270840   2.425   2.072   3.297 -0.1128  0.0112 -0.0319
16450TIP3    H170841   2.399   2.036   3.212 -3.8504  1.9705  0.1031
16450TIP3    H270842   2.508   2.115   3.280 -0.9764  0.7714 -2.8729
16451TIP3   OH270843   4.499   5.388   5.990  0.0351 -0.3718  0.7899
16451TIP3    H170844   4.509   5.308   5.939  0.0668 -0.4237  0.8781
16451TIP3    H270845   4.571   5.385   6.054  0.4300  0.0411  0.3728
16452TIP3   OH270846   5.556   5.853   5.814 -0.2209  0.3129 -0.3187
16452TIP3    H170847   5.558   5.819   5.725 -0.1742  1.0145 -0.5967
16452TIP3    H270848   5.463   5.865   5.833 -0.1985  1.4389 -0.7957
16453TIP3   OH270849   4.275   6.613  16.276 -0.0510  0.1777  0.4529
16453TIP3    H170850   4.325   6.531  16.282 -1.3053 -0.5931  0.6555
16453TIP3    H270851   4.222   6.614  16.356 -1.2117  0.3909 -0.3098
16454TIP3   OH270852   0.017   3.033   0.868 -0.0030 -0.4897 -0.4826
16454TIP3    H170853   0.100   3.023   0.915 -0.1252 -2.5913 -0.5888
16454TIP3    H270854   0.042   3.047   0.777  0.2185  2.6622 -0.0497
16455TIP3   OH270855   5.530   2.913  13.380 -0.1372  0.0762 -0.0978
16455TIP3    H170856   5.487   2.974  13.320  2.4144 -0.1638 -2.3562
16455TIP3    H270857   5.544   2.834  13.327  0.8012 -0.7393  1.3052
16456TIP3   OH270858   6.204   5.403  13.238 -0.1648  0.2136 -0.2421
16456TIP3    H170859   6.251   5.472  13.285  1.4184 -0.6667 -0.4587
16456TIP3    H270860   6.148   5.450  13.176  0.3667  1.3088  0.0785
16457TIP3   OH270861   5.206   4.593  13.188 -0.5450  0.6922  0.5803
16457TIP3    H170862   5.242   4.616  13.103 -0.7082 -1.7406 -0.2290
16457TIP3    H270863   5.283   4.577  13.243 -0.4394  2.3663  0.9552
16458TIP3   OH270864   6.173   2.270  14.833 -0.5022 -0.4359  0.1149
16458TIP3    H170865   6.138   2.236  14.915 -0.4775  1.1720  0.8256
16458TIP3    H270866   6.264   2.291  14.854 -0.4495 -0.1716 -0.3782
16459TIP3   OH270867   3.661   6.717  15.521 -0.3023 -0.3816  0.3790
16459TIP3    H170868   3.598   6.789  15.512 -0.0229 -0.1857 -0.0504
16459TIP3    H270869   3.735   6.756  15.567 -0.1139 -0.3694  0.0678
16460TIP3   OH270870   0.155   4.132  16.663 -0.6755 -0.5609  0.4153
16460TIP3    H170871   0.110   4.177  16.592  0.9580  1.5467  0.6421
16460TIP3    H270872   0.115   4.167  16.743  1.8589  2.1607  0.6650
16461TIP3   OH270873   5.168   0.763   4.019 -0.3695  0.1239 -0.5890
16461TIP3    H170874   5.158   0.767   4.114 -0.3037  2.2770 -0.6061
16461TIP3    H270875   5.258   0.732   4.006  0.0507  0.9802  0.1167
16462TIP3   OH270876   2.859   4.794  16.088 -0.4906 -0.0791 -0.0441
16462TIP3    H170877   2.926   4.774  16.153  0.7953 -0.1780 -1.3464
16462TIP3    H270878   2.879   4.737  16.014 -3.0626 -1.3518  0.1335
16463TIP3   OH270879   5.089   0.845  14.993 -0.1743  0.1643 -0.0131
16463TIP3    H170880   5.039   0.896  14.929 -0.2197 -0.7570 -0.7419
16463TIP3    H270881   5.117   0.909  15.058 -0.1977  1.1187 -0.9081
16464TIP3   OH270882   4.057   3.735  16.994 -0.6864 -0.0949 -0.1780
16464TIP3    H170883   4.151   3.745  16.977 -0.6762 -1.1275 -0.8336
16464TIP3    H270884   4.020   3.710  16.910 -1.3969 -0.6367  0.2798
16465TIP3   OH270885   1.823   2.513  14.818  0.3856 -0.0129 -1.0416
16465TIP3    H170886   1.868   2.479  14.895 -0.9528 -1.1945 -0.7236
16465TIP3    H270887   1.777   2.591  14.850 -0.4873 -0.7242 -0.5178
16466TIP3   OH270888   0.251   4.374   2.890  0.6604  0.2328  0.2247
16466TIP3    H170889   0.227   4.405   2.803 -2.1636  0.2684  0.9069
16466TIP3    H270890   0.171   4.335   2.925  1.9200 -0.5391  2.4987
16467TIP3   OH270891   5.786   1.179   5.048  0.3783  0.1068  0.1640
16467TIP3    H170892   5.724   1.136   5.106  1.2234 -1.3902  0.0203
16467TIP3    H270893   5.743   1.260   5.023  0.3940  1.4272  3.7507
16468TIP3   OH270894   3.235   1.401  14.765  0.2496  0.0398 -0.5681
16468TIP3    H170895   3.287   1.447  14.831  1.1131  0.0214 -1.2186
16468TIP3    H270896   3.152   1.382  14.809  0.9727 -0.3790  0.6558
16469TIP3   OH270897   2.829   6.551   6.782 -0.2760  0.0435 -0.0373
16469TIP3    H170898   2.793   6.599   6.707  1.0900  2.4381  0.7187
16469TIP3    H270899   2.752   6.526   6.833 -1.1173  0.4659 -1.0355
16470TIP3   OH270900   2.212   2.602   5.252 -0.5767 -0.1757  0.4573
16470TIP3    H170901   2.212   2.615   5.347 -0.4959  1.0952  0.3066
16470TIP3    H270902   2.284   2.542   5.236 -0.0224  0.2984  1.1218
16471TIP3   OH270903   5.249   2.284  12.402 -0.9317  0.2846 -0.0039
16471TIP3    H170904   5.215   2.197  12.421 -1.9533  0.5957 -0.3551
16471TIP3    H270905   5.172   2.336  12.382 -0.1651  0.4418 -3.1737
16472TIP3   OH270906   6.053   2.158  14.588  0.9322  0.2835 -0.1135
16472TIP3    H170907   5.962   2.129  14.593  1.3118 -0.9210  0.0763
16472TIP3    H270908   6.047   2.253  14.578 -0.3785  0.1086 -1.4539
16473TIP3   OH270909   2.258   4.654   0.028 -0.3322  0.0848  0.1685
16473TIP3    H170910   2.302   4.686   0.107  0.1972  0.3361 -0.2133
16473TIP3    H270911   2.253   4.560   0.039  1.7644 -0.1608 -0.4600
16474TIP3   OH270912   2.143   6.042   3.556  0.2405  0.0778  0.5383
16474TIP3    H170913   2.223   6.004   3.521  0.6050 -0.2022  1.6531
16474TIP3    H270914   2.074   5.981   3.530  0.6398 -0.6455  1.1393
16475TIP3   OH270915   4.657   0.642   5.950  0.5661  0.2867  0.2837
16475TIP3    H170916   4.729   0.585   5.926  0.8249  0.3478  0.9093
16475TIP3    H270917   4.658   0.644   6.045 -1.3434 -1.1233  0.3948
16476TIP3   OH270918   0.533   2.177   4.261  0.2983  0.0077  0.1750
16476TIP3    H170919   0.459   2.187   4.321  0.5328  1.8266  0.2097
16476TIP3    H270920   0.595   2.121   4.307 -0.5980 -0.6817  0.5722
16477TIP3   OH270921   5.396   5.759  14.818 -0.1020 -0.2401 -0.3886
16477TIP3    H170922   5.375   5.754  14.911  0.5256  0.0078 -0.2329
16477TIP3    H270923   5.460   5.689  14.804  0.3793  0.2214 -0.4813
16478TIP3   OH270924   1.205   0.628   5.020  0.0520 -0.7317  0.5488
16478TIP3    H170925   1.180   0.629   5.112  0.5852 -1.9628  0.7237
16478TIP3    H270926   1.277   0.565   5.015 -1.1502 -2.0953 -0.9836
16479TIP3   OH270927   5.712   2.601  13.322  0.3571  0.3886  0.0655
16479TIP3    H170928   5.796   2.640  13.347  1.9726 -1.4007 -2.0986
16479TIP3    H270929   5.722   2.508  13.343 -1.0879  0.1326 -0.2754
16480TIP3   OH270930   3.182   3.657  11.081  0.3029 -0.1047  0.4706
16480TIP3    H170931   3.251   3.695  11.027 -0.4007  0.5440  0.0070
16480TIP3    H270932   3.159   3.727  11.143 -0.0404 -0.2632  0.5245
16481TIP3   OH270933   2.855   4.859   6.224  0.4519  0.0652  0.1159
16481TIP3    H170934   2.863   4.810   6.306  0.8633 -0.3096 -0.1395
16481TIP3    H270935   2.919   4.930   6.232  2.1046 -1.2393 -0.7449
16482TIP3   OH270936   3.932   5.473  16.030  0.4158 -0.1516 -0.1261
16482TIP3    H170937   4.026   5.484  16.044  0.7264 -1.3220 -1.0625
16482TIP3    H270938   3.905   5.413  16.100  0.0615  1.2735  0.9904
16483TIP3   OH270939   2.294   4.874   1.989 -0.6611 -0.2034 -0.2246
16483TIP3    H170940   2.307   4.958   2.034  0.1417  0.3302 -1.3855
16483TIP3    H270941   2.205   4.880   1.954 -0.2991  0.5729 -1.0658
16484TIP3   OH270942   3.093   4.905   2.353  0.0850  0.4694 -0.0396
16484TIP3    H170943   3.096   4.968   2.425 -2.9305  0.0526  0.6074
16484TIP3    H270944   3.045   4.951   2.284  1.0938  0.1260 -0.9869
16485TIP3   OH270945   4.550   6.049  17.245 -0.9236  0.8677  0.6081
16485TIP3    H170946   4.638   6.083  17.261 -0.7326  1.5551 -1.5802
16485TIP3    H270947   4.525   6.007  17.328  0.7973  2.0558  1.7954
16486TIP3   OH270948   4.569   1.328  16.568  0.0286  0.3346  0.2335
16486TIP3    H170949   4.620   1.337  16.487  1.0312 -0.0716  0.8049
16486TIP3    H270950   4.628   1.358  16.637 -1.0559  1.3230  0.7544
16487TIP3   OH270951   3.308   6.024  15.821 -0.6424 -0.9214 -0.3520
16487TIP3    H170952   3.251   6.101  15.813  0.4227  0.0459  0.8689
16487TIP3    H270953   3.305   6.002  15.914 -0.2636 -1.8376 -0.5481
16488TIP3   OH270954   5.368   4.067  14.397 -0.1600  0.1279  0.0439
16488TIP3    H170955   5.355   4.157  14.428 -0.5785 -0.4649  1.6940
16488TIP3    H270956   5.462   4.061  14.379 -0.1977  1.0128 -0.5194
16489TIP3   OH270957   3.670   3.895  15.800  0.5845 -0.0478 -0.2990
16489TIP3    H170958   3.675   3.801  15.780  1.2887  0.1241 -0.9578
16489TIP3    H270959   3.690   3.938  15.717 -0.9555  0.7041 -0.3141
16490TIP3   OH270960   3.228   5.498   6.093 -0.5239 -0.2327  0.3653
16490TIP3    H170961   3.295   5.493   6.162 -0.0642  0.2746 -0.0346
16490TIP3    H270962   3.190   5.410   6.091  0.6652 -0.7770  0.0984
16491TIP3   OH270963   6.728   1.619   0.855  0.7870 -0.7060 -0.3726
16491TIP3    H170964   6.648   1.632   0.905  1.0553 -0.9291  0.1185
16491TIP3    H270965   6.798   1.621   0.920  1.3489  1.1639 -0.9688
16492TIP3   OH270966   5.042   0.501  15.257  0.3369 -0.0219  0.0939
16492TIP3    H170967   5.135   0.497  15.233  0.6159 -1.1662  1.2405
16492TIP3    H270968   5.030   0.589  15.291  0.8359  0.3534 -0.6564
16493TIP3   OH270969   0.131   5.631  12.176 -0.7957  0.4893  0.3178
16493TIP3    H170970   0.098   5.543  12.158 -0.3504  0.3829  0.0174
16493TIP3    H270971   0.204   5.617  12.236  0.2488  0.5287 -0.9260
16494TIP3   OH270972   0.488   2.595  17.157 -0.3288  0.2264  0.7965
16494TIP3    H170973   0.445   2.624  17.076 -2.2918  0.9447  2.0250
16494TIP3    H270974   0.452   2.508  17.174 -1.0764  0.6892  1.6544
16495TIP3   OH270975   4.928   2.907  16.943 -0.3882 -0.6974 -0.2778
16495TIP3    H170976   4.925   2.904  17.038 -0.1593  0.8489 -0.2032
16495TIP3    H270977   4.903   2.997  16.921 -0.0618 -0.9227 -1.6576
16496TIP3   OH270978   1.316   3.637   3.131 -0.6029  0.1707  0.3252
16496TIP3    H170979   1.387   3.683   3.087  0.8729 -1.4725  0.8578
16496TIP3    H270980   1.317   3.670   3.220 -1.9973  1.7334 -0.1946
16497TIP3   OH270981   4.318   4.116   5.480  0.4132 -0.5727 -0.1661
16497TIP3    H170982   4.253   4.050   5.454 -1.5943  1.3194 -0.2756
16497TIP3    H270983   4.304   4.127   5.574  1.9033 -1.4372  0.1933
16498TIP3   OH270984   4.842   3.413  14.990 -0.7116 -0.0942  0.2153
16498TIP3    H170985   4.906   3.346  14.965  0.2301  0.8596  0.0250
16498TIP3    H270986   4.894   3.490  15.010 -1.5815 -0.0883  2.8243
16499TIP3   OH270987   4.817   0.938  13.331  0.3640 -0.2076 -0.4330
16499TIP3    H170988   4.765   0.874  13.282  0.2709 -1.0664  0.7451
16499TIP3    H270989   4.900   0.893  13.347  0.4993  0.1684 -0.0593
16500TIP3   OH270990   0.580   0.739   5.893 -0.3408 -0.1641 -0.2006
16500TIP3    H170991   0.490   0.707   5.896 -0.4632  0.1897 -0.0027
16500TIP3    H270992   0.580   0.817   5.948 -0.2113  0.5491 -1.1717
16501TIP3   OH270993   1.131   6.592   4.825  0.2586 -0.4925  0.7729
16501TIP3    H170994   1.133   6.615   4.732  0.1342  0.1167  0.9217
16501TIP3    H270995   1.080   6.510   4.827  1.9801 -1.6412  0.0892
16502TIP3   OH270996   6.735   6.362   3.908  0.4093  0.5652 -0.4744
16502TIP3    H170997   6.819   6.396   3.878  1.1127  0.9236  1.7446
16502TIP3    H270998   6.674   6.382   3.836  1.6101  2.9264 -0.9297
16503TIP3   OH270999   3.802   5.617   2.421 -0.4560 -0.2627  0.0242
16503TIP3    H171000   3.736   5.670   2.465 -0.2940  1.0146 -1.1714
16503TIP3    H271001   3.865   5.681   2.388  0.9150 -1.3850  0.3745
16504TIP3   OH271002   5.383   3.425   4.353  0.6651 -0.2350  0.2024
16504TIP3    H171003   5.393   3.334   4.382 -1.9269 -1.0634 -1.1979
16504TIP3    H271004   5.362   3.473   4.434  0.7776 -1.1199  0.7760
16505TIP3   OH271005   6.678   3.656   0.236 -0.3416 -0.1914  0.4616
16505TIP3    H171006   6.714   3.662   0.148 -2.3878 -1.3476 -0.5279
16505TIP3    H271007   6.685   3.744   0.272 -3.0188  1.3268 -2.3574
16506TIP3   OH271008   0.550   6.624  11.722  0.0526  0.1916  0.1554
16506TIP3    H171009   0.480   6.594  11.665 -0.2642  0.2205  0.5243
16506TIP3    H271010   0.580   6.545  11.768  0.7549  0.0528 -0.5286
16507TIP3   OH271011   2.548   0.102   1.658  0.1389 -0.6742 -0.3084
16507TIP3    H171012   2.540   0.008   1.644 -1.5885 -0.7255  0.7663
16507TIP3    H271013   2.561   0.138   1.571  0.4763 -1.8603 -0.7715
16508TIP3   OH271014   2.588   2.143   0.791  0.3026  0.2296  0.5862
16508TIP3    H171015   2.559   2.230   0.816  1.3942  0.9067 -0.4063
16508TIP3    H271016   2.683   2.152   0.779  0.0590 -0.3277 -2.4899
16509TIP3   OH271017   5.325   0.467  14.156 -0.5621  0.0957  0.7521
16509TIP3    H171018   5.345   0.434  14.243  1.0130 -1.2531 -0.0823
16509TIP3    H271019   5.361   0.402  14.096 -2.1590  0.6751 -0.9311
16510TIP3   OH271020   4.111   4.955  15.627 -0.4432 -0.0006 -0.2212
16510TIP3    H171021   4.068   4.887  15.575  0.1751 -0.3075 -0.3387
16510TIP3    H271022   4.067   5.036  15.601  2.1886  0.4583 -4.0509
16511TIP3   OH271023   1.521   3.813  15.634  0.0065 -0.1144  0.2189
16511TIP3    H171024   1.522   3.897  15.680 -0.1643  0.2269 -0.3980
16511TIP3    H271025   1.525   3.836  15.541 -3.2384 -0.6161 -0.1760
16512TIP3   OH271026   4.207   0.080   0.751 -0.0154  0.1785  0.1233
16512TIP3    H171027   4.255   0.084   0.834 -0.3703 -0.4101  0.3646
16512TIP3    H271028   4.160   0.163   0.747 -0.9976 -0.2916  1.1431
16513TIP3   OH271029   6.705   3.631   4.150  0.3943 -0.2187  0.5180
16513TIP3    H171030   6.637   3.625   4.217  0.6864 -1.4261  0.7184
16513TIP3    H271031   6.776   3.576   4.183  1.1715  0.4263 -0.0494
16514TIP3   OH271032   3.045   0.410  10.919 -0.0591  0.1503 -0.2819
16514TIP3    H171033   2.996   0.365  10.851  1.2531 -1.4814 -0.2032
16514TIP3    H271034   3.010   0.375  11.001  0.6241 -0.3967 -0.2110
16515TIP3   OH271035   6.666   3.035  13.019 -0.7671 -0.6232  0.3574
16515TIP3    H171036   6.571   3.034  13.033 -0.5703  0.1221  1.8472
16515TIP3    H271037   6.675   3.032  12.924 -2.3835  2.6005 -0.0499
16516TIP3   OH271038   1.522   5.343   1.070  0.2155  0.1927  0.8061
16516TIP3    H171039   1.498   5.252   1.053  0.5511  0.2879 -0.2154
16516TIP3    H271040   1.587   5.338   1.140  1.0780 -0.4472 -0.0243
16517TIP3   OH271041   1.545   1.132   5.941  0.3805 -0.0395 -0.0007
16517TIP3    H171042   1.552   1.045   5.900  1.8913  0.1100 -0.1193
16517TIP3    H271043   1.537   1.193   5.867 -0.4258 -0.0356  0.0754
16518TIP3   OH271044   6.765   4.932   0.953 -0.1988 -0.5028  0.4265
16518TIP3    H171045   6.688   4.969   0.909  0.1352  1.0519  1.0559
16518TIP3    H271046   6.730   4.869   1.016 -0.7802 -1.5151 -0.8709
16519TIP3   OH271047   6.208   1.940   6.381 -0.2259 -0.1654  0.3960
16519TIP3    H171048   6.176   1.928   6.292  1.6373  0.1053 -0.3683
16519TIP3    H271049   6.249   1.857   6.404 -0.7314 -0.2485  1.0314
16520TIP3   OH271050   3.891   4.275   3.524 -0.8503  0.7437  0.1758
16520TIP3    H171051   3.973   4.226   3.526 -0.7356  0.9278  0.0305
16520TIP3    H271052   3.906   4.349   3.582 -1.9725 -0.8506  2.6783
16521TIP3   OH271053   5.677   1.427   4.947  0.5955  0.3134  0.2867
16521TIP3    H171054   5.642   1.507   4.986  3.1001  1.7821 -0.2730
16521TIP3    H271055   5.662   1.437   4.853  1.6541  0.5604  0.1288
16522TIP3   OH271056   4.126   6.213   0.966 -0.7452 -0.4957 -0.5623
16522TIP3    H171057   4.076   6.259   0.899 -1.1121 -0.8975 -0.5724
16522TIP3    H271058   4.196   6.274   0.991 -1.0504 -0.0555 -0.7767
16523TIP3   OH271059   2.897   5.520  13.432  0.2742  0.0668 -0.5315
16523TIP3    H171060   2.850   5.558  13.506 -0.2513 -0.3183 -0.6563
16523TIP3    H271061   2.986   5.554  13.439  0.0899  0.4496 -0.0275
16524TIP3   OH271062   2.940   6.284  13.869 -0.4263 -0.2023  0.6491
16524TIP3    H171063   2.924   6.205  13.921 -0.1600  0.9449  2.5839
16524TIP3    H271064   3.028   6.272  13.834  0.0875 -0.2724  1.9104
16525TIP3   OH271065   0.032   2.286   5.879  0.0607 -0.0732 -0.2093
16525TIP3    H171066   0.032   2.347   5.953  0.8960 -2.2376  1.7075
16525TIP3    H271067   0.121   2.289   5.845  0.0813 -0.1765 -0.1639
16526TIP3   OH271068   2.070   6.268  11.255 -0.0248 -0.3738 -0.1896
16526TIP3    H171069   2.131   6.237  11.188 -0.0971 -0.0277 -0.4193
16526TIP3    H271070   1.993   6.297  11.206  0.9278  2.4378 -0.2518
16527TIP3   OH271071   3.514   2.586   3.096 -0.4242  0.5070  0.2378
16527TIP3    H171072   3.539   2.671   3.060 -0.2463  0.6865  0.7828
16527TIP3    H271073   3.506   2.600   3.190  1.6784 -0.5396  0.6398
16528TIP3   OH271074   1.250   6.191  13.311  0.2937  0.1255  0.3532
16528TIP3    H171075   1.324   6.241  13.276 -0.3734  0.4906 -0.5705
16528TIP3    H271076   1.252   6.109  13.263 -0.4834  0.5358 -0.4212
16529TIP3   OH271077   5.649   6.522   0.613 -0.9532 -0.4300  0.9733
16529TIP3    H171078   5.724   6.481   0.572 -1.4532 -1.1407  0.7392
16529TIP3    H271079   5.581   6.521   0.546 -1.0720  0.5209  1.0644
16530TIP3   OH271080   0.913   6.116  12.551 -1.4403  0.4530  0.1726
16530TIP3    H171081   0.938   6.097  12.641 -0.7233 -0.4105 -0.1920
16530TIP3    H271082   0.861   6.041  12.523 -0.4781  0.0254 -0.5610
16531TIP3   OH271083   0.830   5.512  15.659  0.0944  0.4780  0.0424
16531TIP3    H171084   0.810   5.469  15.576  0.1555 -0.4007  0.4803
16531TIP3    H271085   0.924   5.503  15.670  0.2356  1.4440 -0.2499
16532TIP3   OH271086   5.589   0.985   4.987  0.0033 -0.7130  0.2111
16532TIP3    H171087   5.644   0.926   5.039 -1.2894 -1.3240  0.9371
16532TIP3    H271088   5.646   1.015   4.916  1.3074 -1.2000  1.0094
16533TIP3   OH271089   4.444   4.274   2.318  0.2609  0.2545 -0.2289
16533TIP3    H171090   4.393   4.208   2.271  0.7682 -0.1472 -0.2233
16533TIP3    H271091   4.391   4.295   2.395 -0.4246  0.6817 -0.8067
16534TIP3   OH271092   1.307   3.134  11.310 -0.3255  0.5924  0.3834
16534TIP3    H171093   1.271   3.149  11.222 -2.6019 -0.1543  1.1221
16534TIP3    H271094   1.244   3.075  11.352  1.7303 -0.6774  1.8717
16535TIP3   OH271095   0.314   0.669   4.493  0.4299 -0.7984 -0.2672
16535TIP3    H171096   0.241   0.615   4.521  1.4079 -1.8212  0.4032
16535TIP3    H271097   0.386   0.645   4.551  0.8391  1.4732  0.2762
16536TIP3   OH271098   5.324   0.724   5.601  0.0108  0.4759  0.3640
16536TIP3    H171099   5.329   0.793   5.667 -1.2997 -0.6379  1.7129
16536TIP3    H271100   5.240   0.738   5.558  0.3544  0.5326 -0.2918
16537TIP3   OH271101   3.740   4.202  12.568 -0.0342 -0.5987 -0.3908
16537TIP3    H171102   3.832   4.196  12.542 -0.2476 -0.2673 -1.2937
16537TIP3    H271103   3.718   4.115  12.599  0.9087 -0.3667  1.0060
16538TIP3   OH271104   1.257   4.114  17.289  0.6192 -0.5526 -0.1947
16538TIP3    H171105   1.272   4.207  17.306  0.2440 -0.0971 -2.1422
16538TIP3    H271106   1.162   4.104  17.286  0.6597 -0.9402 -0.2876
16539TIP3   OH271107   0.333   5.683   0.162  0.1995 -0.6616  0.5176
16539TIP3    H171108   0.392   5.742   0.115 -0.4702 -0.2371  0.1824
16539TIP3    H271109   0.389   5.615   0.197  1.2471  1.0177  2.2863
16540TIP3   OH271110   5.073   3.002  11.177  0.4730 -0.4679 -0.3698
16540TIP3    H171111   5.048   3.073  11.236 -0.1511  1.7892 -3.1647
16540TIP3    H271112   5.041   2.923  11.221 -0.1572  1.0709  2.1657
16541TIP3   OH271113   5.562   3.419  13.660 -0.1241 -0.0161  0.2292
16541TIP3    H171114   5.487   3.399  13.605 -0.4430 -1.4519  1.1372
16541TIP3    H271115   5.607   3.490  13.614 -2.1485  1.0682 -0.2108
16542TIP3   OH271116   3.621   6.098   5.227  0.1361  0.4963 -0.7210
16542TIP3    H171117   3.647   6.104   5.135  0.4270  0.4130 -0.6431
16542TIP3    H271118   3.635   6.006   5.250  1.5545  0.8233 -0.1512
16543TIP3   OH271119   1.406   4.058   2.289  0.7240  0.0940 -0.6749
16543TIP3    H171120   1.346   4.020   2.353  0.8703  0.0813 -0.5437
16543TIP3    H271121   1.433   4.141   2.327  0.8376  0.0714 -0.7038
16544TIP3   OH271122   4.971   3.247   2.902 -0.1462 -0.0129 -0.9099
16544TIP3    H171123   4.958   3.217   2.992  1.6163  1.6377 -0.0176
16544TIP3    H271124   5.027   3.179   2.862 -0.1290 -0.2706 -0.4540
16545TIP3   OH271125   0.544   0.965  10.555 -0.5247  0.5885 -0.4411
16545TIP3    H171126   0.480   0.896  10.539  0.7345 -0.5113 -0.8857
16545TIP3    H271127   0.519   1.036  10.496 -2.0572  0.7062  0.2991
16546TIP3   OH271128   2.687   6.540  14.754  0.3013  0.0977 -0.3291
16546TIP3    H171129   2.753   6.553  14.822 -0.8781  0.8742  0.7210
16546TIP3    H271130   2.625   6.612  14.767 -3.0349 -2.8370  1.4596
16547TIP3   OH271131   2.496   2.999  17.030  0.0391  0.1759 -0.1933
16547TIP3    H171132   2.536   3.072  17.078  4.2301 -1.9252 -0.0759
16547TIP3    H271133   2.546   2.994  16.949  0.0456 -2.6593 -0.0926
16548TIP3   OH271134   1.548   3.497   4.630  0.3391  0.1947 -0.1276
16548TIP3    H171135   1.585   3.479   4.716  2.1171  2.2991 -0.3333
16548TIP3    H271136   1.543   3.593   4.626  0.4851  0.1703 -2.4026
16549TIP3   OH271137   0.884   2.120  15.180 -0.2029  0.2903 -0.9466
16549TIP3    H171138   0.881   2.211  15.149  0.6450  0.3865 -0.7680
16549TIP3    H271139   0.853   2.068  15.106 -0.4871  0.7065 -1.1242
16550TIP3   OH271140   6.022   1.770  17.228 -0.5906  0.1053 -0.8389
16550TIP3    H171141   6.097   1.772  17.170 -0.2209  2.4146 -0.3958
16550TIP3    H271142   5.985   1.683  17.218  2.0678 -1.0677 -1.1420
16551TIP3   OH271143   5.156   5.449   0.013 -0.5662  0.5475  0.4003
16551TIP3    H171144   5.127   5.531   0.053 -0.3461  1.7209 -1.7169
16551TIP3    H271145   5.150   5.385   0.084 -2.3513  2.0179  1.6835
16552TIP3   OH271146   2.521   3.630  16.422  0.5461 -0.3332 -0.0573
16552TIP3    H171147   2.604   3.598  16.387  0.4776  1.2950 -1.8704
16552TIP3    H271148   2.540   3.719  16.452 -0.1588 -0.5874  1.2369
16553TIP3   OH271149   6.071   4.828  16.331 -0.7940  0.6907  0.1385
16553TIP3    H171150   6.115   4.853  16.250  0.9750  1.5619  1.3061
16553TIP3    H271151   6.089   4.734  16.341 -0.0606  0.8263  0.0916
16554TIP3   OH271152   1.621   6.764  14.551 -0.0891  0.2203  0.2053
16554TIP3    H171153   1.650   6.773  14.642  0.6110  1.5658 -0.1188
16554TIP3    H271154   1.536   6.808  14.549 -1.0673 -1.5373  0.6042
16555TIP3   OH271155   2.661   2.219  15.108 -0.2007 -0.2273  0.9650
16555TIP3    H171156   2.753   2.228  15.133  0.5426 -1.2322 -1.1873
16555TIP3    H271157   2.638   2.129  15.134 -0.0215 -0.5870 -0.0913
16556TIP3   OH271158   4.105   0.330   5.050 -0.0083 -0.5975  0.0115
16556TIP3    H171159   4.109   0.314   5.145  0.9083 -0.3310  0.0269
16556TIP3    H271160   4.186   0.377   5.030  0.6060 -2.0984 -1.1848
16557TIP3   OH271161   0.699   4.688   0.996  0.2628 -0.3327 -0.4204
16557TIP3    H171162   0.632   4.754   1.012  1.4931  1.1729 -1.1960
16557TIP3    H271163   0.652   4.615   0.956 -1.1708 -0.0446  0.6863
16558TIP3   OH271164   3.942   4.400  14.625 -0.4966 -0.0968 -0.2405
16558TIP3    H171165   3.983   4.356  14.550  0.8048 -0.4682  0.6556
16558TIP3    H271166   3.996   4.374  14.700 -1.3651  0.8189  0.7213
16559TIP3   OH271167   0.068   2.397   3.424  0.0228  0.1423 -0.4905
16559TIP3    H171168   0.021   2.377   3.505 -0.6443 -1.6569 -1.2625
16559TIP3    H271169  -0.002   2.415   3.360  0.4786  0.1529 -0.9955
16560TIP3   OH271170   6.807   6.099  14.594  0.3576 -0.1873 -0.0801
16560TIP3    H171171   6.812   6.147  14.511 -0.5170  0.2271  0.1010
16560TIP3    H271172   6.816   6.167  14.661 -0.7316 -0.2839  0.1780
16561TIP3   OH271173   3.063   1.062   4.489 -0.2429 -0.0920 -0.2589
16561TIP3    H171174   3.059   1.112   4.571 -2.2792 -0.7527  0.0929
16561TIP3    H271175   3.144   1.011   4.496  0.6996  1.4051  0.3793
16562TIP3   OH271176   4.165   6.010  16.089 -0.3476 -0.0926 -0.1048
16562TIP3    H171177   4.217   5.957  16.149  0.6164 -0.6772 -1.4139
16562TIP3    H271178   4.227   6.075  16.055 -0.9149  0.3001 -0.4009
16563TIP3   OH271179   2.309   2.381  14.533  0.6198  0.0810 -0.0697
16563TIP3    H171180   2.404   2.372  14.543  0.6523  0.6221  0.1414
16563TIP3    H271181   2.299   2.428  14.450  0.6986  3.0600  1.4655
16564TIP3   OH271182   1.580   5.025   6.594 -0.1956 -0.4101  0.2873
16564TIP3    H171183   1.558   5.107   6.639  1.7146  0.2766  0.0684
16564TIP3    H271184   1.558   4.957   6.657 -1.7207  0.2587  0.5218
16565TIP3   OH271185   6.581   4.788  13.585  0.4022 -0.0937 -0.1466
16565TIP3    H171186   6.620   4.735  13.516 -0.0943  0.6439 -1.0087
16565TIP3    H271187   6.488   4.762  13.585  0.3598  0.0556  0.1030
16566TIP3   OH271188   3.047   5.617   3.231 -0.1724 -0.3798  0.4423
16566TIP3    H171189   3.013   5.707   3.228 -1.3538 -0.8083  0.5092
16566TIP3    H271190   3.117   5.620   3.297  1.3565  0.9824 -1.1380
16567TIP3   OH271191   3.105   4.600   1.270 -0.1315 -0.4732 -0.0921
16567TIP3    H171192   3.104   4.658   1.194  0.1665 -0.4013 -0.0390
16567TIP3    H271193   3.150   4.521   1.240  1.3331  0.1378  0.4431
16568TIP3   OH271194   0.943   1.887   6.738  0.4232  0.1374 -0.1335
16568TIP3    H171195   0.907   1.798   6.741  1.5720 -0.4431 -1.9770
16568TIP3    H271196   1.026   1.880   6.785  0.4588  0.2603 -0.1787
16569TIP3   OH271197   2.778   2.920   5.129 -0.3109 -0.2401 -0.5278
16569TIP3    H171198   2.709   2.978   5.163 -0.5202 -1.1029  0.5816
16569TIP3    H271199   2.733   2.838   5.111  0.3954 -0.7780  0.1114
16570TIP3   OH271200   3.369   0.612   2.472  0.0139 -0.0619  0.0979
16570TIP3    H171201   3.318   0.542   2.513 -0.6316  0.4040  0.1081
16570TIP3    H271202   3.459   0.580   2.472 -0.1608 -0.5759  0.7870
16571TIP3   OH271203   1.182   5.428   5.589 -0.2201 -0.5359 -0.3733
16571TIP3    H171204   1.229   5.459   5.512 -0.7700  0.4623 -0.3345
16571TIP3    H271205   1.103   5.482   5.592 -0.2580 -0.6184  0.8239
16572TIP3   OH271206   3.285   5.832   5.485  0.1892 -0.0213  0.0270
16572TIP3    H171207   3.242   5.799   5.564 -0.2901 -1.3093 -0.7393
16572TIP3    H271208   3.299   5.754   5.431 -0.0087  0.9006 -1.4104
16573TIP3   OH271209   1.963   2.760   4.911  0.1486 -0.3927  0.1405
16573TIP3    H171210   2.056   2.737   4.911  0.2725  0.0453 -0.6942
16573TIP3    H271211   1.942   2.780   5.002  1.6652  2.5526 -0.0224
16574TIP3   OH271212   4.489   3.471  15.113 -0.1020 -0.8554  0.7828
16574TIP3    H171213   4.572   3.429  15.088 -0.0576 -0.5219  0.3394
16574TIP3    H271214   4.449   3.495  15.029  0.3784  0.9306  1.0197
16575TIP3   OH271215   1.751   2.683   6.106  0.0527  0.5836  0.7179
16575TIP3    H171216   1.813   2.708   6.175  0.8051  1.3125 -0.1819
16575TIP3    H271217   1.752   2.758   6.045 -0.7415  0.0484  0.0292
16576TIP3   OH271218   6.708   2.149  14.514  0.1898 -0.3591 -0.9070
16576TIP3    H171219   6.729   2.221  14.573  1.9492 -2.1409  0.7712
16576TIP3    H271220   6.735   2.179  14.428  0.4899  1.1179 -0.3156
16577TIP3   OH271221   5.263   0.587  15.123 -0.3557 -0.1168  0.5040
16577TIP3    H171222   5.323   0.661  15.110 -0.0660 -0.2143  1.2310
16577TIP3    H271223   5.217   0.579  15.040 -0.1060  0.6311  0.2829
16578TIP3   OH271224   2.860   0.769   0.276  0.2678  0.1772  0.3183
16578TIP3    H171225   2.827   0.712   0.345 -0.6544 -0.3973 -0.5732
16578TIP3    H271226   2.782   0.801   0.230  0.7748  1.8579  0.5400
16579TIP3   OH271227   4.443   6.170  15.635 -0.2832 -0.3095 -0.4943
16579TIP3    H171228   4.385   6.105  15.674 -0.1894  0.8761  1.7316
16579TIP3    H271229   4.384   6.238  15.602 -0.2842 -0.6539 -1.2362
16580TIP3   OH271230   1.006   4.706   6.102 -0.6952  0.0915 -0.0616
16580TIP3    H171231   0.948   4.781   6.087 -0.5172  0.2841  0.2175
16580TIP3    H271232   1.073   4.739   6.162 -1.0867 -0.5201  0.7206
16581TIP3   OH271233   2.123   4.918  16.907  0.5687 -0.2011  0.1503
16581TIP3    H171234   2.063   4.869  16.851 -0.3982  0.6667  0.4123
16581TIP3    H271235   2.208   4.878  16.890 -0.0470 -1.3723 -0.3236
16582TIP3   OH271236   5.657   0.951   0.487 -0.1695  0.3188  0.5448
16582TIP3    H171237   5.659   1.046   0.475 -3.5443  0.4292  0.0157
16582TIP3    H271238   5.722   0.918   0.425  0.2605  2.2237 -0.0994
16583TIP3   OH271239   1.896   1.801   0.792 -0.1818  0.0925  0.0927
16583TIP3    H171240   1.913   1.830   0.882 -2.0549  0.0019  0.5021
16583TIP3    H271241   1.866   1.880   0.746  1.6682  0.3690 -0.7663
16584TIP3   OH271242   1.673   0.258   5.592 -0.8781 -0.0613  0.3920
16584TIP3    H171243   1.692   0.271   5.500 -0.2790 -0.1590  0.5005
16584TIP3    H271244   1.757   0.238   5.632 -0.9517  1.0628  1.1519
16585TIP3   OH271245   5.605   3.895  13.117 -0.1946  0.6570 -0.4113
16585TIP3    H171246   5.679   3.885  13.177 -0.8017 -0.3472  0.1934
16585TIP3    H271247   5.535   3.843  13.156 -0.5879 -0.0746 -2.0275
16586TIP3   OH271248   6.311   3.351   2.133 -0.3049 -0.5365  0.1189
16586TIP3    H171249   6.305   3.447   2.134  1.2756 -0.3924 -0.6296
16586TIP3    H271250   6.221   3.321   2.121 -0.5843  0.9209 -1.9153
16587TIP3   OH271251   2.155   1.735   2.926 -0.3815  0.2034  0.3983
16587TIP3    H171252   2.114   1.655   2.893 -0.9362  0.2385  0.9773
16587TIP3    H271253   2.112   1.751   3.011  0.3420  0.6290  0.6959
16588TIP3   OH271254   4.966   6.285  16.538  0.2123 -0.8289 -0.2450
16588TIP3    H171255   4.884   6.322  16.507  1.5592  0.9327 -1.9281
16588TIP3    H271256   4.972   6.315  16.629 -0.1006  0.7681 -0.7091
16589TIP3   OH271257   4.030   3.941  14.790 -0.4113 -0.1627 -0.7757
16589TIP3    H171258   4.081   4.008  14.836  1.2679 -2.1439  0.3924
16589TIP3    H271259   3.945   3.941  14.835 -0.2934  0.8563 -0.5165
16590TIP3   OH271260   5.110   6.699  15.762  0.5303 -0.5860  0.1012
16590TIP3    H171261   5.129   6.743  15.845  1.5914 -0.3064 -0.2675
16590TIP3    H271262   5.051   6.628  15.785 -0.1030  0.1889  0.9219
16591TIP3   OH271263   6.202   1.451   3.175 -0.3624 -0.3180 -0.3089
16591TIP3    H171264   6.116   1.443   3.217  0.2031 -2.3781  0.5379
16591TIP3    H271265   6.190   1.411   3.089 -0.4528  0.1921 -0.5400
16592TIP3   OH271266   3.956   5.473   4.372 -0.6733  0.4704 -0.0829
16592TIP3    H171267   3.971   5.465   4.466  0.4331  2.1384 -0.0736
16592TIP3    H271268   3.863   5.451   4.360 -0.5446 -0.9491  1.1978
16593TIP3   OH271269   1.632   6.157   0.925 -0.4008 -0.0972 -0.4245
16593TIP3    H171270   1.556   6.133   0.978 -0.0825  0.0858  0.1227
16593TIP3    H271271   1.667   6.235   0.968  1.1066 -1.1713  0.3351
16594TIP3   OH271272   2.044   5.933   1.401  0.5251  0.3554 -0.3092
16594TIP3    H171273   1.982   5.949   1.330 -0.1427  1.2256  0.4405
16594TIP3    H271274   1.990   5.901   1.473  1.0202  0.6243  0.1874
16595TIP3   OH271275   3.231   1.341   4.053  0.1056 -0.0512  0.0448
16595TIP3    H171276   3.211   1.337   3.959 -1.8366  1.1267  0.3620
16595TIP3    H271277   3.324   1.360   4.057 -0.1658  1.9292 -1.6971
16596TIP3   OH271278   2.266   0.465   5.590 -0.2761  0.6322 -0.2162
16596TIP3    H171279   2.316   0.488   5.512  0.0807 -0.8596 -0.4578
16596TIP3    H271280   2.247   0.372   5.579 -1.2232  0.6693  0.9314
16597TIP3   OH271281   4.243   3.741  15.610 -0.1317  1.1611  0.9801
16597TIP3    H171282   4.304   3.804  15.648  2.3920 -0.6401  0.1901
16597TIP3    H271283   4.178   3.726  15.678  3.1209 -0.5273  4.0364
16598TIP3   OH271284   3.952   0.108   3.044 -0.0025 -0.6492 -0.2031
16598TIP3    H171285   3.931   0.172   2.977  0.3392  1.6856  1.7641
16598TIP3    H271286   3.882   0.044   3.040 -2.5598  1.9393  0.1680
16599TIP3   OH271287   3.803   5.684   0.572 -0.0874  0.3085 -0.2298
16599TIP3    H171288   3.820   5.747   0.642  1.4274 -0.3275  0.0029
16599TIP3    H271289   3.737   5.625   0.607  0.3524  0.2508  0.5080
16600TIP3   OH271290   3.093   2.036  11.174 -0.1625  0.1564 -0.2866
16600TIP3    H171291   3.058   1.981  11.104  1.7258 -0.5981 -0.6838
16600TIP3    H271292   3.170   1.989  11.206 -0.6832  0.7098  1.9985
16601TIP3   OH271293   2.027   3.588   5.139 -0.4093 -0.1251  0.1805
16601TIP3    H171294   1.944   3.541   5.137  0.1629 -1.1564 -1.4496
16601TIP3    H271295   2.080   3.546   5.071  0.9261  1.4570  0.1807
16602TIP3   OH271296   0.430   6.365   1.162  0.0048  0.0914  0.5535
16602TIP3    H171297   0.378   6.438   1.128 -0.3269 -0.0545  0.7427
16602TIP3    H271298   0.493   6.407   1.222  0.6473  0.3559 -0.2930
16603TIP3   OH271299   5.533   2.736  13.172 -0.0394 -0.7171  0.8067
16603TIP3    H171300   5.591   2.673  13.214 -1.3690 -3.0133 -0.5664
16603TIP3    H271301   5.566   2.744  13.082 -0.9715 -0.9134  0.4327
16604TIP3   OH271302   0.121   2.363  12.794  0.6460 -0.6639  0.1527
16604TIP3    H171303   0.205   2.390  12.757  0.5667 -1.7034 -0.8297
16604TIP3    H271304   0.058   2.379  12.725  0.4577 -2.3974 -0.1142
16605TIP3   OH271305   0.015   0.124  10.526  0.4608 -0.0876  0.3078
16605TIP3    H171306   0.056   0.206  10.556  2.0090 -0.3495 -0.9351
16605TIP3    H271307  -0.072   0.150  10.497  1.1264  1.2556 -0.5814
16606TIP3   OH271308   1.584   0.378  11.172  0.1981 -0.6163 -0.5976
16606TIP3    H171309   1.569   0.416  11.085 -0.1250  1.0057  0.1341
16606TIP3    H271310   1.574   0.283  11.158 -0.0918 -0.3808 -2.2735
16607TIP3   OH271311   6.690   0.914  14.420  0.1334  0.3014  0.7305
16607TIP3    H171312   6.614   0.891  14.366  1.0612  0.0025 -0.4801
16607TIP3    H271313   6.748   0.961  14.361  0.6692  1.0031  1.7868
16608TIP3   OH271314   0.961   1.616  16.975 -0.1119 -0.0541  0.1537
16608TIP3    H171315   0.912   1.565  16.910  1.9247 -0.5117 -1.1253
16608TIP3    H271316   0.922   1.591  17.059 -0.5916 -2.1323 -0.6131
16609TIP3   OH271317   3.540   4.923  13.240 -0.0077  0.0051  0.6006
16609TIP3    H171318   3.499   4.961  13.318 -0.9401 -1.8586  1.0747
16609TIP3    H271319   3.470   4.919  13.175  0.0103 -1.0612  0.6319
16610TIP3   OH271320   2.880   3.996   2.958 -0.3586  0.2653  0.1701
16610TIP3    H171321   2.790   3.980   2.984 -0.4127  1.6853  0.9683
16610TIP3    H271322   2.928   4.008   3.040  0.0018  2.1563 -0.2517
16611TIP3   OH271323   1.820   0.471   3.358 -0.1902  0.1763 -0.1003
16611TIP3    H171324   1.876   0.406   3.401  0.8164  1.1994  0.1740
16611TIP3    H271325   1.802   0.433   3.272 -1.4097 -1.4370  0.8144
16612TIP3   OH271326   3.960   2.554  16.285 -0.2980 -0.4900  0.1859
16612TIP3    H171327   3.922   2.625  16.338 -2.7226 -0.4692 -1.4428
16612TIP3    H271328   3.886   2.520  16.235  1.8680 -0.1938 -3.5322
16613TIP3   OH271329   4.935   1.343  13.197  0.0765  0.5305  0.2061
16613TIP3    H171330   4.937   1.362  13.290 -1.5857 -0.8022  0.5624
16613TIP3    H271331   5.022   1.366  13.166  0.4258  1.6851  1.9336
16614TIP3   OH271332   0.283   2.865   2.685  0.6857  0.0275  0.1809
16614TIP3    H171333   0.361   2.916   2.665 -0.4695  1.1034 -2.1013
16614TIP3    H271334   0.246   2.907   2.763  1.2563  0.8920  0.0018
16615TIP3   OH271335   1.947   6.158   5.039  0.2230  0.0385 -0.2518
16615TIP3    H171336   1.864   6.133   4.998  0.6846 -1.0140 -0.5880
16615TIP3    H271337   2.014   6.128   4.977  0.8986 -0.5302  0.7310
16616TIP3   OH271338   3.754   1.325   3.298  0.1627  0.0234 -0.0300
16616TIP3    H171339   3.762   1.412   3.339 -0.0271 -0.0657  0.2009
16616TIP3    H271340   3.659   1.312   3.289  0.1497 -0.6045  0.8975
16617TIP3   OH271341   0.958   0.993   6.631 -0.3378  0.6692  0.9277
16617TIP3    H171342   0.966   1.043   6.550 -0.3520  0.2424  0.6601
16617TIP3    H271343   0.923   1.055   6.694 -0.0266  1.0912  0.6877
16618TIP3   OH271344   0.080   0.173  11.616  0.1272  0.0264 -0.1538
16618TIP3    H171345   0.106   0.265  11.620 -0.6632  0.2807 -0.6829
16618TIP3    H271346   0.162   0.125  11.605  0.6308  0.5938  0.9812
16619TIP3   OH271347   5.524   2.312  17.233  0.1006 -0.7717 -0.3182
16619TIP3    H171348   5.616   2.286  17.241  0.1904 -0.4915 -0.4535
16619TIP3    H271349   5.475   2.234  17.261  0.3882 -0.5932  0.7400
16620TIP3   OH271350   3.173   4.441  13.139  0.2204  0.2359 -0.1555
16620TIP3    H171351   3.162   4.536  13.145  0.9430  0.4622 -1.7577
16620TIP3    H271352   3.204   4.415  13.226 -2.0913  1.1079  1.0188
16621TIP3   OH271353   1.232   4.486   1.195 -0.5056 -0.0994 -0.1984
16621TIP3    H171354   1.293   4.469   1.266  1.1666 -1.1677 -1.7980
16621TIP3    H271355   1.202   4.400   1.167 -0.6706  0.2557 -1.1674
16622TIP3   OH271356   3.895   6.052  14.636 -0.4501 -0.4676  0.4020
16622TIP3    H171357   3.852   6.119  14.688 -0.2329  0.2398 -0.3117
16622TIP3    H271358   3.906   6.092  14.550 -1.4015 -1.8340 -0.4017
16623TIP3   OH271359   5.836   5.383  12.835  0.3463  0.1072  0.2349
16623TIP3    H171360   5.857   5.344  12.750  0.8124  1.9116 -0.5283
16623TIP3    H271361   5.741   5.389  12.836  0.2757 -0.9118  0.3205
16624TIP3   OH271362   0.292   4.594  16.109 -0.4569  0.5164  0.3018
16624TIP3    H171363   0.356   4.532  16.073 -0.5204  0.9952 -0.6694
16624TIP3    H271364   0.319   4.606  16.200  1.0933  1.0213 -0.1917
16625TIP3   OH271365   2.242   6.577  13.166 -0.2981  0.7194 -0.3681
16625TIP3    H171366   2.301   6.652  13.172 -0.4068  1.0430 -2.6780
16625TIP3    H271367   2.293   6.510  13.120 -0.0993 -0.7969  1.8982
16626TIP3   OH271368   0.674   4.630   2.775  0.2629 -0.2312 -0.0985
16626TIP3    H171369   0.747   4.632   2.713  2.2414 -1.5391  2.0477
16626TIP3    H271370   0.660   4.722   2.798 -0.2297  0.2390 -2.0620
16627TIP3   OH271371   6.248   2.091  15.406  0.1969 -0.2329  0.2671
16627TIP3    H171372   6.329   2.039  15.406  0.9674  0.8786 -1.0269
16627TIP3    H271373   6.263   2.159  15.472 -1.6009 -2.6404  3.4347
16628TIP3   OH271374   4.961   4.086  14.349  0.0454  0.2160 -0.4459
16628TIP3    H171375   4.992   4.025  14.282  0.7788  0.2345 -0.1312
16628TIP3    H271376   4.957   4.171  14.304  3.2479  0.8495  0.1395
16629TIP3   OH271377   1.416   6.704  13.197  0.6217 -0.1496 -0.2617
16629TIP3    H171378   1.385   6.770  13.258 -0.1292 -0.3695 -0.3855
16629TIP3    H271379   1.507   6.688  13.221  0.5571  0.3204  0.2981
16630TIP3   OH271380   5.022   0.532   0.828 -0.8822 -0.0689 -0.1050
16630TIP3    H171381   4.931   0.556   0.812 -0.9295 -0.7767 -0.9699
16630TIP3    H271382   5.055   0.503   0.743  0.6369  1.6853 -0.1823
16631TIP3   OH271383   1.472   1.996  15.792  0.1362 -0.1533 -0.6243
16631TIP3    H171384   1.563   1.970  15.811 -0.2180 -1.2085 -0.3164
16631TIP3    H271385   1.427   1.989  15.877 -0.7092 -1.6917 -1.1724
16632TIP3   OH271386   5.095   6.544   1.878  0.0942 -0.1350  0.0950
16632TIP3    H171387   5.126   6.460   1.843  0.7558 -0.3767  1.2182
16632TIP3    H271388   5.157   6.565   1.948  0.4451  1.7178 -0.7168
16633TIP3   OH271389   1.624   3.959  14.238  0.1681  0.4453  0.1010
16633TIP3    H171390   1.587   3.913  14.162  1.0319 -0.5863  0.2815
16633TIP3    H271391   1.668   3.890  14.288 -0.5250  1.0738  1.6363
16634TIP3   OH271392   2.487   1.435  16.307 -0.3834 -0.2433 -0.3436
16634TIP3    H171393   2.460   1.413  16.218  2.5496 -0.9535 -1.1494
16634TIP3    H271394   2.489   1.351  16.353  0.7627 -0.2872 -0.4421
16635TIP3   OH271395   5.936   3.997   6.074  0.4800 -0.7634 -0.0650
16635TIP3    H171396   6.007   3.932   6.075 -0.2576 -1.6824  3.1946
16635TIP3    H271397   5.981   4.081   6.067  2.0918 -1.2595  2.8323
16636TIP3   OH271398   5.992   3.690  13.202 -0.3746 -0.1596  0.4080
16636TIP3    H171399   5.932   3.645  13.143 -2.1977  2.0654  0.4194
16636TIP3    H271400   6.078   3.678  13.162 -1.0616 -1.7354 -0.7115
16637TIP3   OH271401   4.755   1.643   5.840  0.7389  0.3900  0.3663
16637TIP3    H171402   4.716   1.682   5.761  0.2242  2.6559  1.6443
16637TIP3    H271403   4.794   1.717   5.887  0.0284 -0.6641  2.7921
16638TIP3   OH271404   1.922   3.778  13.687  0.0916  0.3450 -0.2872
16638TIP3    H171405   1.910   3.857  13.635 -1.9670  0.5784  0.4429
16638TIP3    H271406   1.963   3.715  13.626  0.5252  1.5315 -1.2628
16639TIP3   OH271407   3.632   3.439   1.481 -0.2016  0.4500  0.5651
16639TIP3    H171408   3.665   3.350   1.475 -1.5063  0.0220 -0.6889
16639TIP3    H271409   3.699   3.493   1.438  0.1435 -0.0421  0.4820
16640TIP3   OH271410   6.748   1.355   4.359 -0.0795 -0.2998 -0.0264
16640TIP3    H171411   6.819   1.373   4.420 -0.5720 -1.3979  0.8941
16640TIP3    H271412   6.676   1.325   4.414 -0.5974 -1.1462 -1.1286
16641TIP3   OH271413   6.207   4.279  12.037  0.4571 -0.3989  0.1508
16641TIP3    H171414   6.259   4.262  11.959  0.3464 -0.3450  0.0649
16641TIP3    H271415   6.247   4.356  12.077  0.9631 -0.8606  0.5441
16642TIP3   OH271416   3.318   5.326   1.593 -0.8335  0.2578 -0.1900
16642TIP3    H171417   3.278   5.282   1.669 -2.2079  0.6118 -0.6769
16642TIP3    H271418   3.392   5.374   1.629 -0.7458 -0.5392  0.7329
16643TIP3   OH271419   3.232   3.199   1.637 -0.3464  0.1865  0.2567
16643TIP3    H171420   3.142   3.167   1.636  0.0477 -0.9568  0.1348
16643TIP3    H271421   3.285   3.124   1.666  0.5330  0.9283  0.6246
16644TIP3   OH271422   4.846   1.162   3.999 -0.3670  0.6374 -0.6614
16644TIP3    H171423   4.926   1.212   3.977  0.0172  0.0464 -0.6233
16644TIP3    H271424   4.853   1.082   3.947  0.3120 -0.5695  1.2020
16645TIP3   OH271425   4.530   2.701   6.538  0.2192 -0.1592  0.1536
16645TIP3    H171426   4.515   2.612   6.569 -2.7163 -0.3164 -1.4102
16645TIP3    H271427   4.563   2.691   6.449 -0.2729  0.3054 -0.0853
16646TIP3   OH271428   6.077   4.764   4.901 -0.0537 -0.6009 -0.3331
16646TIP3    H171429   6.020   4.689   4.885 -1.0966 -0.0095  0.4315
16646TIP3    H271430   6.055   4.825   4.830 -1.2381  0.0924  0.5961
16647TIP3   OH271431   1.612   3.292  16.043  0.0455 -0.3657 -0.6454
16647TIP3    H171432   1.692   3.244  16.068 -0.0956 -1.4358 -2.1032
16647TIP3    H271433   1.594   3.349  16.117  1.2791 -1.2564  0.3827
16648TIP3   OH271434   4.499   3.700  12.349  0.4393 -0.6493  0.0555
16648TIP3    H171435   4.508   3.754  12.270 -2.0842 -1.0371 -0.6122
16648TIP3    H271436   4.404   3.692  12.361  0.7614 -1.2960  2.6827
16649TIP3   OH271437   4.942   5.502  16.969 -0.0894 -0.3902 -0.2858
16649TIP3    H171438   4.977   5.423  17.009  1.6337 -0.2295 -1.3758
16649TIP3    H271439   4.981   5.574  17.020 -1.1836 -0.2086  0.3305
16650TIP3   OH271440   1.764   3.486   5.208  0.3731  0.4678  0.6576
16650TIP3    H171441   1.786   3.461   5.297  0.6994  2.8534  1.3285
16650TIP3    H271442   1.765   3.582   5.209  0.7567  0.5751 -2.0104
16651TIP3   OH271443   2.624   2.334   1.829 -0.4662  0.2351 -0.5914
16651TIP3    H171444   2.674   2.416   1.829 -2.4226  1.5235  0.7698
16651TIP3    H271445   2.685   2.269   1.862  1.0395  1.1844 -1.3570
16652TIP3   OH271446   5.082   5.967   4.095  0.1109 -0.1395  0.4654
16652TIP3    H171447   5.105   5.913   4.170  1.4942 -1.1223 -0.6072
16652TIP3    H271448   5.100   6.057   4.123  0.7263 -0.5005  1.2550
16653TIP3   OH271449   5.498   6.010  14.382  0.0573 -0.2945 -0.3846
16653TIP3    H171450   5.443   6.088  14.388 -0.7625 -0.9612  1.5567
16653TIP3    H271451   5.580   6.041  14.343  0.1483  1.7568  1.2878
16654TIP3   OH271452   3.133   6.558  11.821 -0.1734  0.4256 -0.4886
16654TIP3    H171453   3.136   6.601  11.735  0.1266  2.1700  0.3425
16654TIP3    H271454   3.223   6.563  11.854 -0.0566 -1.1818 -0.4775
16655TIP3   OH271455   6.055   4.738  13.579  0.1618 -0.7827  0.0317
16655TIP3    H171456   6.043   4.792  13.657  0.9163 -0.1280 -0.2909
16655TIP3    H271457   5.990   4.668  13.588 -3.0218  1.7750 -1.0017
16656TIP3   OH271458   2.776   5.320  11.827  0.1404 -0.2022  0.0994
16656TIP3    H171459   2.711   5.390  11.819  0.4164  0.0207 -0.1913
16656TIP3    H271460   2.848   5.347  11.770  0.6968 -0.2116  0.7864
16657TIP3   OH271461   0.946   3.538  14.438 -0.1462 -0.3188 -0.2291
16657TIP3    H171462   0.925   3.628  14.464 -0.2447 -0.6144  0.7465
16657TIP3    H271463   0.940   3.539  14.342  0.2751  0.8138 -0.2594
16658TIP3   OH271464   3.196   3.791   5.189  0.2377  0.0494  0.3605
16658TIP3    H171465   3.198   3.761   5.098  0.6356  0.4171  0.2444
16658TIP3    H271466   3.169   3.714   5.238  2.2259 -0.8510  0.1740
16659TIP3   OH271467   1.406   0.744  14.942 -0.1352  0.5790  0.1413
16659TIP3    H171468   1.344   0.808  14.907 -0.2075  1.3998  1.6582
16659TIP3    H271469   1.352   0.668  14.963 -0.4646  0.8896  0.4516
16660TIP3   OH271470   3.575   5.830   1.218 -0.5088  0.8284  1.0575
16660TIP3    H171471   3.614   5.899   1.166  0.3988  0.9971  1.9425
16660TIP3    H271472   3.537   5.770   1.154 -0.4514  1.6348  0.2556
16661TIP3   OH271473   0.812   6.105  11.815 -0.6222 -0.0550  0.2144
16661TIP3    H171474   0.736   6.056  11.847  0.1630 -1.3147  0.2402
16661TIP3    H271475   0.885   6.074  11.869  0.2151 -0.1443 -0.9293
16662TIP3   OH271476   0.669   5.300   0.429  0.1284 -0.0756  0.0684
16662TIP3    H171477   0.601   5.234   0.422 -0.2400  0.4444 -2.0631
16662TIP3    H271478   0.744   5.254   0.467 -0.8982 -1.0524  0.9505
16663TIP3   OH271479   4.870   5.417   1.996  0.5815 -0.1829 -0.7835
16663TIP3    H171480   4.952   5.378   2.027 -0.3309 -1.5188  0.0583
16663TIP3    H271481   4.854   5.376   1.911  0.2791 -0.7078 -0.4806
16664TIP3   OH271482   6.159   2.219   0.218  0.5183 -0.3412 -0.6396
16664TIP3    H171483   6.110   2.155   0.166  0.5158 -0.6186 -0.3033
16664TIP3    H271484   6.213   2.266   0.154 -0.1601 -0.0505 -1.0116
16665TIP3   OH271485   0.049   4.117   4.147 -0.2030 -0.4286 -0.3075
16665TIP3    H171486   0.143   4.104   4.138 -0.0558  0.0975  0.3884
16665TIP3    H271487   0.033   4.118   4.242 -0.8227  0.0467 -0.4055
16666TIP3   OH271488   5.183   1.420  13.284 -0.1527 -0.3371  0.4246
16666TIP3    H171489   5.233   1.500  13.298 -1.1558  0.2736  0.6190
16666TIP3    H271490   5.244   1.349  13.306  0.6384  0.3801  0.5756
16667TIP3   OH271491   4.255   6.815   5.430  0.9479 -0.0464  0.2699
16667TIP3    H171492   4.321   6.817   5.361  1.4303  0.6661  0.7339
16667TIP3    H271493   4.287   6.876   5.496  0.2341 -0.3145  0.8886
16668TIP3   OH271494   6.082   5.674  14.642  0.1298 -0.3094 -0.1395
16668TIP3    H171495   6.046   5.594  14.603  0.8060  0.7325 -3.2286
16668TIP3    H271496   6.169   5.682  14.603 -0.1223  2.1752 -0.3507
16669TIP3   OH271497   1.920   1.676  16.725 -0.0224  0.2203 -0.7309
16669TIP3    H171498   1.827   1.658  16.714 -0.3460  1.2973  0.0745
16669TIP3    H271499   1.924   1.750  16.786  1.3871 -0.5062  0.1453
16670TIP3   OH271500   0.751   5.695  11.315 -0.3603 -0.0827  0.0760
16670TIP3    H171501   0.720   5.635  11.247 -0.2207  0.9666 -0.9528
16670TIP3    H271502   0.846   5.692  11.308 -0.3511  0.2318  0.0251
16671TIP3   OH271503   6.216   1.972   5.194 -0.0831 -0.1962  0.2939
16671TIP3    H171504   6.307   1.967   5.224  0.3502 -1.0313 -1.1041
16671TIP3    H271505   6.221   1.960   5.100 -1.5213  1.3110 -0.0220
16672TIP3   OH271506   3.478   3.280  14.018  0.5239 -0.0925 -0.3384
16672TIP3    H171507   3.486   3.371  14.048  1.2803  0.7805 -2.8434
16672TIP3    H271508   3.384   3.268  14.006  0.4834  0.8999 -1.2793
16673TIP3   OH271509   4.572   4.109   4.513 -1.0227  0.1321  0.3507
16673TIP3    H171510   4.531   4.086   4.429  0.3708  1.8506 -0.8664
16673TIP3    H271511   4.521   4.184   4.544 -1.3620 -0.3318  0.9536
16674TIP3   OH271512   4.950   2.570   0.924  0.2639  0.7817 -0.5643
16674TIP3    H171513   4.910   2.487   0.951 -0.8606  1.2222 -0.7948
16674TIP3    H271514   4.982   2.609   1.005 -4.0343  2.6031  0.5435
16675TIP3   OH271515   0.647   3.857  11.276  0.3046 -0.5095  0.2366
16675TIP3    H171516   0.654   3.898  11.190  3.2392 -0.4750  0.3784
16675TIP3    H271517   0.613   3.926  11.333  0.3368  0.1345 -0.5112
16676TIP3   OH271518   0.391   4.267  16.829 -0.0149  0.0239  0.1968
16676TIP3    H171519   0.444   4.347  16.826  0.2550 -0.1789 -0.6363
16676TIP3    H271520   0.317   4.285  16.771  0.1603 -0.4130 -0.1656
16677TIP3   OH271521   0.770   1.424  14.887 -0.0371 -0.1660 -0.5174
16677TIP3    H171522   0.789   1.473  14.806 -1.7600 -0.1777 -0.9761
16677TIP3    H271523   0.703   1.361  14.861 -0.8175  0.0021  0.9797
16678TIP3   OH271524   5.295   5.047   0.401  0.0247  0.2786  0.5025
16678TIP3    H171525   5.290   5.133   0.442 -2.2375  1.7214 -2.4654
16678TIP3    H271526   5.369   5.054   0.340  0.8367 -0.4798  1.3656
16679TIP3   OH271527   5.420   6.474   1.392  0.1448  0.2551 -0.3956
16679TIP3    H171528   5.370   6.410   1.341  2.2127 -1.0563 -0.9095
16679TIP3    H271529   5.360   6.501   1.461 -0.6450 -2.8717  0.3334
16680TIP3   OH271530   4.625   1.630  15.427 -0.1193 -0.4253  0.3943
16680TIP3    H171531   4.620   1.603  15.518 -1.3630  0.5006  0.6243
16680TIP3    H271532   4.711   1.599  15.397  1.2991  1.1939  2.5146
16681TIP3   OH271533   6.767   4.162   2.438 -0.1165 -1.0572 -0.0743
16681TIP3    H171534   6.724   4.140   2.356  2.3346  3.3083 -2.8849
16681TIP3    H271535   6.713   4.232   2.476  0.5856 -0.6488  0.2003
16682TIP3   OH271536   2.805   4.099  13.521  0.3119 -0.1708 -0.1404
16682TIP3    H171537   2.831   4.089  13.613  1.2669  1.2704 -0.2096
16682TIP3    H271538   2.751   4.022  13.503 -0.1635 -0.3317  1.7105
16683TIP3   OH271539   4.756   4.023  12.330  0.3799  0.6311  0.3415
16683TIP3    H171540   4.733   4.090  12.266 -0.2835 -0.3600 -0.4937
16683TIP3    H271541   4.845   3.996  12.307 -0.2630 -0.5276 -0.9289
16684TIP3   OH271542   4.819   0.846   5.094  0.4613 -0.3062  0.1471
16684TIP3    H171543   4.862   0.877   5.173  2.2531 -1.1529 -0.4457
16684TIP3    H271544   4.815   0.923   5.037 -0.2377  0.1428  0.7780
16685TIP3   OH271545   4.722   6.420  14.538 -0.7035  0.2396  0.0639
16685TIP3    H171546   4.740   6.508  14.568 -0.9777  0.2293  0.2656
16685TIP3    H271547   4.802   6.371  14.555 -0.3676  0.5766 -0.5370
16686TIP3   OH271548   2.102   0.715  16.224  0.1620 -0.1053 -0.5485
16686TIP3    H171549   2.033   0.742  16.163 -1.5198  0.5799  1.5706
16686TIP3    H271550   2.086   0.621  16.237  0.1824 -0.1353 -0.7353
16687TIP3   OH271551   5.061   2.057   0.124  0.0280  0.2972 -0.0886
16687TIP3    H171552   5.143   2.012   0.143  0.1678 -0.3185 -1.9679
16687TIP3    H271553   5.074   2.146   0.156  0.5628 -0.3720  1.6935
16688TIP3   OH271554   3.570   4.834   1.610  0.1074  0.1134 -0.2826
16688TIP3    H171555   3.513   4.837   1.687  0.5635  0.8557  0.0359
16688TIP3    H271556   3.648   4.786   1.640  0.2349  0.2999 -0.3116
16689TIP3   OH271557   6.420   3.096  17.290 -0.0421  0.3364 -0.5631
16689TIP3    H171558   6.456   3.026  17.345  0.6900  0.0146 -1.4242
16689TIP3    H271559   6.495   3.153  17.272 -0.5323  1.0944 -0.2709
16690TIP3   OH271560   0.231   1.604   0.641 -0.1922  0.2955 -0.0334
16690TIP3    H171561   0.265   1.612   0.730  0.8817  0.0659 -0.4077
16690TIP3    H271562   0.171   1.677   0.631  0.1980  0.7172  0.6631
16691TIP3   OH271563   5.208   5.682   1.817 -0.2152 -0.4037  0.2061
16691TIP3    H171564   5.211   5.748   1.748  2.3430 -0.0949  0.5113
16691TIP3    H271565   5.138   5.711   1.875 -1.7852 -0.1740 -1.7185
16692TIP3   OH271566   4.200   2.529   1.871  0.7655 -0.1342 -0.1299
16692TIP3    H171567   4.241   2.450   1.836  0.3231 -0.1525 -0.6158
16692TIP3    H271568   4.274   2.585   1.896  1.0810 -0.5010 -0.2296
16693TIP3   OH271569   0.046   0.199   5.745  0.1077  0.4735  0.1881
16693TIP3    H171570   0.116   0.183   5.807 -0.0823 -0.1201  0.2570
16693TIP3    H271571   0.086   0.183   5.659 -0.0310 -0.2305  0.2460
16694TIP3   OH271572   0.613   5.947   5.921 -0.5287  0.5717 -0.0874
16694TIP3    H171573   0.659   5.938   5.837 -1.6105  0.6947 -0.7027
16694TIP3    H271574   0.671   5.903   5.984  0.8754  1.5045 -0.6665
16695TIP3   OH271575   0.111   1.174   0.830 -0.3928 -0.2020 -0.4002
16695TIP3    H171576   0.090   1.128   0.911  0.8344  0.8320  0.5495
16695TIP3    H271577   0.193   1.134   0.801  0.4451  1.0056  0.1906
16696TIP3   OH271578   5.591   5.971   1.480 -0.9160 -0.2416  0.4053
16696TIP3    H171579   5.545   5.954   1.563  0.4956 -1.4993  0.9737
16696TIP3    H271580   5.680   5.938   1.495  0.2025  2.1101 -0.6657
16697TIP3   OH271581   3.650   5.061  13.767  0.2293  0.5468 -0.2145
16697TIP3    H171582   3.688   5.126  13.708  0.7476  0.5565  0.1224
16697TIP3    H271583   3.700   4.981  13.749 -1.5881 -0.2730 -1.9215
16698TIP3   OH271584   3.500   4.850   1.349 -0.0540 -0.6396  0.0352
16698TIP3    H171585   3.426   4.909   1.359 -1.6049 -2.2603 -1.2048
16698TIP3    H271586   3.537   4.842   1.437  0.1087  1.9539  0.2682
16699TIP3   OH271587   3.003   3.725   2.183  0.2614  0.4341  0.3978
16699TIP3    H171588   3.062   3.674   2.239 -0.3635 -0.2660  0.4392
16699TIP3    H271589   3.038   3.715   2.095 -0.2015 -0.6000  0.3161
16700TIP3   OH271590   4.575   5.935  13.286  0.4442 -0.3685  0.1379
16700TIP3    H171591   4.647   5.994  13.306 -0.2352  0.4416  0.2218
16700TIP3    H271592   4.521   5.981  13.222  1.8394 -2.3704 -2.6885
16701TIP3   OH271593   6.785   0.248  11.364 -0.3341 -0.7317  0.2091
16701TIP3    H171594   6.843   0.215  11.433  0.4034  0.4268  0.1562
16701TIP3    H271595   6.720   0.178  11.353  0.2572 -1.4701  1.2053
16702TIP3   OH271596   5.941   6.077   5.050  0.4283  0.3896 -0.1905
16702TIP3    H171597   5.927   5.984   5.068  1.0492  0.2470 -0.4258
16702TIP3    H271598   5.933   6.085   4.954  1.5957  0.3515 -0.3088
16703TIP3   OH271599   4.400   0.121  13.054  0.6680 -0.3836  0.2242
16703TIP3    H171600   4.410   0.029  13.078  1.1271 -0.2139  0.6932
16703TIP3    H271601   4.488   0.150  13.032  0.1928 -0.7196 -2.4831
16704TIP3   OH271602   0.127   5.928  17.175 -0.7689 -0.5511  0.8656
16704TIP3    H171603   0.105   5.866  17.244 -3.3952  0.5607  1.1590
16704TIP3    H271604   0.047   5.935  17.122  0.1810  0.8895 -0.4857
16705TIP3   OH271605   5.655   6.120  12.774  0.0846 -0.1846 -0.2894
16705TIP3    H171606   5.710   6.199  12.779  1.5017 -1.2047  1.1856
16705TIP3    H271607   5.574   6.145  12.818 -0.6440  1.2827 -2.3189
16706TIP3   OH271608   0.331   0.434  16.013 -0.2156 -0.5898  0.0817
16706TIP3    H171609   0.286   0.386  15.943 -0.4671  0.6496 -0.6413
16706TIP3    H271610   0.343   0.522  15.977  1.2583 -0.4159  0.9272
16707TIP3   OH271611   1.044   1.202  13.854 -0.4898  0.1560  0.4207
16707TIP3    H171612   0.962   1.244  13.879 -1.0385 -1.4015  1.3673
16707TIP3    H271613   1.033   1.179  13.762 -1.9583 -1.7766  1.0021
16708TIP3   OH271614   6.059   1.328  16.667 -0.5316 -0.1807  0.2365
16708TIP3    H171615   6.127   1.395  16.676 -0.6691  0.1144 -0.7928
16708TIP3    H271616   6.065   1.278  16.748 -0.4673  1.1117  1.0695
16709TIP3   OH271617   3.979   5.323  12.386 -0.4915 -0.3040 -0.5408
16709TIP3    H171618   3.937   5.284  12.462  0.9840 -1.5163 -0.2928
16709TIP3    H271619   3.994   5.415  12.411 -1.1866 -0.3553  0.1059
16710TIP3   OH271620   5.456   4.190  13.620  0.2198  0.0720 -0.0078
16710TIP3    H171621   5.416   4.254  13.678  1.7047 -0.5097  1.7391
16710TIP3    H271622   5.489   4.241  13.547 -0.5110  1.0030  0.2895
16711TIP3   OH271623   4.556   6.714   6.281  0.2222  0.7147 -0.1897
16711TIP3    H171624   4.469   6.674   6.281 -0.0183  1.2080 -1.1437
16711TIP3    H271625   4.573   6.736   6.373 -0.6900  0.6796 -0.0103
16712TIP3   OH271626   1.586   4.093   1.424  0.4208  0.5256 -0.2062
16712TIP3    H171627   1.491   4.087   1.433  0.3575  0.8479 -0.6307
16712TIP3    H271628   1.618   4.006   1.448 -0.1159 -0.1163 -1.7070
16713TIP3   OH271629   2.378   1.824  16.948  0.5724 -0.6171  0.4395
16713TIP3    H171630   2.373   1.913  16.982 -0.8416 -0.3348 -0.4124
16713TIP3    H271631   2.442   1.829  16.876  1.7473 -0.6888  1.4485
16714TIP3   OH271632   3.819   2.975   1.287 -0.1165  0.4828  0.4676
16714TIP3    H171633   3.826   2.946   1.196 -0.8444  2.0149 -0.1184
16714TIP3    H271634   3.898   2.943   1.329  0.5041  0.2231 -0.8506
16715TIP3   OH271635   5.762   0.773   3.789  0.0074  0.0536 -0.5458
16715TIP3    H171636   5.817   0.787   3.712  0.1145  0.2777 -0.4301
16715TIP3    H271637   5.693   0.840   3.781  0.8437  1.0555  0.3071
16716TIP3   OH271638   4.094   6.455  16.442 -0.0054  0.3987  0.1966
16716TIP3    H171639   4.095   6.364  16.414 -1.4249  0.1930  0.7516
16716TIP3    H271640   4.071   6.451  16.535  1.0948  1.2670  0.5306
16717TIP3   OH271641   4.732   1.049   5.754 -0.0379  0.1242  0.5915
16717TIP3    H171642   4.821   1.077   5.775  0.6348 -2.1668  1.0538
16717TIP3    H271643   4.732   1.039   5.658  0.4566 -0.5724  0.6559
16718TIP3   OH271644   0.595   1.527  11.063 -0.2365 -0.1192  0.3813
16718TIP3    H171645   0.659   1.591  11.094 -0.5950  0.0503  0.7950
16718TIP3    H271646   0.580   1.470  11.138 -0.6385 -0.0982  0.3207
16719TIP3   OH271647   6.149   0.911   2.909  0.1099 -0.2982  0.2367
16719TIP3    H171648   6.134   0.912   2.815  1.1620 -0.2130  0.0499
16719TIP3    H271649   6.066   0.936   2.948 -0.1386  0.3644 -0.6963
16720TIP3   OH271650   0.869   3.986   0.720 -0.4118 -0.5668 -0.0853
16720TIP3    H171651   0.924   4.051   0.762 -0.6789 -0.0812 -0.4818
16720TIP3    H271652   0.931   3.924   0.680 -0.1527 -0.0333 -0.5162
16721TIP3   OH271653   4.609   1.401   1.141 -0.3530 -0.0224  0.4738
16721TIP3    H171654   4.583   1.473   1.199  0.0254  0.8038 -0.3403
16721TIP3    H271655   4.690   1.433   1.100  0.3085 -1.2897  0.7467
16722TIP3   OH271656   1.680   3.233   0.683  0.0986 -0.7188  0.3745
16722TIP3    H171657   1.597   3.186   0.683 -0.2651 -0.1073 -0.4897
16722TIP3    H271658   1.667   3.307   0.742 -0.0706 -0.4817  0.0482
16723TIP3   OH271659   0.513   3.664  14.031 -0.0585 -0.1103 -0.3902
16723TIP3    H171660   0.583   3.727  14.047 -2.0116  2.3920 -0.9743
16723TIP3    H271661   0.508   3.612  14.111  0.6645  1.5122  0.7533
16724TIP3   OH271662   0.305   1.742   6.105  0.2157  0.5825  0.0147
16724TIP3    H171663   0.262   1.781   6.181  0.1878 -0.0295  0.3248
16724TIP3    H271664   0.265   1.655   6.097  0.5363  0.4689 -0.4268
16725TIP3   OH271665   1.175   6.605   3.151 -0.0388 -0.0575  0.7505
16725TIP3    H171666   1.164   6.610   3.056 -0.4021  0.7853  0.8246
16725TIP3    H271667   1.088   6.626   3.186  0.2481  0.2890  1.2706
16726TIP3   OH271668   5.459   1.435   5.991 -0.2774 -0.4631 -0.2735
16726TIP3    H171669   5.474   1.503   6.057  0.2467 -1.3592  0.5767
16726TIP3    H271670   5.380   1.390   6.020 -0.2941 -0.5810 -0.4981
16727TIP3   OH271671   0.315   0.960   4.446 -0.0543 -0.1526  0.4787
16727TIP3    H171672   0.344   0.870   4.461 -4.0455 -1.9949 -1.4247
16727TIP3    H271673   0.274   0.987   4.528 -0.4536 -0.7691  0.4794
16728TIP3   OH271674   3.630   5.987   0.336 -0.3376 -0.1933 -0.0350
16728TIP3    H171675   3.555   6.046   0.350 -1.2748 -1.6625  1.4711
16728TIP3    H271676   3.594   5.913   0.289 -0.2350 -1.6108  1.9955
16729TIP3   OH271677   3.212   4.098   3.601  0.1284 -0.1391  0.1258
16729TIP3    H171678   3.194   4.143   3.518  2.0156  1.2787  0.4115
16729TIP3    H271679   3.147   4.133   3.662 -0.1805  0.1124 -0.3422
16730TIP3   OH271680   3.877   1.183  13.367 -0.1659  0.0915 -0.5758
16730TIP3    H171681   3.948   1.209  13.425 -0.4950 -1.2330  0.4805
16730TIP3    H271682   3.916   1.116  13.310 -0.8434 -1.7363  0.9783
16731TIP3   OH271683   5.444   2.698  13.890 -0.3289 -0.2289 -0.4391
16731TIP3    H171684   5.395   2.766  13.936  0.9282  0.0405  0.5621
16731TIP3    H271685   5.471   2.638  13.960  1.4819  0.0925 -0.8152
16732TIP3   OH271686   0.237   4.498   2.631  0.0332  0.7309 -0.0118
16732TIP3    H171687   0.293   4.460   2.564 -0.5296  1.5750 -0.9953
16732TIP3    H271688   0.293   4.562   2.675 -0.2740  2.0441 -1.4217
16733TIP3   OH271689   1.425   3.032  15.575  0.7681  0.2402  0.3208
16733TIP3    H171690   1.441   2.970  15.504 -0.9584  0.6981 -0.5527
16733TIP3    H271691   1.486   3.007  15.644  1.1797 -1.4375 -0.5935
16734TIP3   OH271692   1.150   1.884   2.299 -0.7906  0.2916  0.1730
16734TIP3    H171693   1.141   1.862   2.207 -1.8897  0.8797  0.1286
16734TIP3    H271694   1.206   1.815   2.335 -1.0409 -0.4097 -0.7509
16735TIP3   OH271695   6.608   5.926   2.245 -0.5374  0.2698  0.4250
16735TIP3    H171696   6.638   5.843   2.281 -1.8174  0.6972  2.6350
16735TIP3    H271697   6.682   5.985   2.256 -0.2713 -0.0937  0.6112
16736TIP3   OH271698   2.487   5.562  16.506 -0.2906  0.5628 -0.9065
16736TIP3    H171699   2.477   5.632  16.570  1.1501  1.4064 -1.5590
16736TIP3    H271700   2.405   5.512  16.512 -1.8595  2.9426 -1.2249
16737TIP3   OH271701   2.987   0.166   0.608  0.1997 -0.1000  0.2434
16737TIP3    H171702   2.955   0.256   0.609  1.6235  0.4978  2.6884
16737TIP3    H271703   2.996   0.144   0.516  0.6403  2.5954 -0.4350
16738TIP3   OH271704   0.987   1.195  14.528  0.9609  0.1831 -0.0320
16738TIP3    H171705   0.983   1.099  14.534  2.4535 -0.0009 -1.4821
16738TIP3    H271706   1.072   1.214  14.489  1.3436  2.2032  1.6002
16739TIP3   OH271707   3.188   4.185   2.569  0.6692  0.5335  0.3334
16739TIP3    H171708   3.108   4.193   2.619  0.5896  0.7289  0.1750
16739TIP3    H271709   3.239   4.118   2.615 -0.6646 -1.4771 -0.9628
16740TIP3   OH271710   4.933   3.908   0.813  0.2735  1.1122  0.2417
16740TIP3    H171711   4.907   3.943   0.728  0.8784 -1.2657 -0.9913
16740TIP3    H271712   4.851   3.875   0.851  0.4163 -0.5087 -0.7797
16741TIP3   OH271713   3.073   6.383  13.237 -0.4337  0.5772  0.6103
16741TIP3    H171714   3.074   6.290  13.214 -0.2687  0.3358  1.5589
16741TIP3    H271715   2.984   6.400  13.265 -0.5454  0.7907  0.1465
16742TIP3   OH271716   6.397   0.444   4.864  0.0706 -0.0192 -0.3478
16742TIP3    H171717   6.444   0.470   4.943 -0.3836 -1.3119  0.3726
16742TIP3    H271718   6.304   0.450   4.889 -0.1007  0.3355 -1.0454
16743TIP3   OH271719   5.572   3.816  14.483  0.5745  0.3655  0.4553
16743TIP3    H171720   5.479   3.815  14.461  0.5620  0.7452  0.4845
16743TIP3    H271721   5.616   3.852  14.405  0.6757  0.3589  0.5078
16744TIP3   OH271722   4.524   2.549   2.958  0.0714 -0.5925 -0.0202
16744TIP3    H171723   4.535   2.629   3.009 -1.1202 -0.8567  0.7170
16744TIP3    H271724   4.448   2.566   2.903  0.6175 -0.7549 -0.8422
16745TIP3   OH271725   3.899   6.143   1.149  0.2239 -0.6386 -0.6085
16745TIP3    H171726   3.963   6.127   1.081  1.7039  0.3274  0.4775
16745TIP3    H271727   3.887   6.238   1.149 -2.1142 -0.8664 -1.5346
16746TIP3   OH271728   6.197   4.395  12.782 -0.1477  0.2466  0.6498
16746TIP3    H171729   6.109   4.419  12.810 -0.0819  2.1654 -0.6575
16746TIP3    H271730   6.255   4.456  12.828  0.2757  0.7040 -0.4507
16747TIP3   OH271731   6.447   1.595   6.677  0.4667 -0.5649 -0.1653
16747TIP3    H171732   6.362   1.596   6.721  0.5214 -0.9670 -0.0386
16747TIP3    H271733   6.433   1.643   6.595 -0.1332 -1.4116 -0.5821
16748TIP3   OH271734   4.103   2.746   0.795 -0.5982  0.3177  0.4040
16748TIP3    H171735   4.199   2.743   0.802 -0.6931 -1.1278  1.6742
16748TIP3    H271736   4.087   2.790   0.711  1.2433 -1.4067 -0.9791
16749TIP3   OH271737   0.839   4.536  16.973  0.3127 -0.1551  0.6024
16749TIP3    H171738   0.845   4.459  16.917 -0.2814 -0.0066  0.3310
16749TIP3    H271739   0.749   4.567  16.963  1.4612  2.8352 -2.3290
16750TIP3   OH271740   5.759   6.729  16.034 -0.3212  0.3064  0.2616
16750TIP3    H171741   5.756   6.760  15.943  0.8194  1.5482  0.6154
16750TIP3    H271742   5.752   6.634  16.027  1.5059  0.2220 -1.2625
16751TIP3   OH271743   1.879   0.249  16.513 -0.4414 -1.1894 -0.4742
16751TIP3    H171744   1.964   0.205  16.513  0.4549  0.3506  1.5401
16751TIP3    H271745   1.873   0.291  16.427  2.1055  0.8103  0.1914
16752TIP3   OH271746   3.290   4.124  11.717 -0.1245  0.5318 -0.3619
16752TIP3    H171747   3.203   4.161  11.736 -0.5365  0.0074 -1.1768
16752TIP3    H271748   3.300   4.055  11.782 -1.1826 -0.7180 -1.4732
16753TIP3   OH271749   3.794   1.963  16.096 -0.3578  0.3610  0.0248
16753TIP3    H171750   3.857   2.030  16.121  0.6809 -0.8923  0.8771
16753TIP3    H271751   3.765   1.924  16.178 -0.7759 -0.3958 -0.4642
16754TIP3   OH271752   1.354   3.623   4.230 -0.2177  0.1199  0.1540
16754TIP3    H171753   1.410   3.547   4.222 -1.3920 -0.6383 -1.6764
16754TIP3    H271754   1.292   3.601   4.300 -0.3138 -0.4677 -0.1106
16755TIP3   OH271755   3.924   1.800   3.309  0.0891  0.3249  0.1010
16755TIP3    H171756   3.969   1.749   3.242 -1.6589  1.6847 -2.2891
16755TIP3    H271757   3.834   1.768   3.307 -0.3058  1.3272  0.8376
16756TIP3   OH271758   6.341   5.049  12.818 -0.3683 -0.0412 -0.6607
16756TIP3    H171759   6.340   5.145  12.823  1.4248 -0.0086 -0.3681
16756TIP3    H271760   6.316   5.030  12.727 -1.5915  0.6434 -0.4935
16757TIP3   OH271761   3.516   6.303  15.617 -0.2985 -0.2585 -0.1211
16757TIP3    H171762   3.599   6.346  15.600  0.1862 -0.8837  0.6321
16757TIP3    H271763   3.512   6.233  15.551  1.0998 -2.0122  1.5319
16758TIP3   OH271764   3.921   2.403   1.818  0.7557 -0.0758 -0.8320
16758TIP3    H171765   4.003   2.450   1.810  0.5386  0.4779  0.0664
16758TIP3    H271766   3.906   2.396   1.912  1.6942 -3.5727 -0.7979
16759TIP3   OH271767   5.924   3.873  15.446  0.6445  0.1068  0.2579
16759TIP3    H171768   5.936   3.785  15.413  0.1934  0.6823 -1.5665
16759TIP3    H271769   5.882   3.861  15.531  1.5997 -1.4418  0.5476
16760TIP3   OH271770   0.230   6.466   3.363 -0.3713 -0.2356  0.1911
16760TIP3    H171771   0.314   6.465   3.317 -1.3948  0.4021 -1.8164
16760TIP3    H271772   0.208   6.374   3.376  0.4985 -0.4100  0.5337
16761TIP3   OH271773   0.108   2.418   4.053 -0.0194 -0.1728  0.3452
16761TIP3    H171774   0.167   2.448   4.122 -1.3551  0.7266  1.1416
16761TIP3    H271775   0.163   2.410   3.976  0.6063  4.0159  0.1114
16762TIP3   OH271776   6.598   4.339  12.242  0.2838  0.3763  0.0013
16762TIP3    H171777   6.532   4.271  12.258  0.4780 -0.2316 -1.5866
16762TIP3    H271778   6.554   4.421  12.264 -0.6264 -0.1118  0.0503
16763TIP3   OH271779   3.021   4.254  13.562 -0.2605 -0.3379  0.0707
16763TIP3    H171780   2.969   4.184  13.522 -0.4299  0.4612 -1.1506
16763TIP3    H271781   2.956   4.320  13.588  0.0747  0.4679 -1.0590
16764TIP3   OH271782   3.529   0.512   1.157 -0.1090  0.0394  0.6389
16764TIP3    H171783   3.557   0.420   1.165  0.3468  0.1319  0.1421
16764TIP3    H271784   3.610   0.562   1.166 -0.4391  0.4322  1.5324
16765TIP3   OH271785   5.837   3.641  12.195  0.0426  0.0200 -0.5659
16765TIP3    H171786   5.851   3.644  12.101 -0.9427 -0.9338 -0.7650
16765TIP3    H271787   5.746   3.669  12.206 -0.2163 -1.0087 -0.0107
16766TIP3   OH271788   0.067   5.509   4.099 -0.2649 -0.3274  0.2574
16766TIP3    H171789   0.086   5.537   4.189  2.5740 -0.7497 -0.1079
16766TIP3    H271790   0.118   5.428   4.088 -1.5366 -0.9713 -1.3705
16767TIP3   OH271791   6.018   5.686  12.435 -0.1177 -0.2766  0.7667
16767TIP3    H171792   6.019   5.689  12.339  3.2133  0.5023  0.7276
16767TIP3    H271793   6.035   5.594  12.456  0.0096 -0.2889  0.6092
16768TIP3   OH271794   5.570   6.248   5.753  0.0216 -0.3625  0.5408
16768TIP3    H171795   5.548   6.256   5.845  1.3626 -0.5862  0.9023
16768TIP3    H271796   5.649   6.194   5.751  0.8326  0.7736 -0.6217
16769TIP3   OH271797   1.621   1.322   4.270  0.4521  0.0028  0.4004
16769TIP3    H171798   1.654   1.316   4.359  1.0606 -0.3418  0.1533
16769TIP3    H271799   1.641   1.412   4.242 -0.1076  0.2428  0.7455
16770TIP3   OH271800   5.793   4.563   3.615 -0.3233  0.0300 -0.0918
16770TIP3    H171801   5.813   4.552   3.708  0.2289 -2.1568 -0.4123
16770TIP3    H271802   5.871   4.605   3.579  0.1135 -0.5411  0.1747
16771TIP3   OH271803   6.541   0.052   1.049 -0.1627  0.5034  0.0185
16771TIP3    H171804   6.566  -0.026   0.998  0.4371  0.5775  0.1953
16771TIP3    H271805   6.446   0.055   1.041 -0.1660 -0.0592 -0.2703
16772TIP3   OH271806   0.149   5.741  16.075  0.0419  0.1393  0.2726
16772TIP3    H171807   0.190   5.754  16.161 -0.6764 -0.1304  0.6624
16772TIP3    H271808   0.099   5.821  16.060  0.9174  0.5881 -0.3325
16773TIP3   OH271809   5.808   1.595  13.415 -0.1357  0.3873  0.1078
16773TIP3    H171810   5.747   1.535  13.372 -0.9250  0.1654  1.4756
16773TIP3    H271811   5.770   1.682  13.403  0.7694  0.6157 -1.4701
16774TIP3   OH271812   4.818   4.096  12.902  0.2354 -0.1917  0.0022
16774TIP3    H171813   4.907   4.120  12.878  0.0480  0.8667  0.3276
16774TIP3    H271814   4.826   4.053  12.987  0.3290  0.9149  0.5663
16775TIP3   OH271815   1.537   2.357   2.095 -0.4745  0.0460 -0.4138
16775TIP3    H171816   1.500   2.388   2.178 -3.0021 -1.0234 -1.0600
16775TIP3    H271817   1.576   2.272   2.116  1.0276  0.8109  0.0953
16776TIP3   OH271818   5.921   1.174   0.743 -0.2021 -0.1532 -0.6302
16776TIP3    H171819   5.921   1.169   0.839  2.0185  0.5372 -0.5456
16776TIP3    H271820   5.876   1.256   0.723  0.9766  0.6579 -0.0649
16777TIP3   OH271821   3.803   0.148  11.947 -0.1996  0.0218 -0.2367
16777TIP3    H171822   3.740   0.213  11.915 -1.7719 -2.2830 -2.1456
16777TIP3    H271823   3.752   0.089  12.002  1.2069  0.3623  1.5225
16778TIP3   OH271824   0.524   2.683  14.391 -0.7927  0.7682  0.7670
16778TIP3    H171825   0.602   2.739  14.392  0.8230 -1.2553 -1.0884
16778TIP3    H271826   0.505   2.670  14.298 -0.9252 -1.9113  1.1024
16779TIP3   OH271827   4.119   0.767  13.833 -0.0970 -0.7325  0.7241
16779TIP3    H171828   4.177   0.725  13.897  1.0000 -0.5814 -0.1288
16779TIP3    H271829   4.170   0.841  13.800 -0.4376 -1.0791 -0.6617
16780TIP3   OH271830   0.442   4.857   3.519 -0.1341  0.2919  0.0767
16780TIP3    H171831   0.443   4.791   3.449 -1.4777  0.1635  0.1669
16780TIP3    H271832   0.442   4.941   3.472  1.5682  0.2665 -0.0373
16781TIP3   OH271833   3.341   3.395  15.831  0.3182 -0.0872  0.4225
16781TIP3    H171834   3.437   3.397  15.826  0.2533  0.3943 -1.1608
16781TIP3    H271835   3.312   3.382  15.741 -1.1045 -1.8547  1.0798
16782TIP3   OH271836   2.828   3.925   4.869  0.2414 -0.0660 -0.0459
16782TIP3    H171837   2.850   4.007   4.914 -1.5502  1.9420 -2.5676
16782TIP3    H271838   2.826   3.948   4.776 -1.0189 -2.8281 -0.8133
16783TIP3   OH271839   0.224   1.597   5.201  0.3609 -0.4254 -0.3422
16783TIP3    H171840   0.245   1.637   5.116 -0.7720 -0.7376 -0.7867
16783TIP3    H271841   0.244   1.666   5.265  0.5074  0.0873 -0.9259
16784TIP3   OH271842   5.472   2.324  16.958  0.3655 -0.2581  0.0952
16784TIP3    H171843   5.416   2.281  16.892 -0.7011  3.0515 -1.3962
16784TIP3    H271844   5.420   2.321  17.038 -0.4929 -0.1936 -0.4349
16785TIP3   OH271845   0.298   3.193  15.835 -0.2992  0.1340 -0.2097
16785TIP3    H171846   0.259   3.200  15.748  1.0016  2.4307 -0.7060
16785TIP3    H271847   0.315   3.099  15.847 -0.4088 -0.2248 -2.4794
16786TIP3   OH271848   4.604   0.217  15.777 -0.3623 -0.3121  0.1193
16786TIP3    H171849   4.643   0.278  15.840  1.6290  0.2070 -1.5219
16786TIP3    H271850   4.597   0.266  15.696 -0.6880 -1.6459 -0.7029
16787TIP3   OH271851   3.295   2.513  16.575  0.1331  0.2535 -0.3907
16787TIP3    H171852   3.263   2.525  16.665  1.4250 -1.8749  0.4594
16787TIP3    H271853   3.273   2.422  16.554  2.5050 -0.2559 -1.0146
16788TIP3   OH271854   4.208   5.558   1.620 -0.3550 -0.2182  0.3625
16788TIP3    H171855   4.290   5.569   1.668 -0.3747  1.5968  0.0568
16788TIP3    H271856   4.216   5.473   1.577  1.8323  0.3656 -0.5029
16789TIP3   OH271857   3.282   5.205   1.320  0.3136 -0.3050 -0.4931
16789TIP3    H171858   3.304   5.235   1.409 -1.0346  0.6881 -0.4621
16789TIP3    H271859   3.345   5.250   1.264 -0.5007  1.1955 -0.2595
16790TIP3   OH271860   0.357   5.723  15.098  0.1090  0.2312 -0.3950
16790TIP3    H171861   0.329   5.729  15.190  0.5592 -1.9502 -0.0547
16790TIP3    H271862   0.351   5.630  15.078  1.5281  0.4668 -2.1137
16791TIP3   OH271863   1.144   5.481  11.285  0.1256 -0.5076 -0.1734
16791TIP3    H171864   1.236   5.457  11.278 -0.4024 -3.4214  1.3618
16791TIP3    H271865   1.111   5.479  11.195  1.5670  0.9656 -0.7847
16792TIP3   OH271866   2.398   0.683   3.553  0.4532 -0.3461  0.2216
16792TIP3    H171867   2.314   0.640   3.568  1.2818 -1.6986  1.1985
16792TIP3    H271868   2.434   0.638   3.477  1.1451 -1.1538  1.0041
16793TIP3   OH271869   4.242   0.382  10.986  0.0719 -0.3134  0.1285
16793TIP3    H171870   4.185   0.307  10.969 -0.9316  0.2140  1.0719
16793TIP3    H271871   4.185   0.447  11.027  0.7757  1.2121 -1.2189
16794TIP3   OH271872   1.393   0.281  16.029  0.2862  0.0135  0.2309
16794TIP3    H171873   1.457   0.230  15.981 -1.0832 -1.9697  0.4053
16794TIP3    H271874   1.358   0.221  16.095 -0.8533  1.4029  0.9665
16795TIP3   OH271875   3.766   0.212  11.572 -0.3529 -0.1546  0.1406
16795TIP3    H171876   3.688   0.245  11.529 -0.0839  2.0221  1.2046
16795TIP3    H271877   3.739   0.129  11.611 -1.9903  0.3171  0.0819
16796TIP3   OH271878   4.142   1.794   3.527 -0.1846 -0.1929 -0.1992
16796TIP3    H171879   4.083   1.758   3.462 -0.1358 -1.0496  0.2051
16796TIP3    H271880   4.144   1.888   3.510 -2.7447  0.0763  0.6453
16797TIP3   OH271881   5.480   1.763  14.258  0.3467  0.2092  0.0065
16797TIP3    H171882   5.489   1.670  14.277 -1.0943  0.1174  0.3443
16797TIP3    H271883   5.426   1.767  14.179  1.8027  0.7360 -1.0002
16798TIP3   OH271884   6.676   3.972  16.798  0.2613  0.0228  0.2257
16798TIP3    H171885   6.724   3.900  16.757 -0.5177 -0.3134 -0.1330
16798TIP3    H271886   6.736   4.047  16.793  2.0798 -1.1235  2.8272
16799TIP3   OH271887   0.514   2.059   4.710 -0.2303  0.1406  0.3194
16799TIP3    H171888   0.434   2.068   4.761  1.0815 -0.4704  2.6943
16799TIP3    H271889   0.575   2.014   4.770  1.9680  0.8371 -1.2505
16800TIP3   OH271890   4.955   0.354  14.537  0.1756 -0.5167 -0.1291
16800TIP3    H171891   4.905   0.296  14.596  2.2102 -0.4027  1.8081
16800TIP3    H271892   4.938   0.442  14.570  1.7738 -0.4924  0.7061
16801TIP3   OH271893   6.146   6.391  11.870  0.4451  0.6023 -0.4111
16801TIP3    H171894   6.223   6.414  11.923  0.9582  0.6854 -1.1873
16801TIP3    H271895   6.182   6.357  11.789 -0.3405  1.1084 -0.9856
16802TIP3   OH271896   2.589   4.383   6.709 -0.1248  0.5823 -0.3309
16802TIP3    H171897   2.648   4.449   6.744  2.3690 -1.1458 -1.0477
16802TIP3    H271898   2.574   4.408   6.618  1.9487 -0.4752 -1.0218
16803TIP3   OH271899   3.094   3.558   4.243 -0.0128  0.7341  0.3777
16803TIP3    H171900   3.030   3.528   4.179  2.6707 -0.8911 -1.7400
16803TIP3    H271901   3.042   3.588   4.317 -3.1931  0.2077 -1.4954
16804TIP3   OH271902   2.881   1.714   6.813  0.1244 -0.1769  0.0672
16804TIP3    H171903   2.820   1.659   6.763  1.3071 -0.9551 -0.5627
16804TIP3    H271904   2.854   1.804   6.792  1.2611 -0.4147 -3.0042
16805TIP3   OH271905   3.614   0.072   1.790  0.3478 -0.4051  0.6221
16805TIP3    H171906   3.633  -0.003   1.847 -0.0583 -0.9068  0.1041
16805TIP3    H271907   3.521   0.064   1.769  0.3923  0.0216  0.2498
16806TIP3   OH271908   3.389   0.712   5.158  0.4185 -0.1852 -0.2694
16806TIP3    H171909   3.387   0.765   5.237 -0.7648  0.6292 -0.8093
16806TIP3    H271910   3.478   0.678   5.154  0.9579  1.0480  0.5663
16807TIP3   OH271911   1.420   2.367   4.635 -0.2599  0.1893  0.3042
16807TIP3    H171912   1.450   2.386   4.546  2.7559 -1.1038  0.9045
16807TIP3    H271913   1.333   2.329   4.623  0.7046 -1.5121 -2.3316
16808TIP3   OH271914   4.860   3.619   4.796  0.1609  0.2256  0.1149
16808TIP3    H171915   4.838   3.640   4.705 -2.3025  1.9539  0.9942
16808TIP3    H271916   4.937   3.672   4.816  0.7008 -0.1398 -0.9261
16809TIP3   OH271917   3.048   0.672   4.457 -0.8735 -0.6588  0.0651
16809TIP3    H171918   3.017   0.716   4.378 -0.8360 -0.7664 -0.0090
16809TIP3    H271919   2.972   0.624   4.489 -0.9828 -0.3384  0.2848
16810TIP3   OH271920   3.820   3.890   2.635  0.0881  0.0553  0.3162
16810TIP3    H171921   3.746   3.875   2.576  0.3066 -0.6277  0.2001
16810TIP3    H271922   3.892   3.917   2.578  1.1693 -3.4289 -0.2146
16811TIP3   OH271923   4.302   6.096  14.708 -0.0053 -0.1388 -0.1534
16811TIP3    H171924   4.256   6.037  14.648  2.2058 -0.9382 -1.1662
16811TIP3    H271925   4.378   6.127  14.658  1.3101  0.0449  1.8528
16812TIP3   OH271926   2.106   2.283   5.241  0.5642  0.0681 -0.6129
16812TIP3    H171927   2.150   2.320   5.164  0.4448  0.0427 -0.6929
16812TIP3    H271928   2.178   2.253   5.297  0.6586  0.3257 -0.5956
16813TIP3   OH271929   4.120   0.058   1.801 -0.0865 -0.1860 -0.3390
16813TIP3    H171930   4.206   0.021   1.820 -0.5302 -0.3764  1.4385
16813TIP3    H271931   4.115   0.059   1.705  2.6372  1.6063 -0.5727
16814TIP3   OH271932   1.304   1.574  13.313  0.4091 -0.6667 -0.1828
16814TIP3    H171933   1.374   1.510  13.325  0.1955 -1.0811 -1.0370
16814TIP3    H271934   1.337   1.634  13.246  0.5563  0.0580  0.5137
16815TIP3   OH271935   1.785   1.562  11.628  0.0612  0.3743  0.2962
16815TIP3    H171936   1.870   1.603  11.612 -0.9644  2.4031 -0.2567
16815TIP3    H271937   1.792   1.527  11.717  2.1475 -1.3949 -0.4796
16816TIP3   OH271938   1.512   4.447   2.775 -0.1011  0.2382 -0.2088
16816TIP3    H171939   1.501   4.456   2.681 -1.4452 -1.0572 -0.2165
16816TIP3    H271940   1.427   4.416   2.807  0.7284 -0.7478  1.2095
16817TIP3   OH271941   6.357   2.310   0.018  0.1208 -0.5613 -0.2997
16817TIP3    H171942   6.409   2.382   0.053  2.0561 -1.2744 -1.5635
16817TIP3    H271943   6.419   2.237   0.009 -1.1439 -1.5290 -1.6666
16818TIP3   OH271944   1.793   0.329  16.242  0.0909 -0.1973  0.4029
16818TIP3    H171945   1.809   0.354  16.151  0.3516  1.7469  0.9397
16818TIP3    H271946   1.727   0.260  16.236 -0.6790  0.6114 -1.2281
16819TIP3   OH271947   3.876   2.660  13.133  0.0845  0.5343  0.2439
16819TIP3    H171948   3.810   2.728  13.147 -1.2190 -1.1081  2.8204
16819TIP3    H271949   3.876   2.610  13.214  0.5598 -2.8890 -1.7061
16820TIP3   OH271950   2.963   5.540   4.326  0.4272 -0.1510  0.2543
16820TIP3    H171951   2.928   5.556   4.414 -0.1500  0.2706 -0.0472
16820TIP3    H271952   2.935   5.616   4.275  1.5364  0.0471 -0.0763
16821TIP3   OH271953   5.035   4.944  16.768 -0.5357 -0.1192 -0.1853
16821TIP3    H171954   5.059   4.856  16.738  1.4096 -0.6458  2.5441
16821TIP3    H271955   5.110   4.998  16.745 -0.5008  0.1896  0.6342
16822TIP3   OH271956   3.369   2.479   6.076 -0.1267  0.0620 -0.0221
16822TIP3    H171957   3.293   2.533   6.055 -1.5507 -1.9805 -0.4732
16822TIP3    H271958   3.364   2.467   6.171 -0.8106 -0.6283 -0.1333
16823TIP3   OH271959   5.630   3.825   5.112  0.6809  0.1175 -0.1564
16823TIP3    H171960   5.657   3.908   5.072  0.1691 -0.8108 -2.6768
16823TIP3    H271961   5.682   3.759   5.065 -0.1576 -1.0964  0.5814
16824TIP3   OH271962   5.580   3.506  16.595 -0.1905 -0.3589 -0.0532
16824TIP3    H171963   5.617   3.537  16.678  0.8610 -1.3735 -0.1207
16824TIP3    H271964   5.517   3.438  16.620 -1.1945  0.5493 -0.0128
16825TIP3   OH271965   5.161   0.549   4.446  0.2584 -0.1591 -0.0923
16825TIP3    H171966   5.083   0.604   4.459  0.1086 -0.5791  0.8749
16825TIP3    H271967   5.136   0.464   4.481  1.3763 -0.1176  0.8655
16826TIP3   OH271968   4.461   1.549  17.242  0.2835 -0.2731 -0.3548
16826TIP3    H171969   4.546   1.589  17.222  0.5264 -0.3372  0.5257
16826TIP3    H271970   4.429   1.519  17.157  1.9433 -1.8466 -0.4792
16827TIP3   OH271971   1.568   0.791  15.830 -0.3858  0.3466  0.1847
16827TIP3    H171972   1.612   0.756  15.753  0.6948  1.5619  0.2147
16827TIP3    H271973   1.523   0.870  15.798 -1.1125  0.0727  0.5148
16828TIP3   OH271974   4.070   6.131  15.830  0.1431 -0.4240  0.5571
16828TIP3    H171975   4.163   6.120  15.809  0.4181  0.4908  1.1926
16828TIP3    H271976   4.053   6.067  15.898  0.2431 -0.7735  0.2551
16829TIP3   OH271977   0.447   3.745   1.531  0.8700  0.4275  0.0713
16829TIP3    H171978   0.446   3.689   1.609 -2.2819 -1.5796 -1.2146
16829TIP3    H271979   0.466   3.833   1.564  2.4421 -0.7603  2.6518
16830TIP3   OH271980   6.789   0.682   0.940  0.4231  0.4428 -0.1189
16830TIP3    H171981   6.792   0.610   1.004  0.3956  0.4977 -0.0549
16830TIP3    H271982   6.770   0.639   0.857 -0.1691  0.4379  0.0139
16831TIP3   OH271983   1.919   1.293  11.823  0.3354 -0.3266  0.6445
16831TIP3    H171984   1.900   1.231  11.894  0.1073  0.4731  1.3095
16831TIP3    H271985   1.844   1.353  11.823  0.3508 -0.2921 -0.2576
16832TIP3   OH271986   2.228   0.868  15.022  0.5840  0.1410  0.3646
16832TIP3    H171987   2.215   0.934  14.953  1.8877  0.2460  0.2000
16832TIP3    H271988   2.283   0.912  15.087  1.8613 -0.9123  0.0349
16833TIP3   OH271989   3.030   4.992   4.927  0.0034  0.0624 -0.3467
16833TIP3    H171990   3.050   4.902   4.955  1.2030  0.6298  0.7166
16833TIP3    H271991   2.992   5.033   5.004 -1.5021  0.2050 -1.1300
16834TIP3   OH271992   3.894   0.084   1.936  0.7188  0.9033  0.4584
16834TIP3    H171993   3.980   0.069   1.896  0.8965  0.6898  0.9097
16834TIP3    H271994   3.906   0.060   2.029 -0.1179 -0.2461  0.2997
16835TIP3   OH271995   0.042   2.386   4.520 -0.1387  0.4851 -0.3882
16835TIP3    H171996  -0.045   2.419   4.543  0.2172  1.3732 -0.2865
16835TIP3    H271997   0.099   2.463   4.522  0.5112  0.0469 -1.1857
16836TIP3   OH271998   4.652   1.106   0.102  0.3579 -0.0935  0.2848
16836TIP3    H171999   4.569   1.059   0.100 -0.4141  1.2370 -0.1667
16836TIP3    H272000   4.634   1.184   0.153  1.2379  0.3875 -0.1217
16837TIP3   OH272001   3.917   2.265  14.388  0.9907  0.0531 -0.2559
16837TIP3    H172002   3.823   2.253  14.400  1.1194  0.3499  1.2557
16837TIP3    H272003   3.926   2.359  14.371  1.0245  0.0369 -0.3271
16838TIP3   OH272004   5.804   5.487   2.560 -0.1681 -0.1315  0.0549
16838TIP3    H172005   5.740   5.540   2.513 -1.1510 -0.7968  0.6045
16838TIP3    H272006   5.879   5.482   2.501 -1.2742 -0.7382 -1.3469
16839TIP3   OH272007   1.238   1.949  12.109  0.1914  0.1157  0.3792
16839TIP3    H172008   1.151   1.910  12.119  0.8906 -1.5853  0.1748
16839TIP3    H272009   1.250   2.001  12.189 -0.0201 -1.6986  1.6474
16840TIP3   OH272010   2.289   5.198   6.589 -0.5503 -0.1207  0.1237
16840TIP3    H172011   2.201   5.194   6.626 -0.8203 -0.3129 -0.5373
16840TIP3    H272012   2.296   5.286   6.553 -1.3416 -0.8455 -1.9256
16841TIP3   OH272013   4.420   0.774  17.186 -0.6962 -0.1227 -0.0475
16841TIP3    H172014   4.444   0.849  17.241  0.1795 -0.0816 -0.4719
16841TIP3    H272015   4.358   0.810  17.123 -0.6556  0.1376  0.0574
16842TIP3   OH272016   5.881   4.530  13.575 -0.3686  0.1607  0.3569
16842TIP3    H172017   5.855   4.518  13.667 -1.2385  0.0729  0.1072
16842TIP3    H272018   5.799   4.538  13.528  0.0300 -0.9591 -0.5818
16843TIP3   OH272019   5.479   6.821  16.094  0.3430  0.0294 -0.1509
16843TIP3    H172020   5.544   6.889  16.076 -0.1308  0.3649 -0.6363
16843TIP3    H272021   5.484   6.807  16.189  2.3363 -1.2007 -0.3752
16844TIP3   OH272022   4.098   2.288  13.834  0.0626  0.0273 -0.4106
16844TIP3    H172023   4.030   2.314  13.772 -2.6312 -1.5205  1.6553
16844TIP3    H272024   4.064   2.314  13.920  2.2056 -0.6343  0.7209
16845TIP3   OH272025   2.550   5.892  16.051 -0.3214  0.2007 -0.3932
16845TIP3    H172026   2.467   5.883  16.002 -0.8015  1.1705  0.1999
16845TIP3    H272027   2.534   5.848  16.134  0.6632 -1.8789 -1.2480
16846TIP3   OH272028   0.651   1.833  14.276  0.1625 -0.5161 -0.0913
16846TIP3    H172029   0.725   1.787  14.315  0.1673 -0.7624 -0.3975
16846TIP3    H272030   0.682   1.859  14.189  0.0604 -0.1869 -0.0326
16847TIP3   OH272031   2.032   0.504   5.899 -0.7190  0.1369 -0.4060
16847TIP3    H172032   2.100   0.556   5.941 -0.8922 -0.9497  1.3232
16847TIP3    H272033   1.950   0.542   5.931 -0.9121  0.5553 -1.3696
16848TIP3   OH272034   0.546   6.277  12.726 -0.9057 -0.3913  0.5356
16848TIP3    H172035   0.474   6.325  12.684 -0.6940  0.2520  0.8840
16848TIP3    H272036   0.512   6.189  12.741 -1.6501 -0.0702  0.7611
16849TIP3   OH272037   3.679   1.304   2.644  0.4279 -0.5214 -0.3424
16849TIP3    H172038   3.684   1.358   2.723 -0.1798 -1.1922  0.1715
16849TIP3    H272039   3.682   1.366   2.571  0.0608  0.1713  0.2298
16850TIP3   OH272040   2.182   3.463  16.859  0.2762 -0.1318 -0.2256
16850TIP3    H172041   2.152   3.463  16.950  1.4870  1.3125  0.2173
16850TIP3    H272042   2.243   3.537  16.854 -0.3103  0.2679 -2.4047
16851TIP3   OH272043   6.717   6.683   4.066 -0.5266 -0.3085 -0.3941
16851TIP3    H172044   6.704   6.739   3.989  0.9580 -1.9649 -1.9616
16851TIP3    H272045   6.640   6.698   4.120 -0.8718  2.1078 -1.4353
16852TIP3   OH272046   5.582   2.801  13.674  0.9615  0.5415  0.0904
16852TIP3    H172047   5.564   2.895  13.676 -1.9250  0.0804 -1.0272
16852TIP3    H272048   5.561   2.771  13.763  0.9025  0.7631  0.1521
16853TIP3   OH272049   0.778   2.152  13.358  0.3871 -0.1514 -0.1687
16853TIP3    H172050   0.867   2.160  13.393  0.2015  1.9712 -0.0525
16853TIP3    H272051   0.725   2.125  13.433  0.7430 -0.2777  0.0407
16854TIP3   OH272052   3.940   2.277  13.471  0.3257  0.1066  0.0739
16854TIP3    H172053   3.988   2.359  13.476 -0.5683  0.7820 -1.7097
16854TIP3    H272054   3.922   2.265  13.378 -2.5387 -0.3334  0.6002
16855TIP3   OH272055   4.672   4.415  10.230 -0.0289  0.7019  0.1299
16855TIP3    H172056   4.619   4.493  10.214 -0.2787  0.5339  0.1392
16855TIP3    H272057   4.730   4.440  10.303 -1.1321  0.3874  1.1431
16856TIP3   OH272058   5.789   3.077  13.105  0.0615 -0.0005  0.3563
16856TIP3    H172059   5.697   3.083  13.079  0.4873 -0.7690 -1.4770
16856TIP3    H272060   5.792   3.117  13.192 -1.6560  1.8054 -0.3465
16857TIP3   OH272061   0.576   5.008  11.663  0.7711 -0.1728  0.5414
16857TIP3    H172062   0.527   5.051  11.593  0.3446  0.3530  1.1502
16857TIP3    H272063   0.620   5.080  11.708  0.1459 -0.3753  1.5041
16858TIP3   OH272064   5.174   0.107   5.208  0.0162  0.2176 -0.6499
16858TIP3    H172065   5.100   0.156   5.242 -0.5809 -0.9127 -0.2823
16858TIP3    H272066   5.142   0.068   5.127  1.0683  1.9283 -1.9775
16859TIP3   OH272067   5.543   2.333   4.921 -0.6608 -0.0638  0.2890
16859TIP3    H172068   5.539   2.328   5.017  0.2950  0.4371  0.3636
16859TIP3    H272069   5.585   2.252   4.895 -1.4619 -0.4775  0.2359
16860TIP3   OH272070   3.501   6.543  12.737 -0.4965 -0.6589  0.7376
16860TIP3    H172071   3.574   6.596  12.769  0.0276 -1.2903  0.6195
16860TIP3    H272072   3.539   6.490  12.667 -0.6623 -2.1621  1.7351
16861TIP3   OH272073   0.868   6.612  14.053  0.1521  0.3139  0.0674
16861TIP3    H172074   0.777   6.633  14.076 -0.0474 -0.0026 -0.4161
16861TIP3    H272075   0.882   6.524  14.090  0.7287  0.9299  1.3886
16862TIP3   OH272076   1.616   5.059   4.683 -0.0674  0.6640  0.4462
16862TIP3    H172077   1.570   5.083   4.764 -0.3132 -0.3599  0.6270
16862TIP3    H272078   1.708   5.079   4.701  0.0410 -0.6176  1.4155
16863TIP3   OH272079   1.191   5.142   5.971  1.0310 -0.3207  0.1425
16863TIP3    H172080   1.243   5.144   6.052  0.4605 -0.8666  0.5308
16863TIP3    H272081   1.103   5.116   6.000  0.1184  2.0610 -0.2683
16864TIP3   OH272082   2.876   0.768   1.701 -0.0169 -0.1390  0.1255
16864TIP3    H172083   2.889   0.728   1.787  0.9418 -0.2623 -0.0636
16864TIP3    H272084   2.885   0.695   1.640  0.4780  0.1438 -0.1456
16865TIP3   OH272085   3.018   2.673  12.563 -0.0151 -0.0911 -0.5392
16865TIP3    H172086   2.926   2.670  12.590  0.4213 -0.1014  1.0507
16865TIP3    H272087   3.024   2.609  12.493 -0.7710 -1.7959  0.8706
16866TIP3   OH272088   1.299   3.518  14.155 -0.3152 -0.0451  0.0387
16866TIP3    H172089   1.300   3.537  14.061 -0.1388  0.1335  0.0762
16866TIP3    H272090   1.390   3.501  14.177 -0.2596  0.5847  0.3119
16867TIP3   OH272091   1.947   6.142   2.369  0.4828  0.6349  0.3366
16867TIP3    H172092   1.993   6.130   2.452  1.0609 -1.5102 -0.2464
16867TIP3    H272093   1.917   6.055   2.345 -2.6514  1.7129 -0.0735
16868TIP3   OH272094   1.892   4.964   1.379 -0.2366  0.4272  0.1991
16868TIP3    H172095   1.804   4.997   1.361 -0.2137  1.4292  1.7135
16868TIP3    H272096   1.897   4.960   1.475  1.8634  1.8785  0.2234
16869TIP3   OH272097   2.144   6.030  12.369 -0.5118  0.0929 -0.0183
16869TIP3    H172098   2.110   5.941  12.363 -0.4451  0.0096  0.6969
16869TIP3    H272099   2.095   6.080  12.305 -0.6437 -0.4328 -0.3285
16870TIP3   OH272100   6.501   1.311   1.407  0.0258 -0.7936 -0.4103
16870TIP3    H172101   6.561   1.348   1.473 -0.9878  1.1977 -0.5117
16870TIP3    H272102   6.556   1.255   1.353  1.3082 -0.8621  0.9042
16871TIP3   OH272103   1.304   4.599   1.658 -0.1078 -0.1649  0.4398
16871TIP3    H172104   1.212   4.615   1.640  0.1430  1.4214  0.4588
16871TIP3    H272105   1.338   4.682   1.690  2.0047  0.1737 -2.2832
16872TIP3   OH272106   3.943   6.295   2.398 -0.4044 -0.3998 -0.1803
16872TIP3    H172107   3.977   6.322   2.312 -0.7999 -0.0792 -0.2389
16872TIP3    H272108   4.018   6.255   2.442 -0.0971 -0.2120 -0.5266
16873TIP3   OH272109   5.406   1.417  11.956  0.5324  0.3056  0.2951
16873TIP3    H172110   5.356   1.355  12.010  1.5160 -0.4090  0.4122
16873TIP3    H272111   5.453   1.362  11.893 -0.8972  1.1445 -1.6027
16874TIP3   OH272112   1.176   1.712  14.377  0.2268 -0.4272  0.3159
16874TIP3    H172113   1.216   1.645  14.433  0.1687 -0.8608 -0.1657
16874TIP3    H272114   1.245   1.736  14.315  0.6082  0.7252  1.1325
16875TIP3   OH272115   5.770   4.246   0.556  0.2471 -0.2499  0.2414
16875TIP3    H172116   5.735   4.328   0.593 -0.5216  0.6250 -2.1960
16875TIP3    H272117   5.722   4.177   0.602 -1.3720  0.8041  0.2482
16876TIP3   OH272118   5.453   3.896  12.098 -0.1426 -0.1235  0.0394
16876TIP3    H172119   5.511   3.874  12.025 -0.1817  2.0569 -0.7162
16876TIP3    H272120   5.395   3.820  12.105  2.7482 -2.4311  0.8989
16877TIP3   OH272121   0.666   2.066  12.915  0.0951  0.6005  0.0619
16877TIP3    H172122   0.592   2.107  12.961  1.4291 -0.2049  3.1411
16877TIP3    H272123   0.743   2.097  12.962  1.4949 -1.2970 -0.8760
16878TIP3   OH272124   2.266   0.258  12.305 -0.2707  0.0862  0.4034
16878TIP3    H172125   2.177   0.245  12.337 -0.2804 -1.2714 -0.1265
16878TIP3    H272126   2.321   0.214  12.368 -0.2827 -2.5228 -1.2752
16879TIP3   OH272127   4.917   2.869   3.107  0.5326  0.0418  0.3437
16879TIP3    H172128   4.935   2.782   3.069  0.4185  0.1454  0.0521
16879TIP3    H272129   4.850   2.906   3.051  0.7883  0.4386  0.2995
16880TIP3   OH272130   5.804   5.575   6.058  0.0236  0.8169 -0.4306
16880TIP3    H172131   5.709   5.575   6.072 -0.2084 -0.8928 -1.6441
16880TIP3    H272132   5.840   5.598   6.143 -1.4627 -0.0355  0.4872
16881TIP3   OH272133   1.714   0.835  14.503  0.2810  0.3484 -1.1111
16881TIP3    H172134   1.772   0.881  14.564 -0.7410  1.9282 -1.2748
16881TIP3    H272135   1.756   0.751  14.489  1.5378  0.7047  0.2664
16882TIP3   OH272136   0.480   6.224  14.725 -0.0952 -0.7148  0.1981
16882TIP3    H172137   0.485   6.229  14.820 -0.3511  0.2350  0.1707
16882TIP3    H272138   0.557   6.172  14.699  0.6239  0.0189  0.8340
16883TIP3   OH272139   1.408   4.511   2.256  0.0509 -0.2810  0.6082
16883TIP3    H172140   1.404   4.606   2.270  0.6849 -0.3055  0.9817
16883TIP3    H272141   1.465   4.500   2.180 -0.4014 -0.3476  0.2689
16884TIP3   OH272142   0.911   6.082   5.377  0.0600  0.2121 -0.1356
16884TIP3    H172143   0.822   6.116   5.377 -0.1494 -0.3171 -0.3665
16884TIP3    H272144   0.961   6.144   5.430 -0.7910 -0.4003  1.4386
16885TIP3   OH272145   6.716   0.339   1.430 -0.5693 -0.2927  0.1416
16885TIP3    H172146   6.692   0.275   1.363  0.1430 -0.5063  0.0809
16885TIP3    H272147   6.638   0.347   1.485 -0.1951 -2.3538  1.0537
16886TIP3   OH272148   1.019   4.652   0.109 -0.5670  0.0725 -0.5027
16886TIP3    H172149   1.006   4.585   0.041 -0.1912  0.0407 -0.5434
16886TIP3    H272150   0.966   4.726   0.080 -1.9758 -0.6392  0.1641
16887TIP3   OH272151   2.615   3.893  13.500 -0.2840  0.4035  0.0181
16887TIP3    H172152   2.559   3.916  13.574 -0.1737  0.1470  0.1834
16887TIP3    H272153   2.560   3.907  13.423 -1.4209 -2.1669  0.2680
16888TIP3   OH272154   5.082   3.750  13.489  0.1081 -0.0391 -0.5947
16888TIP3    H172155   5.020   3.814  13.525  0.3417 -0.5322  0.7193
16888TIP3    H272156   5.134   3.801  13.427  1.1075  1.3927  1.2950
16889TIP3   OH272157   2.044   2.939  16.217  0.3868  0.3905 -0.5486
16889TIP3    H172158   2.048   2.940  16.313 -1.1322 -0.1094 -0.4634
16889TIP3    H272159   2.126   2.982  16.190  2.2642 -2.0083  0.9009
16890TIP3   OH272160   2.868   3.766  13.939 -0.1072 -0.1611  0.1948
16890TIP3    H172161   2.824   3.688  13.905 -1.4629  0.5061  0.3924
16890TIP3    H272162   2.949   3.732  13.977 -0.8703 -1.5390  0.6573
16891TIP3   OH272163   5.898   1.475  11.793  0.5292  0.1125  0.1836
16891TIP3    H172164   5.879   1.428  11.711  0.2254  0.6056 -0.0323
16891TIP3    H272165   5.903   1.406  11.859  1.7965 -0.4022 -0.4133
16892TIP3   OH272166   3.540   0.841   3.385  0.0058 -0.5183  0.2397
16892TIP3    H172167   3.604   0.770   3.398 -0.6061 -1.0319  0.4850
16892TIP3    H272168   3.463   0.797   3.350  0.1451  0.2585 -1.0964
16893TIP3   OH272169   5.671   3.216  12.393 -0.4823  0.2060 -0.4790
16893TIP3    H172170   5.665   3.160  12.471 -1.7979 -0.4987 -1.0617
16893TIP3    H272171   5.765   3.221  12.376 -0.2252 -0.3700  0.6240
16894TIP3   OH272172   3.573   5.718  15.524 -0.5022 -0.1599 -0.1664
16894TIP3    H172173   3.535   5.762  15.601  1.6225  2.5919 -0.5204
16894TIP3    H272174   3.615   5.640  15.560 -3.0720 -1.2521  0.7497
16895TIP3   OH272175   2.740   2.576   0.250 -0.8617 -0.3817  0.8241
16895TIP3    H172176   2.671   2.515   0.277  0.1684 -1.9848  0.0369
16895TIP3    H272177   2.789   2.528   0.183  1.3739  0.4613  1.7549
16896TIP3   OH272178   6.447   6.359   1.610  0.2312  0.5090 -0.7311
16896TIP3    H172179   6.415   6.300   1.678 -1.3476  0.3795 -1.5487
16896TIP3    H272180   6.378   6.425   1.601  2.1549  2.8557  0.5159
16897TIP3   OH272181   0.605   2.889   0.640  0.0848  0.4193 -0.6651
16897TIP3    H172182   0.515   2.901   0.671 -0.1353  0.2474 -1.2223
16897TIP3    H272183   0.596   2.841   0.558  0.8793 -3.6286  1.3214
16898TIP3   OH272184   3.392   2.576  11.261 -0.2449 -0.1146  0.2928
16898TIP3    H172185   3.471   2.522  11.267 -0.5658 -0.6226 -0.0244
16898TIP3    H272186   3.320   2.516  11.280 -0.8555 -0.4646 -2.7284
16899TIP3   OH272187   2.619   0.807   0.172 -0.2422  0.4094  0.1357
16899TIP3    H172188   2.596   0.819   0.079  0.9427  1.5714 -0.0491
16899TIP3    H272189   2.542   0.836   0.220 -1.1107 -0.8009 -0.4735
16900TIP3   OH272190   2.494   4.764  17.198  0.2498 -0.4906  0.2596
16900TIP3    H172191   2.489   4.849  17.154  1.4553 -0.2371  0.6000
16900TIP3    H272192   2.406   4.751  17.233 -0.0180  0.4932 -0.0074
16901TIP3   OH272193   6.331   4.186   1.115  0.2777  0.2773 -0.3213
16901TIP3    H172194   6.251   4.239   1.107 -1.2070 -1.8002  0.0843
16901TIP3    H272195   6.325   4.146   1.202  1.6690 -0.1041 -0.3685
16902TIP3   OH272196   3.000   5.089   0.098  0.6331 -0.0758 -0.1919
16902TIP3    H172197   2.996   5.092   0.002 -0.1234  0.1906 -0.1541
16902TIP3    H272198   2.936   5.153   0.127 -1.3181 -2.2055  0.5062
16903TIP3   OH272199   0.580   5.010  13.043 -0.0010  0.0533  0.0530
16903TIP3    H172200   0.544   4.932  13.000 -0.9170 -0.6087  1.9115
16903TIP3    H272201   0.639   4.974  13.110 -0.0779  0.9760  0.6201
16904TIP3   OH272202   6.556   5.052  13.999 -0.0384 -0.2751 -0.2973
16904TIP3    H172203   6.600   5.013  13.924  0.4194  0.5818 -0.4883
16904TIP3    H272204   6.626   5.098  14.047 -0.5496  0.2847 -0.0710
16905TIP3   OH272205   0.094   4.700   3.177 -0.2288  0.2106  0.3145
16905TIP3    H172206   0.156   4.747   3.120  0.7650  0.6548  1.7054
16905TIP3    H272207   0.128   4.611   3.181 -1.4151 -0.3476 -1.3308
16906TIP3   OH272208   6.173   6.244  16.790  0.4134 -0.6725  0.2793
16906TIP3    H172209   6.265   6.263  16.812  0.4276  1.0360 -1.0165
16906TIP3    H272210   6.123   6.278  16.864  0.6430  2.1174 -0.7093
16907TIP3   OH272211   3.628   2.250  12.778  0.2092  0.1446 -0.1425
16907TIP3    H172212   3.624   2.293  12.863 -1.1121  0.8168 -0.5260
16907TIP3    H272213   3.601   2.160  12.795 -1.6542  0.6814 -0.0853
16908TIP3   OH272214   4.224   3.949  14.001 -0.3827  0.1856  0.0719
16908TIP3    H172215   4.156   3.895  14.040 -1.3763  1.0686 -0.4015
16908TIP3    H272216   4.230   4.025  14.059 -0.2503  0.4167 -0.2437
16909TIP3   OH272217   3.397   5.989  15.567 -0.0634  0.1579  0.3814
16909TIP3    H172218   3.344   6.016  15.642  0.9070  1.2697  0.6993
16909TIP3    H272219   3.336   5.988  15.493 -1.1691 -1.5073  1.2315
16910TIP3   OH272220   0.952   1.719  13.546  0.4471  0.2839  0.1370
16910TIP3    H172221   0.982   1.683  13.463  0.0151  0.5486 -0.1375
16910TIP3    H272222   0.971   1.650  13.610  0.9943  0.1745 -0.1383
16911TIP3   OH272223   6.369   4.988   4.752  0.1994  0.3536  0.5539
16911TIP3    H172224   6.434   5.058   4.740 -0.3224  0.9187  0.9532
16911TIP3    H272225   6.379   4.932   4.675  0.0852  1.3026 -0.1671
16912TIP3   OH272226   2.982   0.411   2.208 -0.2087 -0.6278 -0.1720
16912TIP3    H172227   3.021   0.324   2.218  0.0103 -0.7829 -2.0624
16912TIP3    H272228   3.018   0.444   2.126 -0.0878  1.3868  0.6547
16913TIP3   OH272229   5.984   4.105  16.693 -0.2719  0.6842 -0.2701
16913TIP3    H172230   5.956   4.028  16.742 -0.7646 -0.2269 -1.9161
16913TIP3    H272231   5.912   4.121  16.631  0.3542  1.7577 -0.7485
16914TIP3   OH272232   4.183   3.138  15.640 -0.0827  0.1641 -0.4602
16914TIP3    H172233   4.241   3.193  15.588 -1.1039  0.5933 -1.1796
16914TIP3    H272234   4.103   3.131  15.588 -1.2390  0.8062  1.1476
16915TIP3   OH272235   3.049   4.191   1.801  0.2350  0.1835 -0.0554
16915TIP3    H172236   3.097   4.110   1.818 -1.8099 -0.9447  0.8319
16915TIP3    H272237   3.011   4.214   1.886 -0.7743  0.9947 -0.6947
16916TIP3   OH272238   0.733   3.512  13.811  0.8700  0.4786 -0.2137
16916TIP3    H172239   0.703   3.600  13.786 -0.7545  0.7254  2.1833
16916TIP3    H272240   0.810   3.528  13.866  0.2859  0.4785  0.6267
16917TIP3   OH272241   6.158   2.298   5.047  0.4260 -0.2006  0.8286
16917TIP3    H172242   6.138   2.215   5.003  2.1227  0.4987 -1.4767
16917TIP3    H272243   6.126   2.365   4.987  2.9933  0.8078  0.4626
16918TIP3   OH272244   2.196   5.670   1.367  0.3707 -0.1347  0.1355
16918TIP3    H172245   2.122   5.609   1.368 -1.0771  1.5538  0.9588
16918TIP3    H272246   2.158   5.755   1.389  2.7281  0.5877  1.9164
16919TIP3   OH272247   0.116   3.254  12.397  0.1029 -0.1965 -0.1749
16919TIP3    H172248   0.083   3.165  12.385  0.0825 -0.3495  0.9636
16919TIP3    H272249   0.153   3.255  12.485 -0.6683  1.1633  0.1605
16920TIP3   OH272250   3.023   1.033  16.915 -0.4500  0.3080 -0.0199
16920TIP3    H172251   2.931   1.059  16.904 -0.0377  1.2741 -1.4177
16920TIP3    H272252   3.038   1.040  17.010 -1.5606  1.0309  0.1269
16921TIP3   OH272253   1.108   5.945  13.623 -0.1616 -0.0081 -0.5561
16921TIP3    H172254   1.110   5.941  13.718  0.1634 -0.1621 -0.5678
16921TIP3    H272255   1.130   5.856  13.595  2.8968  0.7074 -0.8001
16922TIP3   OH272256   3.610   6.440   1.050  0.0336 -0.3230 -0.1160
16922TIP3    H172257   3.633   6.480   1.134  1.1472 -0.2220 -0.4449
16922TIP3    H272258   3.548   6.501   1.011 -0.8179 -0.5748  0.7961
16923TIP3   OH272259   4.525   4.593   1.695 -0.2113 -0.0106 -0.1562
16923TIP3    H172260   4.450   4.625   1.746  0.3391  1.0455  0.0254
16923TIP3    H272261   4.569   4.673   1.666  1.3444 -0.5989  0.5018
16924TIP3   OH272262   1.750   6.773  15.176 -0.2689  0.8004  0.3609
16924TIP3    H172263   1.694   6.813  15.242 -0.1520  1.7845 -0.1173
16924TIP3    H272264   1.754   6.681  15.200 -3.9547  0.1718 -0.8710
16925TIP3   OH272265   1.429   3.664  14.894 -0.2340  0.8571 -0.1009
16925TIP3    H172266   1.366   3.708  14.951  0.9038  0.9363  1.1481
16925TIP3    H272267   1.477   3.605  14.952 -2.4939 -3.1127 -1.8548
16926TIP3   OH272268   1.374   0.704  11.342  0.2680  0.3470  0.1189
16926TIP3    H172269   1.467   0.687  11.326 -0.0417 -1.2880 -0.0657
16926TIP3    H272270   1.345   0.629  11.394 -1.2301  0.2042 -0.8773
16927TIP3   OH272271   0.743   5.719  15.816 -0.0678 -0.2990 -0.0206
16927TIP3    H172272   0.659   5.679  15.837  0.7498 -1.9484  0.3111
16927TIP3    H272273   0.787   5.654  15.760  0.3550  1.2357 -1.5651
16928TIP3   OH272274   4.196   3.983   1.956 -0.7440  0.3684 -0.2172
16928TIP3    H172275   4.147   3.931   1.892  0.0091 -0.1103 -0.4176
16928TIP3    H272276   4.251   4.040   1.902 -2.5869  2.4473 -0.0348
16929TIP3   OH272277   3.936   2.567   4.868  0.6987 -0.0083  0.1636
16929TIP3    H172278   3.950   2.493   4.808 -1.0835 -0.6769  0.4983
16929TIP3    H272279   3.885   2.630   4.816  0.6550  0.1782  0.4330
16930TIP3   OH272280   1.831   0.802   2.725  0.0348 -0.2471 -0.3082
16930TIP3    H172281   1.900   0.814   2.659 -0.6260 -0.5075 -1.0580
16930TIP3    H272282   1.797   0.714   2.708  1.8709 -1.6084  2.3280
16931TIP3   OH272283   0.608   5.942  14.624  0.0185 -1.5102 -0.6285
16931TIP3    H172284   0.630   5.851  14.606  0.8459 -1.1661 -1.4274
16931TIP3    H272285   0.618   5.951  14.719  0.5029 -2.1095 -0.6169
16932TIP3   OH272286   2.441   3.207  14.020 -0.0434  0.4094  0.6486
16932TIP3    H172287   2.441   3.302  14.030 -0.1334  0.5057 -0.1926
16932TIP3    H272288   2.376   3.190  13.951  1.9487 -0.0168 -1.2448
16933TIP3   OH272289   2.943   1.955   2.909 -0.0145  0.5213  0.0497
16933TIP3    H172290   2.940   1.860   2.917  0.6674  0.4708 -0.1774
16933TIP3    H272291   2.950   1.971   2.814 -2.0562  0.8787 -0.0913
16934TIP3   OH272292   6.765   3.768  13.068 -0.6556  0.6897  0.0891
16934TIP3    H172293   6.803   3.695  13.115  1.2610  1.3864 -0.2991
16934TIP3    H272294   6.779   3.747  12.975  0.0731  1.5945 -0.0233
16935TIP3   OH272295   2.280   3.224   3.205 -0.1642  0.1150  0.3432
16935TIP3    H172296   2.247   3.296   3.151  1.5663  0.7845  0.0918
16935TIP3    H272297   2.213   3.210   3.271 -1.4362  0.6052 -0.8067
16936TIP3   OH272298   5.540   3.208   4.078 -0.4107 -0.0907  0.1955
16936TIP3    H172299   5.586   3.159   4.011 -0.2366 -2.3427  1.8313
16936TIP3    H272300   5.476   3.261   4.030 -0.1535 -1.4287 -1.7200
16937TIP3   OH272301   3.799   1.947   1.248  0.7701 -0.0754 -0.3587
16937TIP3    H172302   3.831   2.019   1.303 -0.3808  1.1389 -1.1964
16937TIP3    H272303   3.763   1.884   1.311 -0.0293  1.0277  0.3395
16938TIP3   OH272304   1.728   1.240  16.392 -0.0108 -0.1085  0.1892
16938TIP3    H172305   1.690   1.325  16.370 -1.3268 -0.7532 -0.1594
16938TIP3    H272306   1.767   1.209  16.310  1.4343  0.6116  0.5778
16939TIP3   OH272307   3.563   2.609   5.941 -0.2232  0.6534 -0.1968
16939TIP3    H172308   3.596   2.557   5.868  1.6075  1.9965 -0.4011
16939TIP3    H272309   3.506   2.549   5.989 -1.0700 -0.4166 -2.4011
16940TIP3   OH272310   1.758   2.906  12.655  0.0122 -0.6759  0.1503
16940TIP3    H172311   1.678   2.854  12.649 -0.3687  0.0160 -1.2011
16940TIP3    H272312   1.812   2.875  12.582 -0.0088  0.4704 -0.3661
16941TIP3   OH272313   4.273   3.494   0.185  0.3462  0.4353  0.1478
16941TIP3    H172314   4.221   3.453   0.254 -1.1429 -1.4118 -1.9458
16941TIP3    H272315   4.225   3.573   0.163  0.0464  0.2872  0.2599
16942TIP3   OH272316   5.713   0.622   0.894  0.2644  0.2976 -0.0200
16942TIP3    H172317   5.792   0.638   0.842  1.4869  1.5819  2.0973
16942TIP3    H272318   5.717   0.688   0.963 -2.0459 -0.4230  0.8591
16943TIP3   OH272319   4.225   5.147  12.338 -0.0014 -0.1434  0.0278
16943TIP3    H172320   4.307   5.191  12.358 -0.3657  0.9187 -0.7197
16943TIP3    H272321   4.157   5.205  12.372 -0.4489 -1.0277  0.6701
16944TIP3   OH272322   6.260   6.013  13.277 -0.2887 -0.0808 -0.3550
16944TIP3    H172323   6.296   5.980  13.195  0.9596  2.0766 -0.7586
16944TIP3    H272324   6.270   6.108  13.270  0.6993  0.1165  2.6740
16945TIP3   OH272325   3.922   5.390  15.381  0.1377  0.7989 -0.0651
16945TIP3    H172326   3.898   5.353  15.296 -0.6552  0.0121  0.4788
16945TIP3    H272327   3.938   5.483  15.364 -0.8537  0.8249 -0.9154
16946TIP3   OH272328   5.717   2.085  16.484 -0.2864 -0.1087 -0.2114
16946TIP3    H172329   5.663   2.052  16.412 -1.2111 -1.9627  1.2541
16946TIP3    H272330   5.794   2.029  16.485 -1.4331 -1.7929  1.7118
16947TIP3   OH272331   6.043   2.206   1.219  0.2756 -0.3426  0.2157
16947TIP3    H172332   6.078   2.197   1.308 -0.2053  1.4369  0.6210
16947TIP3    H272333   6.119   2.231   1.166  0.1595  0.8718  0.5883
16948TIP3   OH272334   6.496   0.259  15.146 -0.0373 -0.4556  0.0296
16948TIP3    H172335   6.591   0.271  15.142  0.0804 -0.6452  1.5550
16948TIP3    H272336   6.467   0.267  15.055  0.9986  3.1193 -0.1644
16949TIP3   OH272337   2.000   4.510   1.876 -0.2426  0.1258 -0.4076
16949TIP3    H172338   1.999   4.430   1.929  1.3471  0.0475 -0.4428
16949TIP3    H272339   1.993   4.478   1.786 -2.8185  0.2527 -0.3374
16950TIP3   OH272340   5.480   0.881  14.057  0.1431  0.0395  0.0884
16950TIP3    H172341   5.415   0.858  13.991  0.5497 -0.1339 -0.2530
16950TIP3    H272342   5.551   0.819  14.043 -0.4217 -1.0574  1.6924
16951TIP3   OH272343   4.384   4.584  13.175 -0.1860 -0.2418 -0.0373
16951TIP3    H172344   4.356   4.509  13.123 -0.8297  1.1734 -1.8281
16951TIP3    H272345   4.426   4.643  13.112 -1.6914  1.8989  0.8166
16952TIP3   OH272346   4.270   4.954   3.586  0.3500 -0.0118 -0.3541
16952TIP3    H172347   4.272   4.970   3.680  2.8432  0.9624 -0.4839
16952TIP3    H272348   4.238   4.864   3.577  1.2414 -0.5639  1.5243
16953TIP3   OH272349   4.028   0.972  12.289  0.1909  0.0486  0.0076
16953TIP3    H172350   4.050   1.012  12.373 -0.9610 -0.4806  0.5849
16953TIP3    H272351   3.996   1.044  12.235  0.1821  0.2594  0.2933
16954TIP3   OH272352   0.619   4.774  16.972 -0.1509 -0.2174 -0.4326
16954TIP3    H172353   0.607   4.727  16.890 -0.3832  0.3045 -0.6995
16954TIP3    H272354   0.612   4.866  16.948 -1.6146 -0.0890  0.3955
16955TIP3   OH272355   3.050   2.649  16.389 -0.3020 -0.5526  0.1194
16955TIP3    H172356   3.003   2.732  16.398 -1.5259 -1.1539 -0.4765
16955TIP3    H272357   3.123   2.656  16.450  0.5491  1.5844 -1.0166
16956TIP3   OH272358   0.650   5.520  12.859  0.0744 -0.5492 -0.1736
16956TIP3    H172359   0.625   5.440  12.811 -0.5384 -0.2172 -0.4208
16956TIP3    H272360   0.644   5.495  12.951 -0.7046 -0.6302 -0.2352
16957TIP3   OH272361   5.164   4.470   4.685 -0.1883  0.4659 -0.0350
16957TIP3    H172362   5.223   4.467   4.760 -0.0715  1.5899 -0.0613
16957TIP3    H272363   5.192   4.397   4.630  0.7613  0.5927  0.2567
16958TIP3   OH272364   6.577   3.115  16.936 -0.1254 -0.1995 -0.2979
16958TIP3    H172365   6.498   3.086  16.982 -0.9217 -0.5282 -1.8073
16958TIP3    H272366   6.572   3.211  16.939 -0.7304 -0.2148 -0.6010
16959TIP3   OH272367   2.279   3.598   2.918  0.6128  0.3156 -0.6402
16959TIP3    H172368   2.269   3.617   2.824  2.5764 -2.5019 -1.5464
16959TIP3    H272369   2.369   3.624   2.938  0.4071  0.3138  0.3186
16960TIP3   OH272370   3.837   6.019   4.575 -0.2143  0.5721  0.3425
16960TIP3    H172371   3.894   6.067   4.636  0.4278 -0.4168  0.5559
16960TIP3    H272372   3.895   5.955   4.534 -1.0183  0.0718 -0.0348
16961TIP3   OH272373   0.178   5.499  15.864 -0.1515  0.2243 -0.0483
16961TIP3    H172374   0.223   5.496  15.949 -1.7741  1.8812  0.9570
16961TIP3    H272375   0.124   5.420  15.862 -0.7774  0.6099  0.9032
16962TIP3   OH272376   1.617   2.560   0.272  0.4058  0.4912 -0.1901
16962TIP3    H172377   1.631   2.636   0.217 -1.2145  0.4736 -0.6977
16962TIP3    H272378   1.584   2.492   0.212 -0.8538  0.3004  0.6631
16963TIP3   OH272379   1.367   6.270  15.264  0.0932 -0.6668  0.3787
16963TIP3    H172380   1.291   6.296  15.317  0.1340 -0.9067  0.5577
16963TIP3    H272381   1.442   6.310  15.309 -0.0679  0.9042 -0.6796
16964TIP3   OH272382   2.827   4.100  16.645  0.2592 -0.3370  0.0336
16964TIP3    H172383   2.851   4.076  16.734  1.7555 -0.8072 -0.4662
16964TIP3    H272384   2.833   4.195  16.643  0.0828 -0.3160  0.4738
16965TIP3   OH272385   3.594   3.103   4.613 -0.2558 -0.5313  0.1661
16965TIP3    H172386   3.528   3.049   4.656 -0.3491 -1.1727 -0.7610
16965TIP3    H272387   3.566   3.108   4.522  0.6296 -0.2666 -0.1033
16966TIP3   OH272388   2.851   6.391   3.875 -0.3400  0.1722 -0.0719
16966TIP3    H172389   2.906   6.319   3.845 -0.8070 -0.1271 -0.2171
16966TIP3    H272390   2.761   6.357   3.870 -0.4463  0.0415  1.8051
16967TIP3   OH272391   6.045   4.016  14.485  0.0886  0.0804  0.4435
16967TIP3    H172392   5.960   3.973  14.496 -0.3814  0.7499 -0.3791
16967TIP3    H272393   6.038   4.096  14.538 -0.2622  0.7308 -0.5465
16968TIP3   OH272394   0.592   5.683   6.522 -0.3433 -0.1034 -0.3939
16968TIP3    H172395   0.511   5.730   6.505  0.2014  1.0512  0.0979
16968TIP3    H272396   0.651   5.712   6.453  0.8993  2.2247  1.4797
16969TIP3   OH272397   4.483   0.275   4.060  0.1377  1.2464 -0.0861
16969TIP3    H172398   4.484   0.188   4.100 -2.1974  0.2837 -1.8641
16969TIP3    H272399   4.473   0.335   4.134 -0.2645 -0.1552  1.0556
16970TIP3   OH272400   6.632   1.770   2.882  0.0790 -0.0403  0.8232
16970TIP3    H172401   6.719   1.790   2.847 -0.7455  0.0623 -1.3296
16970TIP3    H272402   6.616   1.679   2.857 -1.3966  0.6767 -1.1181
16971TIP3   OH272403   0.685   6.019  13.558  0.0997  0.4577 -0.4030
16971TIP3    H172404   0.610   6.077  13.567  1.3488  2.0308  0.3608
16971TIP3    H272405   0.738   6.058  13.489  1.2344  0.5919  0.5033
16972TIP3   OH272406   3.348   6.676   4.318 -0.1589  0.6099  0.2950
16972TIP3    H172407   3.286   6.709   4.254  1.1607  1.1580 -0.7399
16972TIP3    H272408   3.293   6.645   4.391 -1.6504  0.5232 -0.8181
16973TIP3   OH272409   3.620   6.320   3.815 -0.3775 -0.0271  0.2734
16973TIP3    H172410   3.708   6.350   3.790 -0.9811  0.3557 -1.5174
16973TIP3    H272411   3.596   6.256   3.748 -0.1071 -2.9062  2.6758
16974TIP3   OH272412   0.638   2.528   5.333  0.3376  0.6557  0.0180
16974TIP3    H172413   0.676   2.441   5.319  0.7100  0.9157 -0.6083
16974TIP3    H272414   0.575   2.515   5.403 -0.8336 -0.4876 -1.1908
16975TIP3   OH272415   1.534   1.512   0.640  0.2088  0.0891 -0.0080
16975TIP3    H172416   1.530   1.467   0.725  2.1224 -0.5865 -0.2428
16975TIP3    H272417   1.612   1.567   0.645  0.1135  0.3514 -1.1901
16976TIP3   OH272418   2.053   1.051  16.955 -0.1673  0.0866  0.7618
16976TIP3    H172419   1.999   1.007  16.890  0.4081  1.2627 -0.5817
16976TIP3    H272420   2.108   0.982  16.991 -0.9300 -0.7025  0.4504
16977TIP3   OH272421   3.782   0.121  14.884  0.0109  0.3650 -0.5142
16977TIP3    H172422   3.747   0.062  14.818 -0.9055 -0.9248  1.0673
16977TIP3    H272423   3.718   0.192  14.890  0.3024  0.7079 -1.2562
16978TIP3   OH272424   3.378   0.046   1.350 -0.0054 -0.0775  0.2986
16978TIP3    H172425   3.440   0.090   1.408 -0.2689  0.6385  0.0463
16978TIP3    H272426   3.433  -0.010   1.294  0.1797 -1.4746  1.8002
16979TIP3   OH272427   0.164   3.946  16.345 -0.2248  0.0168  0.5466
16979TIP3    H172428   0.211   3.954  16.262  0.2091  1.1061  0.8766
16979TIP3    H272429   0.214   4.002  16.406 -1.2386  0.2114  1.2222
16980TIP3   OH272430   6.675   0.885  10.574 -0.5599 -0.2074  0.5481
16980TIP3    H172431   6.716   0.866  10.658 -1.8500 -0.1767  1.1993
16980TIP3    H272432   6.748   0.883  10.511  0.2534 -1.3228  1.4812
16981TIP3   OH272433   4.729   0.204  16.518 -0.0021  0.0076 -0.7300
16981TIP3    H172434   4.659   0.154  16.478  1.6899 -3.1485 -0.0884
16981TIP3    H272435   4.751   0.156  16.598  1.7674  1.7965 -0.0453
16982TIP3   OH272436   6.764   0.771   4.413  0.3348  0.4213  0.4125
16982TIP3    H172437   6.760   0.679   4.387 -1.1920  0.1787  1.3991
16982TIP3    H272438   6.846   0.779   4.461  0.7957 -0.2549 -0.2449
16983TIP3   OH272439   2.382   3.465  16.195  0.3489 -0.0604  1.1650
16983TIP3    H172440   2.323   3.397  16.161  1.3125 -0.6668  0.6520
16983TIP3    H272441   2.466   3.420  16.208  0.8953  0.9344  1.2013
16984TIP3   OH272442   3.079   3.936   4.076 -0.1938  0.6344 -0.3560
16984TIP3    H172443   3.069   3.863   4.015  1.1767  0.6244 -0.6009
16984TIP3    H272444   3.141   3.994   4.034  1.5781  0.1515  1.4212
16985TIP3   OH272445   5.735   4.221  14.125  0.5051 -0.7446 -0.1197
16985TIP3    H172446   5.805   4.286  14.131  0.3032 -0.3419 -1.6813
16985TIP3    H272447   5.707   4.224  14.033  0.1854 -2.7455 -0.1242
16986TIP3   OH272448   4.998   2.992  15.999 -0.3887  0.5295 -0.1237
16986TIP3    H172449   4.970   2.971  15.910  0.3662 -1.4860  0.0655
16986TIP3    H272450   5.091   3.013  15.991 -0.2948  0.2386  0.2154
16987TIP3   OH272451   0.449   0.288  11.403 -0.0695  0.1757 -0.2762
16987TIP3    H172452   0.528   0.294  11.350 -0.7793  1.1624 -1.2725
16987TIP3    H272453   0.457   0.360  11.466 -1.0356  1.5449 -1.6445
16988TIP3   OH272454   3.689   3.313  16.697 -0.2731 -0.8847 -0.0736
16988TIP3    H172455   3.725   3.226  16.714  2.4084  0.5339  2.3387
16988TIP3    H272456   3.705   3.362  16.778 -1.2734  2.0060 -1.4830
16989TIP3   OH272457   4.840   0.462   3.549 -0.4585 -0.2460  0.7606
16989TIP3    H172458   4.804   0.455   3.637  1.6583  0.6354  1.7610
16989TIP3    H272459   4.898   0.538   3.552  0.1665 -0.5698 -1.2112
16990TIP3   OH272460   1.391   5.918  14.598 -0.0549  0.3765  0.2281
16990TIP3    H172461   1.409   5.934  14.691 -0.0034 -1.0247  0.4866
16990TIP3    H272462   1.457   5.854  14.572 -1.1326 -0.5531 -0.3059
16991TIP3   OH272463   5.265   3.450  14.273  0.4843 -0.2163  0.0581
16991TIP3    H172464   5.342   3.422  14.224  0.6200 -1.0485  0.7219
16991TIP3    H272465   5.301   3.496  14.349  0.4245 -2.2605  1.3835
16992TIP3   OH272466   6.753   4.159  13.753  0.1673 -0.2707 -0.5251
16992TIP3    H172467   6.819   4.120  13.812  0.2679  0.5768 -0.0596
16992TIP3    H272468   6.702   4.216  13.810 -0.0017  0.2451 -1.1856
16993TIP3   OH272469   1.637   3.257  15.733  0.4133  0.0638  0.0511
16993TIP3    H172470   1.594   3.292  15.811  0.5878  2.4330 -0.8531
16993TIP3    H272471   1.617   3.163  15.736 -0.6625  0.2853  2.2380
16994TIP3   OH272472   2.841   2.619  14.265 -0.0851 -0.2508 -0.7044
16994TIP3    H172473   2.880   2.563  14.198  2.0475  0.8562 -0.4587
16994TIP3    H272474   2.817   2.700  14.219 -1.6615 -0.6896 -0.7320
16995TIP3   OH272475   6.095   6.628   4.476  0.1238  0.1709  0.2709
16995TIP3    H172476   6.075   6.663   4.389  1.0932 -1.2351 -0.5593
16995TIP3    H272477   6.188   6.645   4.488 -0.0591  0.6060  1.1797
16996TIP3   OH272478   0.171   6.374  16.879 -0.2191 -0.2319  0.2290
16996TIP3    H172479   0.089   6.326  16.867  0.1459 -0.7366 -0.2762
16996TIP3    H272480   0.195   6.402  16.790 -0.0711  0.2918  0.4310
16997TIP3   OH272481   0.048   2.144  11.398 -0.2651 -0.2621 -0.2006
16997TIP3    H172482   0.130   2.193  11.398  0.3127 -1.2146  0.2838
16997TIP3    H272483   0.010   2.161  11.312  0.5848 -0.0741 -0.5468
16998TIP3   OH272484   2.972   0.722  14.075  0.5391  0.4137 -0.3404
16998TIP3    H172485   2.956   0.629  14.092  2.3100 -0.1051 -1.3222
16998TIP3    H272486   2.901   0.747  14.016 -0.6956  0.0596  0.9100
16999TIP3   OH272487   2.304   3.498  15.422 -0.3137  0.1894 -0.3586
16999TIP3    H172488   2.322   3.532  15.510  1.5492  0.1534 -0.7019
16999TIP3    H272489   2.283   3.576  15.370 -0.0761  0.3598 -0.2003
17000TIP3   OH272490   0.983   1.499   4.165  0.0080  0.8452  0.2544
17000TIP3    H172491   0.918   1.469   4.229  0.3720 -0.2926  0.1128
17000TIP3    H272492   1.004   1.420   4.114  1.6202  1.1550  0.4112
17001TIP3   OH272493   1.737   4.668  13.152 -0.9120 -0.4278 -0.0468
17001TIP3    H172494   1.735   4.682  13.057  0.3939 -3.1566 -0.5974
17001TIP3    H272495   1.650   4.691  13.182 -0.9794  1.6881 -1.6850
17002TIP3   OH272496   2.432   6.344  13.962  0.0623  0.1939  0.5509
17002TIP3    H172497   2.378   6.309  14.033 -0.4561 -0.3467 -0.0916
17002TIP3    H272498   2.392   6.429  13.941  0.6076  0.6537  1.3223
17003TIP3   OH272499   1.041   4.970  14.481 -0.3944 -0.1634 -0.0218
17003TIP3    H172500   0.971   4.947  14.541 -1.0146 -2.5480 -1.5232
17003TIP3    H272501   1.080   4.887  14.454 -1.2937  0.5119 -4.1759
17004TIP3   OH272502   1.857   4.371  14.941  0.0858  0.0608  0.2704
17004TIP3    H172503   1.787   4.435  14.955  1.4808  1.8315 -0.4718
17004TIP3    H272504   1.835   4.299  15.001 -1.2664  1.4604  1.5678
17005TIP3   OH272505   4.902   4.368   2.659  0.4590  0.7095 -0.6397
17005TIP3    H172506   4.910   4.320   2.577 -0.4954 -0.2786 -0.1845
17005TIP3    H272507   4.878   4.457   2.633  0.3898  0.4649 -1.4322
17006TIP3   OH272508   2.954   5.979   5.249 -0.6280 -0.2683  0.1721
17006TIP3    H172509   2.920   6.046   5.189 -2.5110 -1.2434  0.0999
17006TIP3    H272510   3.034   6.019   5.285 -0.0411  0.8162 -2.0867
17007TIP3   OH272511   1.349   0.700   0.828  0.1462 -0.3595  0.3042
17007TIP3    H172512   1.321   0.673   0.915  1.2434  1.5061  1.2973
17007TIP3    H272513   1.445   0.702   0.833  0.1853  2.3713 -0.0287
17008TIP3   OH272514   6.781   4.724   0.383 -0.1027  0.6089  0.6390
17008TIP3    H172515   6.852   4.778   0.418 -0.1974  0.0229  1.7805
17008TIP3    H272516   6.776   4.748   0.291  0.5918  1.7348  0.8766
17009TIP3   OH272517   4.155   3.311  10.997  0.2207 -0.1340  0.5602
17009TIP3    H172518   4.246   3.295  11.022  0.3063 -0.1024  0.2741
17009TIP3    H272519   4.161   3.373  10.924 -0.0732  0.6010  1.1483
17010TIP3   OH272520   4.898   2.778  16.587  0.3026  0.1314  0.2401
17010TIP3    H172521   4.991   2.789  16.610 -0.0556  0.4402  1.6607
17010TIP3    H272522   4.851   2.810  16.664 -0.9602 -3.4496  1.1432
17011TIP3   OH272523   6.511   0.385  15.390 -0.0001  0.1188 -0.5291
17011TIP3    H172524   6.512   0.322  15.318  2.4001 -1.1119  0.4731
17011TIP3    H272525   6.447   0.350  15.452 -1.1657  0.5365 -1.4525
17012TIP3   OH272526   2.737   4.080   3.466  0.7613 -0.0120 -0.3339
17012TIP3    H172527   2.666   4.033   3.422  1.5190  0.1454 -1.7625
17012TIP3    H272528   2.800   4.013   3.490  0.0013 -0.2048  1.2908
17013TIP3   OH272529   5.874   0.125   5.234  0.6629 -0.5478 -0.2683
17013TIP3    H172530   5.860   0.214   5.267 -1.2557 -0.1229 -1.9816
17013TIP3    H272531   5.966   0.122   5.210  0.2170  2.0876 -2.9625
17014TIP3   OH272532   5.423   3.791  14.000  0.1320  0.0114 -0.2823
17014TIP3    H172533   5.347   3.826  13.954 -1.1732 -2.7879 -0.4874
17014TIP3    H272534   5.387   3.725  14.060  2.3171 -0.7430  0.3193
17015TIP3   OH272535   5.420   4.670  13.748  0.4255  0.1677  0.4073
17015TIP3    H172536   5.358   4.710  13.809  0.4265 -1.4919  1.5536
17015TIP3    H272537   5.476   4.742  13.720 -1.3078  1.5088  0.1777
17016TIP3   OH272538   2.916   2.254  15.199 -0.1157  0.3294  0.2559
17016TIP3    H172539   3.006   2.286  15.195  1.0707 -2.6137  0.4548
17016TIP3    H272540   2.899   2.239  15.292 -0.3202 -0.2899  0.1272
17017TIP3   OH272541   4.964   4.369   0.618 -0.4936 -0.0824 -0.6458
17017TIP3    H172542   4.919   4.289   0.590  0.6512 -0.7472 -0.6189
17017TIP3    H272543   5.033   4.382   0.553  1.6354 -1.1513  1.2814
17018TIP3   OH272544   4.805   4.523  17.091  0.0393 -0.6437 -0.3242
17018TIP3    H172545   4.858   4.488  17.019  1.3038 -0.4943  0.5049
17018TIP3    H272546   4.779   4.445  17.141 -1.5242 -0.8255 -1.3598
17019TIP3   OH272547   6.105   2.888  14.339 -0.1155  0.2965  0.0776
17019TIP3    H172548   6.164   2.963  14.343  1.0763 -0.6320  0.5249
17019TIP3    H272549   6.079   2.874  14.430 -0.1365  0.0090  0.0269
17020TIP3   OH272550   6.174   3.706   2.965  0.2306  0.2741 -0.2784
17020TIP3    H172551   6.203   3.792   2.934  0.5170  0.2683 -0.0315
17020TIP3    H272552   6.255   3.657   2.980  0.3551  1.3473  3.6362
17021TIP3   OH272553   3.160   2.081   4.066 -0.2735  0.1178 -0.6003
17021TIP3    H172554   3.138   1.989   4.077  0.6238 -0.0841 -0.3982
17021TIP3    H272555   3.098   2.128   4.123  0.8776 -0.5465  1.2796
17022TIP3   OH272556   2.464   5.805  15.161  0.1958 -0.3634  0.2529
17022TIP3    H172557   2.523   5.779  15.090  0.3000  2.5522 -0.8700
17022TIP3    H272558   2.387   5.749  15.150  0.4395 -0.3672 -1.8387
17023TIP3   OH272559   4.703   3.327  17.099 -0.6546  0.1973  0.3710
17023TIP3    H172560   4.608   3.328  17.086 -0.7480  0.0956  0.9965
17023TIP3    H272561   4.738   3.376  17.025 -1.0007 -1.9552 -1.3149
17024TIP3   OH272562   0.522   3.932   2.482  0.1149 -0.1457  0.3285
17024TIP3    H172563   0.501   3.867   2.550  1.8461 -1.4590 -0.3390
17024TIP3    H272564   0.436   3.961   2.451 -0.7229 -0.4907  2.1316
17025TIP3   OH272565   6.061   6.508   4.719  0.4799  0.1526 -0.0047
17025TIP3    H172566   6.015   6.424   4.718 -0.2576  0.3909  3.1293
17025TIP3    H272567   6.045   6.545   4.633 -1.2321 -1.8540 -0.6346
17026TIP3   OH272568   3.432   0.103   6.134 -0.9707 -0.3931 -0.1085
17026TIP3    H172569   3.393   0.043   6.071 -0.9340 -0.1295 -0.3851
17026TIP3    H272570   3.400   0.073   6.219 -2.2066  0.1403 -0.3617
17027TIP3   OH272571   5.142   1.541  15.000  0.5570 -0.0208 -0.3730
17027TIP3    H172572   5.082   1.593  14.946  0.9882  0.2649 -0.5863
17027TIP3    H272573   5.182   1.605  15.059  1.1784 -0.0802 -0.7162
17028TIP3   OH272574   3.041   4.400   4.932  0.2903 -0.2714  0.2517
17028TIP3    H172575   2.978   4.471   4.936  1.2251  0.6572 -0.7904
17028TIP3    H272576   3.104   4.427   4.864  2.5748 -0.4976  2.1374
17029TIP3   OH272577   3.226   3.326  11.073 -0.5402  0.3422 -0.2305
17029TIP3    H172578   3.258   3.396  11.130 -0.5849 -0.3705  0.7140
17029TIP3    H272579   3.226   3.363  10.985  0.3408  1.2169  0.1199
17030TIP3   OH272580   0.482   2.100   6.272  0.2559 -0.2593 -0.0709
17030TIP3    H172581   0.426   2.100   6.194  1.1947 -0.6323 -0.7750
17030TIP3    H272582   0.469   2.013   6.310 -0.8235  0.2072  0.6751
17031TIP3   OH272583   0.140   5.433   2.520  0.1115 -0.6490 -0.0553
17031TIP3    H172584   0.077   5.476   2.577  0.2885  0.5133 -0.7142
17031TIP3    H272585   0.205   5.500   2.501  0.6341 -1.3380 -0.7489
17032TIP3   OH272586   2.355   3.512   1.284  0.0778  0.0024 -0.1316
17032TIP3    H172587   2.359   3.520   1.379 -2.2828 -0.4118  0.0586
17032TIP3    H272588   2.359   3.417   1.267 -1.1534 -0.0320 -0.3046
17033TIP3   OH272589   0.545   2.945  16.088  0.2691  0.3760  0.1589
17033TIP3    H172590   0.525   3.024  16.138  1.1711  1.4497 -1.1276
17033TIP3    H272591   0.493   2.952  16.009  1.0578  0.1592 -0.3949
17034TIP3   OH272592   0.833   2.117  14.736  0.0098 -0.4054  0.2073
17034TIP3    H172593   0.843   2.040  14.681 -0.5373 -0.7762  0.6214
17034TIP3    H272594   0.813   2.083  14.823 -0.7558  0.2078  0.2904
17035TIP3   OH272595   2.532   0.487  12.878 -0.0349  0.0501  0.1417
17035TIP3    H172596   2.514   0.434  12.800 -1.3023 -1.8543  1.6243
17035TIP3    H272597   2.627   0.490  12.883  0.0804 -1.2914 -0.5697
17036TIP3   OH272598   6.799   4.122   1.132  0.2788  0.5020  0.3505
17036TIP3    H172599   6.893   4.124   1.117  0.6169  1.2208  2.1935
17036TIP3    H272600   6.764   4.195   1.080  0.7571  0.3229 -0.2222
17037TIP3   OH272601   4.637   5.064  13.786 -0.1697  0.3021  0.3993
17037TIP3    H172602   4.571   5.003  13.819 -1.3419  0.1634 -2.0200
17037TIP3    H272603   4.593   5.149  13.787  0.0518  0.4224 -0.0315
17038TIP3   OH272604   2.823   4.483  16.088  0.0237 -0.6632  0.2135
17038TIP3    H172605   2.791   4.471  16.178 -1.6495 -2.8581 -0.5660
17038TIP3    H272606   2.907   4.436  16.087  1.1368  1.1716  1.0881
17039TIP3   OH272607   1.909   5.763   3.871  0.1071 -0.4594  0.2536
17039TIP3    H172608   1.862   5.818   3.808 -0.5384 -0.8238  0.4083
17039TIP3    H272609   1.840   5.717   3.919  0.4906  0.8863  2.2466
17040TIP3   OH272610   2.654   5.040   0.129  0.5040  0.2618 -0.3162
17040TIP3    H172611   2.741   5.006   0.150 -0.4944 -2.5272 -0.3611
17040TIP3    H272612   2.610   5.048   0.214 -0.1334 -1.1783 -0.4842
17041TIP3   OH272613   5.305   4.108   0.370  0.3717 -0.3309 -0.6346
17041TIP3    H172614   5.368   4.063   0.313  0.0040 -1.1424 -0.4149
17041TIP3    H272615   5.253   4.038   0.408  0.9601  0.1394  1.1510
17042TIP3   OH272616   0.802   6.431  13.772 -0.6710 -1.1611 -0.3669
17042TIP3    H172617   0.859   6.355  13.762  0.7745 -0.2067  0.3510
17042TIP3    H272618   0.840   6.481  13.844 -0.0324  1.5444 -2.4048
17043TIP3   OH272619   0.591   2.501   4.369  0.0335 -0.3758  0.7250
17043TIP3    H172620   0.686   2.508   4.358  0.0914 -0.7167  0.9936
17043TIP3    H272621   0.580   2.455   4.452 -0.3595 -0.8587  0.4107
17044TIP3   OH272622   0.350   2.601   1.135  0.2145 -0.5391  0.2269
17044TIP3    H172623   0.323   2.662   1.203 -0.6779 -0.4270 -0.2219
17044TIP3    H272624   0.349   2.652   1.055  2.2800 -0.3851  0.2348
17045TIP3   OH272625   3.753   5.897  13.169  0.3842  0.4878 -0.9545
17045TIP3    H172626   3.761   5.945  13.087 -0.2478  0.6593 -0.9169
17045TIP3    H272627   3.775   5.807  13.146  0.4260  0.5775 -1.2666
17046TIP3   OH272628   0.262   1.766   5.411 -0.0997  0.1791 -0.2732
17046TIP3    H172629   0.170   1.791   5.404 -0.5856 -1.5415 -0.4800
17046TIP3    H272630   0.263   1.695   5.476  0.8771 -0.7071 -1.2190
17047TIP3   OH272631   5.947   6.343   1.768 -0.0748 -0.1313  0.0415
17047TIP3    H172632   5.891   6.421   1.775 -1.9048 -1.3700 -0.1019
17047TIP3    H272633   5.894   6.279   1.720  0.8456 -1.9152  1.2668
17048TIP3   OH272634   0.681   0.537  10.700  0.4166  0.2773 -0.1312
17048TIP3    H172635   0.714   0.594  10.769 -1.9015  0.2872  1.0503
17048TIP3    H272636   0.664   0.453  10.744  0.1218 -0.1158 -0.9711
17049TIP3   OH272637   2.856   6.657  10.994  0.3898 -0.6846 -0.1308
17049TIP3    H172638   2.869   6.564  10.977  0.0005 -1.1364  1.8541
17049TIP3    H272639   2.826   6.662  11.084 -0.4780  1.3166 -0.4661
17050TIP3   OH272640   3.935   4.636  15.566 -0.5865 -0.0309 -0.3451
17050TIP3    H172641   3.973   4.608  15.482  1.1847  1.3376 -0.0716
17050TIP3    H272642   3.884   4.714  15.544  2.2811  2.1373  0.1497
17051TIP3   OH272643   3.283   0.798  13.504 -0.7656 -0.3233  0.4489
17051TIP3    H172644   3.291   0.816  13.598 -1.9917 -0.0223  0.5243
17051TIP3    H272645   3.243   0.877  13.468  0.4124 -0.1209 -0.4797
17052TIP3   OH272646   5.782   6.207  15.943  0.2337  0.6748 -0.6422
17052TIP3    H172647   5.737   6.262  16.007 -0.7652 -0.5072 -0.2789
17052TIP3    H272648   5.831   6.143  15.996 -0.5679 -0.2859 -1.0242
17053TIP3   OH272649   1.490   1.995   3.968  0.1443  0.4302 -0.1293
17053TIP3    H172650   1.557   1.927   3.973  0.0336  0.4325  2.7801
17053TIP3    H272651   1.412   1.950   3.934  0.7961 -0.2354 -0.7692
17054TIP3   OH272652   1.674   3.623   2.899  0.2721  0.5850  0.3293
17054TIP3    H172653   1.717   3.672   2.829  1.3465  0.3360  0.7900
17054TIP3    H272654   1.627   3.553   2.855  1.1526  0.2719 -0.1505
17055TIP3   OH272655   5.128   0.280  16.067 -0.4455 -0.4317 -0.7392
17055TIP3    H172656   5.039   0.247  16.075 -0.1616 -0.7914  2.3405
17055TIP3    H272657   5.183   0.202  16.069  0.0109 -0.1049  0.2731
17056TIP3   OH272658   5.475   4.061  11.709  0.1874  0.7799  0.4905
17056TIP3    H172659   5.395   4.022  11.675  1.2891 -0.4609 -0.8025
17056TIP3    H272660   5.454   4.154  11.720 -1.8798  0.2272  1.6997
17057TIP3   OH272661   3.992   4.083   3.819  0.7034  0.2103  0.0957
17057TIP3    H172662   3.907   4.116   3.849  1.4258  3.5875 -1.1403
17057TIP3    H272663   3.970   4.014   3.756 -1.1204  0.8552 -0.0306
17058TIP3   OH272664   0.733   6.476  12.568 -0.2420  0.0163 -0.2128
17058TIP3    H172665   0.653   6.527  12.556  0.3985  1.3989  1.1168
17058TIP3    H272666   0.708   6.407  12.629 -0.8111 -0.5796 -1.0911
17059TIP3   OH272667   3.085   3.071  16.191  1.2608  0.3541 -0.1284
17059TIP3    H172668   3.099   3.164  16.173 -0.6625  1.1274  1.8433
17059TIP3    H272669   3.038   3.038  16.114 -1.4796  2.0533  0.6842
17060TIP3   OH272670   3.293   2.042   2.530 -0.2344  0.1654 -0.4846
17060TIP3    H172671   3.364   1.979   2.529 -0.2115  0.0943  1.5326
17060TIP3    H272672   3.245   2.026   2.449 -0.1856 -2.3896 -0.0820
17061TIP3   OH272673   1.018   2.528  17.211 -0.7456 -0.4504  0.4210
17061TIP3    H172674   1.047   2.619  17.200 -1.8676  0.1768  2.2763
17061TIP3    H272675   0.925   2.530  17.187 -0.6035 -1.3000 -0.2601
17062TIP3   OH272676   0.918   3.617  15.284 -0.0666 -0.0745 -0.2056
17062TIP3    H172677   0.961   3.673  15.349 -0.5089  1.2714 -1.0425
17062TIP3    H272678   0.985   3.555  15.258 -0.4013 -1.9989  2.9667
17063TIP3   OH272679   2.908   2.683  12.923  0.3088  0.3257  0.5584
17063TIP3    H172680   2.962   2.694  13.001 -0.0664  0.6446  0.7731
17063TIP3    H272681   2.839   2.748  12.932 -0.1503 -0.1203  0.3146
17064TIP3   OH272682   5.528   0.948   6.660  0.1411  0.2193  0.7316
17064TIP3    H172683   5.599   0.926   6.599  0.8758 -0.7219  1.8807
17064TIP3    H272684   5.485   1.024   6.621  0.4302 -0.5051 -1.0790
17065TIP3   OH272685   2.216   2.397  16.834  0.1139 -0.8414  0.2718
17065TIP3    H172686   2.175   2.356  16.910 -1.3271  0.4817  0.2719
17065TIP3    H272687   2.164   2.366  16.760  1.5421 -2.1650 -0.2229
17066TIP3   OH272688   5.911   2.604  15.767  0.2688 -0.0594  0.4485
17066TIP3    H172689   5.913   2.698  15.783  0.5951 -0.1724  1.1047
17066TIP3    H272690   5.925   2.565  15.853  0.9451 -0.6973  0.0576
17067TIP3   OH272691   6.284   6.109  12.336  0.1921  0.7331 -0.8050
17067TIP3    H172692   6.246   6.023  12.323 -1.7936  1.8584 -3.2061
17067TIP3    H272693   6.211   6.164  12.363  1.5744  1.5804  1.4822
17068TIP3   OH272694   4.390   0.197   4.586 -0.2492  0.0034  0.2264
17068TIP3    H172695   4.461   0.197   4.521 -0.9211  0.2327 -0.5193
17068TIP3    H272696   4.341   0.277   4.569 -0.5391 -0.0159  0.9188
17069TIP3   OH272697   3.700   2.442  14.159  0.1339 -0.0397  0.4577
17069TIP3    H172698   3.647   2.501  14.212 -1.0362 -1.5707  1.0865
17069TIP3    H272699   3.673   2.459  14.069  1.0677  1.5503  0.4426
17070TIP3   OH272700   6.371   1.665   3.185  0.7981  0.0620  0.2619
17070TIP3    H172701   6.314   1.592   3.209  1.5351 -0.1515  1.4475
17070TIP3    H272702   6.362   1.727   3.258  2.0092  0.0561  0.4322
17071TIP3   OH272703   3.730   6.579   6.815  0.6117  0.2997 -0.1050
17071TIP3    H172704   3.757   6.510   6.753 -1.1986 -1.5808  1.0704
17071TIP3    H272705   3.806   6.636   6.821  1.1135  0.2577 -3.5666
17072TIP3   OH272706   3.153   5.792  15.343 -0.3112  0.1068  0.7326
17072TIP3    H172707   3.112   5.757  15.264 -0.2178 -2.0280  1.5744
17072TIP3    H272708   3.098   5.867  15.366  0.6968  1.9715 -2.2990
17073TIP3   OH272709   3.687   0.236  14.257 -0.5070 -0.1506 -0.1547
17073TIP3    H172710   3.705   0.164  14.318 -0.3023  0.0551  0.0302
17073TIP3    H272711   3.709   0.201  14.171 -0.0369 -0.1873 -0.0238
17074TIP3   OH272712   3.604   1.100  15.955  0.3529 -0.3355 -0.0667
17074TIP3    H172713   3.562   1.179  15.987  0.9753 -0.6659  1.6626
17074TIP3    H272714   3.533   1.037  15.946 -0.0538  0.2315 -0.8555
17075TIP3   OH272715   2.417   1.640   1.943  0.0131  0.0126  0.0867
17075TIP3    H172716   2.425   1.556   1.988 -1.8602 -0.5769 -0.5936
17075TIP3    H272717   2.347   1.626   1.880 -0.5102  2.1693  0.1350
17076TIP3   OH272718   3.348   3.836   3.191 -0.2542  0.2426 -0.3668
17076TIP3    H172719   3.342   3.742   3.173 -0.5165  0.2079 -0.1165
17076TIP3    H272720   3.327   3.843   3.284  0.5225  0.4752 -0.2068
17077TIP3   OH272721   1.256   2.464   2.180  0.7058 -0.6346  0.3015
17077TIP3    H172722   1.199   2.425   2.246  0.9357 -0.4988  0.5884
17077TIP3    H272723   1.338   2.480   2.227  0.1297  1.6431  0.6559
17078TIP3   OH272724   2.748   1.002  17.185  0.2768 -0.4595  0.2546
17078TIP3    H172725   2.685   0.929  17.186  0.3306 -0.5097  0.0990
17078TIP3    H272726   2.717   1.062  17.253  0.0691 -0.4922  0.1890
17079TIP3   OH272727   4.946   0.769  17.131 -0.6006 -0.1244  0.4279
17079TIP3    H172728   4.962   0.853  17.173  0.5373  0.0111 -0.2402
17079TIP3    H272729   5.033   0.734  17.113 -1.0020 -0.1307 -1.8883
17080TIP3   OH272730   2.770   0.185  11.572  0.8967 -0.0429 -0.0753
17080TIP3    H172731   2.806   0.104  11.608  1.3968 -0.0104 -0.4962
17080TIP3    H272732   2.767   0.170  11.477  0.9519  0.4179 -0.1524
17081TIP3   OH272733   4.756   0.610  14.390  0.1207  0.3610  0.1349
17081TIP3    H172734   4.835   0.614  14.443 -0.2557 -3.3499  1.2683
17081TIP3    H272735   4.705   0.686  14.416  0.3051 -0.8276  4.7100
17082TIP3   OH272736   3.062   6.336   0.112  0.2794  0.1233 -0.1650
17082TIP3    H172737   2.980   6.345   0.065  0.0222 -0.6252  0.1426
17082TIP3    H272738   3.041   6.283   0.188  1.0813 -0.2075 -0.1662
17083TIP3   OH272739   4.957   0.616   6.328  0.6131  0.2487  0.1605
17083TIP3    H172740   4.961   0.573   6.413  1.1301 -0.0912 -0.0367
17083TIP3    H272741   5.045   0.609   6.292  1.0213  2.4025  0.5814
17084TIP3   OH272742   5.025   3.141  12.340 -0.2371  0.6180 -0.1196
17084TIP3    H172743   4.987   3.175  12.422 -0.2153  0.1423  0.0894
17084TIP3    H272744   5.115   3.174  12.341  0.1932 -0.5263  0.7326
17085TIP3   OH272745   1.993   3.247  16.318 -0.0772 -0.2981 -0.1664
17085TIP3    H172746   1.993   3.226  16.412  1.0213 -1.3577 -0.3884
17085TIP3    H272747   2.073   3.208  16.284 -0.1174  0.6612 -1.4358
17086TIP3   OH272748   0.253   0.381  11.980  0.3642 -0.5513  0.5852
17086TIP3    H172749   0.188   0.401  12.047  0.2609 -1.5296  0.7945
17086TIP3    H272750   0.263   0.285  11.984  1.0457 -0.5227 -0.1530
17087TIP3   OH272751   0.775   6.544   4.889 -0.9851  0.3303 -0.0311
17087TIP3    H172752   0.766   6.576   4.979  1.6942 -1.0272  0.8331
17087TIP3    H272753   0.771   6.623   4.835  0.1072  1.5374  1.5471
17088TIP3   OH272754   6.821   3.811   3.662  0.0255  0.4262 -0.2381
17088TIP3    H172755   6.806   3.765   3.580 -2.4679  0.2801  0.2042
17088TIP3    H272756   6.821   3.742   3.729 -1.5217  0.8080  0.2019
17089TIP3   OH272757   3.723   3.107   1.931 -0.1889  0.1185  0.0414
17089TIP3    H172758   3.737   3.139   2.020 -1.0435  0.9997 -0.1224
17089TIP3    H272759   3.630   3.118   1.917 -0.2948 -1.3265 -0.4822
17090TIP3   OH272760   6.281   5.146  14.765 -0.2970 -0.3080  0.2741
17090TIP3    H172761   6.199   5.137  14.717 -0.1457  0.5745 -0.1508
17090TIP3    H272762   6.344   5.179  14.701  0.9952 -2.9982 -0.0009
17091TIP3   OH272763   3.587   1.656   3.745  0.2331  0.2511 -0.1864
17091TIP3    H172764   3.632   1.597   3.806 -2.6207 -1.8463  0.1221
17091TIP3    H272765   3.557   1.729   3.799  1.4907  0.6673 -0.0197
17092TIP3   OH272766   1.756   2.883  16.278 -1.3510 -0.2438 -0.2993
17092TIP3    H172767   1.718   2.813  16.225 -0.5239 -1.4581  0.6368
17092TIP3    H272768   1.732   2.860  16.368 -0.3298  0.2066  0.1034
17093TIP3   OH272769   4.581   5.592   3.047  0.3459  0.3589  0.0936
17093TIP3    H172770   4.557   5.528   2.979  1.3066  1.1360 -1.0043
17093TIP3    H272771   4.507   5.591   3.108 -2.1629  1.9978 -2.6619
17094TIP3   OH272772   4.285   6.157  15.247  0.2901 -0.5010  0.4523
17094TIP3    H172773   4.275   6.123  15.158  1.2590 -0.6004  0.3722
17094TIP3    H272774   4.252   6.087  15.303  2.0798 -1.5471  0.2798
17095TIP3   OH272775   4.122   0.575  13.522  0.2177  0.0609  0.2266
17095TIP3    H172776   4.048   0.635  13.529 -0.4409 -0.6037 -0.6570
17095TIP3    H272777   4.198   0.631  13.509 -0.6741  0.7409 -3.0473
17096TIP3   OH272778   5.775   3.551   3.508  0.4288 -0.2097  0.2238
17096TIP3    H172779   5.753   3.578   3.597  1.0187 -0.7361  0.5426
17096TIP3    H272780   5.693   3.519   3.472  0.3548 -0.8162  0.8939
17097TIP3   OH272781   4.141   6.709  13.738  0.0693  0.5509  0.5233
17097TIP3    H172782   4.093   6.676  13.662  0.2986  0.6097  0.3523
17097TIP3    H272783   4.098   6.668  13.813 -2.4991  3.1665  0.7013
17098TIP3   OH272784   1.818   1.630  14.945 -0.2590 -0.0954 -0.0536
17098TIP3    H172785   1.811   1.539  14.975 -1.8407 -0.0914 -0.3214
17098TIP3    H272786   1.898   1.631  14.892  0.2227 -1.1223  0.5948
17099TIP3   OH272787   1.071   5.688   3.279  0.3943 -0.6326 -0.1317
17099TIP3    H172788   1.043   5.742   3.353  0.0065  0.8244 -1.2721
17099TIP3    H272789   1.018   5.721   3.205  5.1766  2.6816 -2.6211
17100TIP3   OH272790   2.878   6.302  14.596 -0.0600  0.3536 -0.8214
17100TIP3    H172791   2.943   6.355  14.643 -0.2602  0.8679 -1.1259
17100TIP3    H272792   2.887   6.215  14.634  1.2777  0.2559 -1.3127
17101TIP3   OH272793   3.253   4.755  11.355 -0.0316  0.4666  0.1546
17101TIP3    H172794   3.214   4.710  11.430  1.2031  0.7382  0.9962
17101TIP3    H272795   3.259   4.688  11.287  0.9720 -0.4376  1.1020
17102TIP3   OH272796   5.886   1.834  10.994  0.3870  0.0963  0.1911
17102TIP3    H172797   5.880   1.871  10.906  0.3365 -0.7574 -0.1745
17102TIP3    H272798   5.826   1.760  10.993  0.3746  0.0893  0.9518
17103TIP3   OH272799   3.955   5.338   5.049 -0.5734  0.3511  0.2568
17103TIP3    H172800   3.897   5.403   5.089 -0.9987 -0.5077  1.0768
17103TIP3    H272801   3.900   5.291   4.986 -0.0770  1.2516 -0.8822
17104TIP3   OH272802   2.301   6.071  14.830  0.0957 -0.0538 -0.2269
17104TIP3    H172803   2.330   5.980  14.834  1.2709  0.3119  0.2040
17104TIP3    H272804   2.312   6.095  14.738 -0.1947 -0.3358 -0.3360
17105TIP3   OH272805   2.809   0.314  10.788  0.0204  0.2093  0.4315
17105TIP3    H172806   2.778   0.256  10.857  0.4904  1.1891  1.5071
17105TIP3    H272807   2.730   0.339  10.740 -0.5366  0.6753  1.5535
17106TIP3   OH272808   3.811   1.799   4.568 -0.0708 -0.3182 -0.6434
17106TIP3    H172809   3.716   1.797   4.558 -0.0328 -1.4215 -0.8982
17106TIP3    H272810   3.845   1.804   4.478  0.1155  0.0538 -0.5552
17107TIP3   OH272811   6.811   2.814  13.110 -0.2290 -0.1284  0.2848
17107TIP3    H172812   6.803   2.750  13.039 -1.6029  0.1573  0.1495
17107TIP3    H272813   6.769   2.893  13.075  0.4607  0.5046  0.8598
17108TIP3   OH272814   6.818   4.719   0.686  0.3231  0.5938  0.2496
17108TIP3    H172815   6.805   4.715   0.592  0.7782  0.6122  0.1811
17108TIP3    H272816   6.789   4.807   0.711  0.8929  0.8529  0.0113
17109TIP3   OH272817   4.111   3.731   2.576  0.8449  0.3155 -0.4587
17109TIP3    H172818   4.077   3.702   2.491 -0.8773  0.4095  0.1574
17109TIP3    H272819   4.095   3.825   2.578 -0.6161  0.0851  0.5680
17110TIP3   OH272820   1.116   4.326  16.962 -0.0086  0.2010  0.1483
17110TIP3    H172821   1.104   4.398  17.024 -0.1702  0.8558 -0.6204
17110TIP3    H272822   1.093   4.363  16.877  2.4378  0.0177 -0.6788
17111TIP3   OH272823   1.138   3.295   4.156 -0.5846  0.5023  0.9655
17111TIP3    H172824   1.181   3.308   4.071 -2.1877  0.8059  0.1547
17111TIP3    H272825   1.210   3.290   4.219  0.6038  1.3005 -0.2713
17112TIP3   OH272826   2.987   0.770  12.145 -0.1331  0.0453  0.3233
17112TIP3    H172827   2.923   0.717  12.193  0.7922 -2.2548 -0.7952
17112TIP3    H272828   3.037   0.814  12.213 -0.9455 -0.5431  1.3409
17113TIP3   OH272829   3.118   6.454  15.122 -0.0525 -0.0404 -0.0478
17113TIP3    H172830   3.111   6.521  15.191 -0.7693  0.6828 -0.8054
17113TIP3    H272831   3.049   6.476  15.060  2.6551  1.4614 -2.8112
17114TIP3   OH272832   1.796   5.346   1.971 -0.0315  0.3024 -0.1775
17114TIP3    H172833   1.807   5.379   1.882 -0.2968 -0.7014 -0.5973
17114TIP3    H272834   1.739   5.410   2.014 -0.9202  0.1621 -1.1094
17115TIP3   OH272835   1.616   1.441   4.867  0.3253 -0.0846  0.2024
17115TIP3    H172836   1.632   1.504   4.936 -3.0049  0.2263  0.8527
17115TIP3    H272837   1.581   1.364   4.912 -1.2956 -0.1223 -1.0236
17116TIP3   OH272838   3.123   1.392   4.512 -0.0686  0.0915  0.1261
17116TIP3    H172839   3.130   1.318   4.572  1.5660  0.1135 -0.0003
17116TIP3    H272840   3.197   1.382   4.452 -1.4209  0.2862 -1.6609
17117TIP3   OH272841   4.693   1.161   6.132  0.1812 -1.0756 -0.3256
17117TIP3    H172842   4.689   1.216   6.210  1.4949 -0.6286 -0.5579
17117TIP3    H272843   4.785   1.138   6.123  0.4864  0.7147 -2.9655
17118TIP3   OH272844   3.442   6.480   4.876  0.1916 -0.0281 -0.3708
17118TIP3    H172845   3.484   6.486   4.962 -1.7006 -2.5478  0.8745
17118TIP3    H272846   3.492   6.413   4.830  0.5158  0.5244 -0.8401
17119TIP3   OH272847   1.118   0.673  12.153  0.2407 -0.8005  0.4646
17119TIP3    H172848   1.177   0.730  12.105 -1.1522  1.8607  1.6881
17119TIP3    H272849   1.149   0.676  12.244  0.3625 -2.3429  0.4989
17120TIP3   OH272850   4.794   5.943  15.315  0.0676  0.5911 -0.2149
17120TIP3    H172851   4.798   6.032  15.280  0.4448  0.8273  0.4133
17120TIP3    H272852   4.723   5.945  15.379  1.2523  0.9553  1.1546
17121TIP3   OH272853   4.728   4.753  12.521  0.7013  0.2232 -0.6731
17121TIP3    H172854   4.636   4.763  12.545 -0.0787 -3.8028 -1.3678
17121TIP3    H272855   4.775   4.747  12.604 -0.2476 -1.4844 -0.2293
17122TIP3   OH272856   1.344   4.570  12.464 -0.2873 -0.3232 -0.1646
17122TIP3    H172857   1.311   4.652  12.426  1.1300  0.7242  0.7571
17122TIP3    H272858   1.418   4.546  12.407 -0.4793 -0.7665 -0.2272
17123TIP3   OH272859   4.416   2.779   0.748 -0.1161 -0.3745 -0.1616
17123TIP3    H172860   4.386   2.849   0.690  0.6947 -1.0347 -1.4409
17123TIP3    H272861   4.509   2.798   0.762 -0.3305 -0.1398  1.0883
17124TIP3   OH272862   2.026   1.746  11.992  0.0556 -0.3227 -0.0834
17124TIP3    H172863   2.012   1.701  12.076  0.8254 -0.2439  0.0935
17124TIP3    H272864   2.084   1.688  11.943 -2.8129 -1.9220 -1.8667
17125TIP3   OH272865   2.961   2.868   3.388  0.5734 -0.1520  0.1948
17125TIP3    H172866   2.961   2.948   3.335  0.0007 -1.0792 -1.2596
17125TIP3    H272867   2.871   2.859   3.419  0.4310 -0.6382 -0.3281
17126TIP3   OH272868   1.056   1.170   5.611 -0.2768  0.7922  0.6253
17126TIP3    H172869   1.021   1.083   5.627 -1.6811  1.1069 -0.4132
17126TIP3    H272870   1.121   1.158   5.542 -0.7782  0.5961  0.1758
17127TIP3   OH272871   3.359   2.604   2.045 -0.0978 -0.4706 -0.4298
17127TIP3    H172872   3.290   2.655   2.087 -0.3302 -2.3286  1.6517
17127TIP3    H272873   3.335   2.603   1.952 -0.2687  2.7581 -0.5517
17128TIP3   OH272874   5.886   0.936  13.190 -0.6689  0.0596  0.2921
17128TIP3    H172875   5.929   1.021  13.202 -0.0264 -0.3813  1.2357
17128TIP3    H272876   5.844   0.942  13.104  1.6378  0.3400 -0.8799
17129TIP3   OH272877   3.039   0.298  15.887  0.2363 -0.2211  0.1922
17129TIP3    H172878   2.962   0.329  15.840 -0.2476  0.3680  1.3382
17129TIP3    H272879   3.111   0.352  15.853 -0.1399  0.3343  0.2618
17130TIP3   OH272880   2.187   0.269  16.557 -0.0125 -0.0459  0.2492
17130TIP3    H172881   2.258   0.228  16.507  0.9905  2.5457 -0.6604
17130TIP3    H272882   2.230   0.305  16.634 -0.3522  1.3200 -0.1758
17131TIP3   OH272883   4.222   4.211  11.513 -0.3670  0.5148  0.1874
17131TIP3    H172884   4.160   4.186  11.445  1.4740  0.7956 -1.6861
17131TIP3    H272885   4.186   4.174  11.593 -0.6970 -3.2144 -1.5009
17132TIP3   OH272886   3.420   1.630  11.084 -0.3983  0.7444  0.1897
17132TIP3    H172887   3.349   1.681  11.045 -1.0914 -0.3668 -0.0453
17132TIP3    H272888   3.417   1.652  11.177 -1.6081  0.1028  0.3287
17133TIP3   OH272889   5.171   2.710  15.797  0.1568  0.0768 -0.1480
17133TIP3    H172890   5.122   2.768  15.739  0.6389  0.4335 -0.1996
17133TIP3    H272891   5.156   2.622  15.761 -1.9862 -0.0541  0.9335
17134TIP3   OH272892   0.312   6.238   4.745  0.2423  0.2622  0.0717
17134TIP3    H172893   0.269   6.317   4.711 -0.3070 -0.5588 -1.2206
17134TIP3    H272894   0.279   6.230   4.835 -1.3666  0.3540 -0.4660
17135TIP3   OH272895   6.436   1.826   2.519  0.2913 -0.6359 -0.1962
17135TIP3    H172896   6.427   1.740   2.478 -0.7367 -0.2554 -0.8353
17135TIP3    H272897   6.403   1.815   2.608 -0.1665 -0.8299 -0.3873
17136TIP3   OH272898   1.312   5.898  14.218  0.2442 -0.3504  0.0208
17136TIP3    H172899   1.360   5.828  14.173 -0.3037 -1.4861  1.1538
17136TIP3    H272900   1.233   5.857  14.250 -0.0796  0.7913  0.7516
17137TIP3   OH272901   0.803   1.172   6.040  0.0844  0.4226 -0.1912
17137TIP3    H172902   0.758   1.181   6.124  0.9377  0.2074  0.3009
17137TIP3    H272903   0.876   1.113   6.059 -0.4427 -0.6555 -1.3849
17138TIP3   OH272904   0.307   3.774   5.471 -0.1932 -0.2684 -0.0445
17138TIP3    H172905   0.313   3.681   5.447 -2.2488 -0.0956 -1.5294
17138TIP3    H272906   0.222   3.781   5.515  0.5097  0.7198  1.2226
17139TIP3   OH272907   2.634   6.815   4.790  0.6223 -0.1363 -0.2721
17139TIP3    H172908   2.601   6.789   4.704  0.5515  1.4526 -0.7529
17139TIP3    H272909   2.729   6.801   4.785  0.4934 -1.0755 -0.2164
17140TIP3   OH272910   3.746   4.692   6.127  0.2924 -0.3760 -0.1381
17140TIP3    H172911   3.681   4.759   6.103  1.1635  0.7793  0.5849
17140TIP3    H272912   3.807   4.738   6.185  1.0704 -1.7528  0.1828
17141TIP3   OH272913   6.754   5.642  12.883 -0.5646 -0.2157 -0.1840
17141TIP3    H172914   6.666   5.623  12.849 -0.1740  0.1561 -1.4715
17141TIP3    H272915   6.804   5.562  12.866 -0.3481 -0.0030 -0.5661
17142TIP3   OH272916   4.607   0.576  13.046  0.4991 -0.2730  0.4622
17142TIP3    H172917   4.676   0.509  13.049  0.8963  0.1431  0.6889
17142TIP3    H272918   4.558   0.555  12.966  0.1605 -1.2758  0.9071
17143TIP3   OH272919   2.126   2.653   1.473  0.5994  0.8368  0.0651
17143TIP3    H172920   2.072   2.722   1.510 -0.3511 -0.1630  0.5826
17143TIP3    H272921   2.174   2.696   1.402 -0.0430  1.9980  0.3110
17144TIP3   OH272922   6.168   6.020   3.265 -0.1684 -0.0095 -0.5310
17144TIP3    H172923   6.164   6.085   3.195 -0.1470  0.3450 -0.2030
17144TIP3    H272924   6.206   5.942   3.223  1.7451  0.8222 -0.4546
17145TIP3   OH272925   4.860   3.408  12.266  0.5392  0.0809 -0.0497
17145TIP3    H172926   4.815   3.444  12.342  1.0321 -0.3681  0.4640
17145TIP3    H272927   4.905   3.330  12.299  2.6482  1.1427 -0.2781
17146TIP3   OH272928   0.997   2.694   2.311  0.6373 -0.2751 -0.0348
17146TIP3    H172929   1.022   2.696   2.219  0.8405  0.5297  0.0293
17146TIP3    H272930   0.902   2.689   2.311  0.4926  1.8224 -0.3107
17147TIP3   OH272931   4.186   1.485  17.213 -0.2993 -0.2387  0.4011
17147TIP3    H172932   4.185   1.564  17.159 -3.2111 -0.8850 -0.6728
17147TIP3    H272933   4.217   1.515  17.299  1.3911  1.4348 -0.7003
17148TIP3   OH272934   1.755   2.933  17.275  0.1803 -0.2182 -0.2901
17148TIP3    H172935   1.675   2.948  17.326 -0.8817  0.0177 -1.9574
17148TIP3    H272936   1.816   2.894  17.338 -0.7386  0.9010  1.3919
17149TIP3   OH272937   0.999   3.270  12.994 -0.2036 -0.3880 -0.2200
17149TIP3    H172938   1.057   3.239  12.925 -0.1203 -2.0276  0.5376
17149TIP3    H272939   1.028   3.224  13.073 -1.6739 -0.2294  0.4533
17150TIP3   OH272940   5.265   4.262   4.509  0.7990 -0.3430  0.0149
17150TIP3    H172941   5.347   4.310   4.496  1.5493 -1.5615  0.1432
17150TIP3    H272942   5.281   4.176   4.472 -0.4289 -0.6172  0.0671
17151TIP3   OH272943   1.140   5.892   5.340 -0.0415  0.5347  0.1894
17151TIP3    H172944   1.084   5.846   5.403  0.7213  1.0210  1.2510
17151TIP3    H272945   1.101   5.980   5.335  0.3981  0.7636  0.6614
17152TIP3   OH272946   4.293   0.964   2.645 -0.4847 -0.0358 -0.1536
17152TIP3    H172947   4.232   1.038   2.656 -1.2443 -0.7406  0.6230
17152TIP3    H272948   4.380   1.004   2.647 -0.8927  0.9012 -0.3537
17153TIP3   OH272949   6.241   5.937   0.960 -0.7109 -0.0511  0.1482
17153TIP3    H172950   6.315   5.948   1.019 -2.2338  0.0198  2.1806
17153TIP3    H272951   6.204   6.025   0.950 -0.2089  0.0269 -1.3727
17154TIP3   OH272952   5.828   4.552  12.499  0.4730  0.5042 -0.2252
17154TIP3    H172953   5.776   4.557  12.579 -0.3324  1.0556 -0.7684
17154TIP3    H272954   5.919   4.564  12.528  0.1930  0.6754  0.6003
17155TIP3   OH272955   4.641   0.429   6.382  0.1913 -0.2306 -0.2154
17155TIP3    H172956   4.657   0.519   6.410 -0.5325 -0.8334  2.4008
17155TIP3    H272957   4.720   0.405   6.333  1.2804  1.1720  0.7463
17156TIP3   OH272958   5.208   5.434  13.321  0.1018 -0.4627 -0.4353
17156TIP3    H172959   5.118   5.418  13.294 -0.9714  0.0578  2.4633
17156TIP3    H272960   5.216   5.389  13.405  2.1070  0.6684  0.0516
17157TIP3   OH272961   0.824   4.926   0.275  0.0844  0.1866  0.6262
17157TIP3    H172962   0.749   4.879   0.239 -1.7019  2.5588  0.9862
17157TIP3    H272963   0.870   4.961   0.198  0.3912 -0.6254  0.4338
17158TIP3   OH272964   3.850   0.581  15.992 -0.0680  0.1680 -0.2254
17158TIP3    H172965   3.913   0.530  15.941  0.1163  0.0769  0.0855
17158TIP3    H272966   3.894   0.665  16.007 -0.0398  0.1235 -0.0528
17159TIP3   OH272967   0.922   4.844   5.238 -0.3994  0.6055  0.4668
17159TIP3    H172968   0.914   4.807   5.326 -2.1457 -0.1049  0.0540
17159TIP3    H272969   0.930   4.938   5.252  0.2342  0.4331  1.3987
17160TIP3   OH272970   0.422   3.640  14.447  0.1926 -0.0426 -0.0654
17160TIP3    H172971   0.499   3.599  14.409  0.6158 -2.3741  2.9225
17160TIP3    H272972   0.356   3.639  14.378  1.7950 -1.1489 -1.6346
17161TIP3   OH272973   2.675   4.760   4.783  0.2045  0.2234  0.2290
17161TIP3    H172974   2.626   4.813   4.846 -0.7067 -0.3619  0.0341
17161TIP3    H272975   2.682   4.814   4.705  0.1233  0.4267  0.3633
17162TIP3   OH272976   6.181   5.152   4.406  0.4569 -0.2352  0.2555
17162TIP3    H172977   6.131   5.075   4.379  1.5583 -0.8486 -0.0990
17162TIP3    H272978   6.122   5.226   4.391  0.7779 -0.5497 -3.4268
17163TIP3   OH272979   5.562   4.213   4.226 -0.5174  0.1706 -0.2692
17163TIP3    H172980   5.580   4.135   4.174 -0.0470  0.5437 -0.6771
17163TIP3    H272981   5.499   4.263   4.174  0.9542  1.1972 -1.1687
17164TIP3   OH272982   4.163   1.816   3.792  0.3519 -0.1378 -0.1372
17164TIP3    H172983   4.179   1.722   3.799  2.8848  0.0965 -1.6934
17164TIP3    H272984   4.151   1.832   3.699 -2.6627  0.8162  0.3045
17165TIP3   OH272985   6.064   1.463  12.697  0.5169  0.0886 -0.4714
17165TIP3    H172986   6.046   1.386  12.644  0.4487 -1.0323  1.1116
17165TIP3    H272987   6.054   1.537  12.637 -1.3706 -0.9982 -1.5737
17166TIP3   OH272988   4.713   5.588  10.658  0.1342 -0.5386 -0.2361
17166TIP3    H172989   4.761   5.657  10.704 -0.8271 -1.5016  2.4351
17166TIP3    H272990   4.643   5.633  10.613  2.0329  0.6214 -2.2408
17167TIP3   OH272991   3.654   1.813   1.776 -0.2321  0.2354  0.1123
17167TIP3    H172992   3.738   1.843   1.740  0.3192 -1.0094  0.3252
17167TIP3    H272993   3.643   1.726   1.740 -1.5635  0.4746 -0.0917
17168TIP3   OH272994   1.583   1.927  14.493 -0.4738 -0.1081  0.0006
17168TIP3    H172995   1.605   1.858  14.554  0.3319 -0.2461 -0.4255
17168TIP3    H272996   1.546   1.997  14.547  1.9776  0.5538  0.9382
17169TIP3   OH272997   4.926   2.793  11.334 -0.0521 -0.4473  0.0595
17169TIP3    H172998   4.947   2.745  11.414  2.2877 -0.4044 -0.4328
17169TIP3    H272999   4.833   2.777  11.319 -0.1829 -1.7368  1.9205
17170TIP3   OH273000   2.375   4.476  17.065 -0.1638 -0.4020 -0.1599
17170TIP3    H173001   2.339   4.534  16.999 -3.4981 -0.8731  1.0786
17170TIP3    H273002   2.459   4.516  17.089 -0.6660  1.8597 -1.9046
17171TIP3   OH273003   1.954   3.835   5.348  0.1099  0.1225  0.1114
17171TIP3    H173004   1.927   3.879   5.267  1.2306  1.4405  0.4092
17171TIP3    H273005   2.045   3.810   5.332  0.0643 -0.4034  0.6486
17172TIP3   OH273006   1.084   5.883  16.327 -0.1879 -0.0171  0.3593
17172TIP3    H173007   1.170   5.850  16.354 -0.3763 -0.8460 -0.0372
17172TIP3    H273008   1.104   5.945  16.257  0.2734  1.8652  2.0566
17173TIP3   OH273009   5.677   1.859  15.558 -0.1834  0.0448 -0.6435
17173TIP3    H173010   5.758   1.884  15.514 -0.3321 -0.4409 -1.2025
17173TIP3    H273011   5.665   1.766  15.536 -0.0886 -0.3069  0.6744
17174TIP3   OH273012   4.793   2.475   3.426  0.0454  0.0070  0.3399
17174TIP3    H173013   4.798   2.460   3.520 -0.5603  1.5049  0.6413
17174TIP3    H273014   4.885   2.478   3.398  0.2273 -1.1147  0.7321
17175TIP3   OH273015   6.233   6.575  10.408  0.4592 -0.5599  0.2778
17175TIP3    H173016   6.289   6.501  10.433 -1.1587 -1.4707  1.3490
17175TIP3    H273017   6.250   6.641  10.475  0.7713 -0.5485  0.1906
17176TIP3   OH273018   0.561   5.510   1.472 -0.0352 -0.1860  0.3925
17176TIP3    H173019   0.571   5.443   1.540  1.9519  0.8783  1.2334
17176TIP3    H273020   0.591   5.467   1.392  0.3713 -0.5765  0.7522
17177TIP3   OH273021   2.135   4.315  12.814 -0.7902  0.3028  0.5822
17177TIP3    H173022   2.200   4.253  12.781 -1.2907  0.2137 -0.2669
17177TIP3    H273023   2.067   4.316  12.747 -1.9575 -0.0340  1.7273
17178TIP3   OH273024   5.822   4.894   4.806 -0.5462  0.3174  0.2055
17178TIP3    H173025   5.743   4.886   4.752  0.5879 -0.2231 -1.4332
17178TIP3    H273026   5.886   4.935   4.748  1.0333 -1.2132  0.8175
17179TIP3   OH273027   1.950   4.524   2.726  0.0195 -0.3750 -0.1867
17179TIP3    H173028   1.889   4.590   2.759 -0.9101 -1.8098  1.0744
17179TIP3    H273029   2.036   4.555   2.752 -0.3888  0.3667  0.3162
17180TIP3   OH273030   4.909   0.945   5.335  0.1671 -0.5639 -1.0458
17180TIP3    H173031   4.944   1.030   5.361 -0.6591  0.0791 -1.9219
17180TIP3    H273032   4.814   0.958   5.332 -0.2803 -2.3784  1.7250
17181TIP3   OH273033   4.650   4.999  11.339  0.0153 -0.6190 -0.0276
17181TIP3    H173034   4.720   4.934  11.350 -0.5017 -1.0344  0.9435
17181TIP3    H273035   4.626   4.994  11.247  1.2468 -0.4834 -0.3784
17182TIP3   OH273036   5.928   6.435   3.811  0.5306 -0.0287 -0.5240
17182TIP3    H173037   5.890   6.349   3.793  1.6784 -0.1429 -2.6930
17182TIP3    H273038   5.857   6.486   3.848 -0.2562 -1.8002  0.5597
17183TIP3   OH273039   2.386   0.284  13.963  0.9202  0.0294 -0.4248
17183TIP3    H173040   2.388   0.200  13.917 -0.0454 -0.5496  0.5453
17183TIP3    H273041   2.301   0.322  13.940  0.0068 -0.6913  1.5365
17184TIP3   OH273042   6.325   3.743  11.179  0.1698 -0.6061 -0.0050
17184TIP3    H173043   6.364   3.805  11.241 -1.4667 -1.5056  2.0585
17184TIP3    H273044   6.335   3.658  11.222  0.3410 -1.4883 -1.7245
17185TIP3   OH273045   5.783   1.021  12.916  0.5731  0.0705 -0.1867
17185TIP3    H173046   5.708   1.039  12.859  0.6513 -0.0383 -0.3235
17185TIP3    H273047   5.846   1.089  12.894  1.1469 -0.7707 -1.2001
17186TIP3   OH273048   2.686   1.827  14.004 -0.0192 -0.7849  0.2056
17186TIP3    H173049   2.676   1.921  14.022  0.4558 -0.2937 -1.8321
17186TIP3    H273050   2.774   1.806  14.036  0.3325 -0.2287 -0.3549
17187TIP3   OH273051   0.504   6.597  12.497 -0.1560  0.1721  0.1225
17187TIP3    H173052   0.432   6.569  12.554 -0.5507  1.5885  0.3488
17187TIP3    H273053   0.475   6.571  12.409 -0.6601  0.1429  0.2907
17188TIP3   OH273054   2.254   4.164   2.495  0.2431  0.3734  0.3958
17188TIP3    H173055   2.273   4.240   2.550 -2.1172  1.6042 -0.3997
17188TIP3    H273056   2.181   4.120   2.539  0.4669 -0.5048 -0.0755
17189TIP3   OH273057   3.464   3.695  16.636 -0.4826 -0.1596  0.3272
17189TIP3    H173058   3.391   3.755  16.650  0.6148  1.1460  0.6294
17189TIP3    H273059   3.439   3.644  16.559 -0.9745  1.4509 -0.6282
17190TIP3   OH273060   5.441   1.049  15.609  0.3670  0.1981  0.1325
17190TIP3    H173061   5.379   1.120  15.590  0.1997  0.5566  1.8022
17190TIP3    H273062   5.524   1.094  15.625  0.4452 -0.0390  0.4066
17191TIP3   OH273063   3.290   2.873   5.006 -0.0502 -0.1496 -0.7233
17191TIP3    H173064   3.213   2.831   5.045 -0.3618  0.6601 -0.4433
17191TIP3    H273065   3.363   2.813   5.026 -0.7644 -1.5219 -2.0183
17192TIP3   OH273066   1.889   2.786   5.183 -0.0590  0.6349  0.7331
17192TIP3    H173067   1.943   2.861   5.205  1.0356 -0.2924  1.3259
17192TIP3    H273068   1.909   2.721   5.250 -0.1653 -0.5768 -0.3682
17193TIP3   OH273069   2.691   6.556   1.018  0.0907 -0.0694  0.1029
17193TIP3    H173070   2.630   6.554   0.943  1.3647 -1.0545 -0.9500
17193TIP3    H273071   2.741   6.636   1.005  0.6874 -0.5226 -0.4207
17194TIP3   OH273072   2.373   1.082   4.862 -0.1911 -0.7432  0.4433
17194TIP3    H173073   2.402   1.038   4.782 -0.9449 -2.2307  0.9528
17194TIP3    H273074   2.369   1.013   4.928 -1.5737  0.0488  1.2383
17195TIP3   OH273075   2.447   1.817  14.930  0.0388 -0.4192 -0.4957
17195TIP3    H173076   2.435   1.748  14.995  1.6722 -2.2061 -1.9655
17195TIP3    H273077   2.363   1.819  14.883 -1.1027  0.7808  1.4551
17196TIP3   OH273078   6.763   3.462  10.970 -0.2073 -0.5659 -0.5811
17196TIP3    H173079   6.761   3.550  10.932  1.8950 -0.2226 -0.0105
17196TIP3    H273080   6.793   3.406  10.899 -0.4527 -0.6538 -0.6188
17197TIP3   OH273081   4.112   3.284  16.134  0.7947  0.2608  0.2558
17197TIP3    H173082   4.102   3.377  16.114  2.3668  0.6524  1.1171
17197TIP3    H273083   4.187   3.256  16.082  0.5722 -0.4403  0.2946
17198TIP3   OH273084   1.572   4.035  17.232 -0.4421 -0.3429  0.4295
17198TIP3    H173085   1.480   4.051  17.211 -0.6722 -1.0420  0.8879
17198TIP3    H273086   1.585   4.079  17.317  0.1431  1.3434 -0.4844
17199TIP3   OH273087   6.393   0.206  12.141 -0.4617  0.2218  0.5289
17199TIP3    H173088   6.344   0.161  12.071 -0.1850  2.3952 -1.1544
17199TIP3    H273089   6.464   0.250  12.096  1.1482 -0.1697  2.5371
17200TIP3   OH273090   5.686   5.297   3.094  0.1709  0.0494  0.4141
17200TIP3    H173091   5.761   5.249   3.128 -0.8728 -1.9785 -0.0199
17200TIP3    H273092   5.669   5.259   3.008 -0.6054  1.3323 -0.0382
17201TIP3   OH273093   6.176   3.842   1.939 -0.5091  0.5423 -0.5007
17201TIP3    H173094   6.110   3.891   1.890 -1.1881 -0.6999 -0.8650
17201TIP3    H273095   6.176   3.755   1.899 -0.0686 -0.0731  0.7895
17202TIP3   OH273096   5.453   6.676  14.186  0.1034  0.1093  0.3791
17202TIP3    H173097   5.504   6.742  14.233  0.0276  0.7211 -0.3671
17202TIP3    H273098   5.366   6.716  14.176  0.1246  0.0074 -0.2863
17203TIP3   OH273099   0.728   0.258  16.826 -0.5000  0.0740  0.2293
17203TIP3    H173100   0.741   0.348  16.799  0.1708  0.2450  1.0673
17203TIP3    H273101   0.732   0.207  16.745 -1.7450  0.8635 -0.3580
17204TIP3   OH273102   6.249   2.130   0.476 -0.4541  0.5295 -0.2712
17204TIP3    H173103   6.172   2.105   0.527 -0.7392 -0.7770 -1.2770
17204TIP3    H273104   6.214   2.150   0.389  0.0504  2.4744 -0.0741
17205TIP3   OH273105   0.717   4.386  11.581  0.0116  0.2150  0.3821
17205TIP3    H173106   0.692   4.478  11.586 -0.9818  0.0343 -0.7012
17205TIP3    H273107   0.635   4.340  11.565  0.7554 -0.6502 -1.1228
17206TIP3   OH273108   6.438   2.472   4.921 -0.4505  0.1060  0.1979
17206TIP3    H173109   6.392   2.552   4.947  0.0217  0.1586  0.9010
17206TIP3    H273110   6.391   2.402   4.966  0.3428  0.1934  1.2083
17207TIP3   OH273111   6.656   4.142   5.968 -0.4519  0.2480  0.2189
17207TIP3    H173112   6.563   4.117   5.963 -0.2198 -0.8311  1.1339
17207TIP3    H273113   6.697   4.074   6.022  1.3224 -0.5890 -1.9964
17208TIP3   OH273114   0.433   4.248   4.752 -0.0744  0.4722  0.4508
17208TIP3    H173115   0.510   4.192   4.747 -0.0844  0.4967 -0.0437
17208TIP3    H273116   0.460   4.321   4.808  1.2949  2.0391 -2.0363
17209TIP3   OH273117   1.035   0.974  14.238 -0.0386 -0.0145 -0.6223
17209TIP3    H173118   1.126   0.998  14.225 -0.2460 -0.1336 -2.6166
17209TIP3    H273119   1.035   0.878  14.245  0.0431  0.0312  0.1014
17210TIP3   OH273120   5.694   1.204   3.035 -0.4575 -0.0791  0.7236
17210TIP3    H173121   5.629   1.177   2.970  0.3703 -0.1504 -0.0994
17210TIP3    H273122   5.681   1.299   3.043  0.2299  0.1439 -0.4869
17211TIP3   OH273123   5.674   5.381   1.451  0.3360  0.0942  0.5150
17211TIP3    H173124   5.713   5.360   1.536  0.6528  0.5237  0.4801
17211TIP3    H273125   5.748   5.382   1.390  0.5139  2.1936  0.6784
17212TIP3   OH273126   1.514   4.444   1.677 -0.5488 -0.2134  0.1844
17212TIP3    H173127   1.462   4.522   1.695 -0.1672  0.2641 -0.6760
17212TIP3    H273128   1.590   4.452   1.734 -0.7763 -0.2354  0.4924
17213TIP3   OH273129   1.615   4.038   4.982 -0.5109 -0.3427  0.1572
17213TIP3    H173130   1.520   4.030   4.987 -0.7500 -0.4913 -3.0982
17213TIP3    H273131   1.646   3.948   4.973 -0.2387 -0.1479 -0.8813
17214TIP3   OH273132   1.549   0.416  10.901 -0.1579  0.2435 -0.7635
17214TIP3    H173133   1.514   0.327  10.896  0.6565 -0.1305 -0.0770
17214TIP3    H273134   1.498   0.465  10.836 -0.8627 -0.6311 -0.9029
17215TIP3   OH273135   6.798   2.692   2.757  0.4916 -0.1970  0.6345
17215TIP3    H173136   6.782   2.775   2.714  2.7053 -1.3894 -2.9001
17215TIP3    H273137   6.746   2.629   2.707 -0.0352 -1.2007  2.3508
17216TIP3   OH273138   0.782   1.987   4.835 -0.0346  0.7106  0.3484
17216TIP3    H173139   0.789   2.065   4.891 -0.0977 -0.1757  1.6205
17216TIP3    H273140   0.870   1.949   4.838 -0.1180  0.4998  0.0675
17217TIP3   OH273141   4.583   3.845  13.485 -0.8660 -0.2820  0.1121
17217TIP3    H173142   4.557   3.872  13.573 -0.6865  0.2151  0.0137
17217TIP3    H273143   4.551   3.755  13.478  0.6255 -0.9682  1.3293
17218TIP3   OH273144   4.103   1.341   2.381  0.4941 -0.1068  0.3400
17218TIP3    H173145   4.164   1.286   2.334 -1.2804 -0.3638 -1.8258
17218TIP3    H273146   4.077   1.409   2.318 -2.2835 -0.7071  0.6932
17219TIP3   OH273147   5.252   1.424   3.079  0.2400 -0.4160 -0.1569
17219TIP3    H173148   5.335   1.391   3.114  1.9107  1.9223 -1.5658
17219TIP3    H273149   5.216   1.478   3.150  0.9353  0.1075 -0.1907
17220TIP3   OH273150   0.895   5.265   5.307  0.4460  0.4771 -0.1813
17220TIP3    H173151   0.861   5.308   5.229 -0.2262 -0.9344 -0.6942
17220TIP3    H273152   0.819   5.226   5.349  0.9701  0.1851  0.5296
17221TIP3   OH273153   1.919   3.528  14.688 -0.3008 -0.1151 -0.2899
17221TIP3    H173154   1.988   3.528  14.621 -0.4717  0.4897 -0.4695
17221TIP3    H273155   1.943   3.457  14.747  0.9019  0.5695  0.0771
17222TIP3   OH273156   3.658   1.496   2.459  0.4248  0.2436 -0.2754
17222TIP3    H173157   3.573   1.539   2.463 -0.0592 -0.7604  0.9824
17222TIP3    H273158   3.666   1.468   2.367 -0.8259 -0.0706 -0.3116
17223TIP3   OH273159   6.215   2.701  13.115  0.6363 -0.4682  0.7591
17223TIP3    H173160   6.237   2.690  13.208 -1.8507  0.0845  1.4873
17223TIP3    H273161   6.291   2.668  13.068  1.3988 -2.0850  2.9874
17224TIP3   OH273162   5.253   3.316   4.129  0.0926 -0.0315  0.5597
17224TIP3    H173163   5.313   3.346   4.197  0.8663 -0.9389  0.3011
17224TIP3    H273164   5.207   3.395   4.101  2.0470  0.9241 -0.0936
17225TIP3   OH273165   5.262   1.311   5.178 -0.6001 -0.2680  0.1105
17225TIP3    H173166   5.191   1.252   5.202 -1.1377  0.0004 -0.7745
17225TIP3    H273167   5.291   1.349   5.261 -0.8823 -1.0548  0.5806
17226TIP3   OH273168   3.404   2.725   1.073  0.3137  0.3986 -0.1265
17226TIP3    H173169   3.464   2.730   1.148 -0.0323 -0.3854  0.2174
17226TIP3    H273170   3.395   2.816   1.044  1.6072  0.5344 -0.1465
17227TIP3   OH273171   3.445   4.831   5.674 -0.6714  0.1007  0.3341
17227TIP3    H173172   3.382   4.834   5.602 -0.7355  1.8004  0.4242
17227TIP3    H273173   3.403   4.880   5.745  0.1533  0.0237  0.8882
17228TIP3   OH273174   1.496   1.606   5.658 -0.3876 -0.2407  0.2025
17228TIP3    H173175   1.513   1.513   5.645 -0.6811 -0.2215 -0.3452
17228TIP3    H273176   1.525   1.647   5.577 -2.0323 -0.0799 -0.3259
17229TIP3   OH273177   6.667   1.237   5.632 -0.0612 -0.1259 -0.1499
17229TIP3    H173178   6.599   1.187   5.678  0.3022 -2.0750 -1.6088
17229TIP3    H273179   6.713   1.172   5.579  0.8342  1.6925 -1.7235
17230TIP3   OH273180   3.901   1.887   1.576 -0.1356 -0.1899 -0.5819
17230TIP3    H173181   3.923   1.819   1.511  2.1868  0.2079 -0.2840
17230TIP3    H273182   3.914   1.969   1.529 -0.0433  0.0806 -0.0847
17231TIP3   OH273183   3.838   3.250  12.110  0.2724  0.2442 -0.0503
17231TIP3    H173184   3.783   3.189  12.060  0.6359  1.5343 -2.1670
17231TIP3    H273185   3.784   3.328  12.119  0.4641  0.2615  1.0751
17232TIP3   OH273186   2.435   3.296   2.196 -0.5369  0.2777 -0.0449
17232TIP3    H173187   2.466   3.267   2.282 -1.0070 -1.0350 -0.2912
17232TIP3    H273188   2.391   3.220   2.159  1.7392 -0.0271 -2.4803
17233TIP3   OH273189   0.717   6.320   4.710 -0.2050 -0.0095  0.6261
17233TIP3    H173190   0.744   6.387   4.772  2.3814 -1.3436  1.0571
17233TIP3    H273191   0.691   6.369   4.632  2.7468  1.5530  0.4798
17234TIP3   OH273192   0.669   3.616   2.840 -0.0373  0.6788  0.2067
17234TIP3    H173193   0.638   3.603   2.929 -1.0899 -0.2258 -0.2662
17234TIP3    H273194   0.738   3.550   2.829  0.5996  1.2690  0.5661
17235TIP3   OH273195   1.964   6.308  14.501  0.7418  0.0851  0.1970
17235TIP3    H173196   1.915   6.261  14.434 -0.4593  0.4737  0.7674
17235TIP3    H273197   1.983   6.393  14.462 -2.3107  1.3767  1.1824
17236TIP3   OH273198   4.833   5.640   0.737 -0.8276 -0.0101  0.1900
17236TIP3    H173199   4.825   5.565   0.796  1.6788 -0.8741 -0.4288
17236TIP3    H273200   4.916   5.681   0.762 -0.7880  0.8936 -1.3252
17237TIP3   OH273201   1.138   3.450  15.298 -0.0017 -0.2385  0.2202
17237TIP3    H173202   1.169   3.522  15.352 -2.3238  0.6184  0.5148
17237TIP3    H273203   1.140   3.374  15.355 -1.7754  0.5195  1.3872
17238TIP3   OH273204   3.271   5.502  13.149 -0.6560  0.1932 -0.2742
17238TIP3    H173205   3.245   5.527  13.237  2.2374 -0.9567  1.0259
17238TIP3    H273206   3.291   5.585  13.105  0.4780  0.6732  1.0769
17239TIP3   OH273207   5.135   5.635  14.738  0.7844  0.0318 -0.3073
17239TIP3    H173208   5.073   5.687  14.687  0.4459 -0.4270 -0.3656
17239TIP3    H273209   5.212   5.692  14.746 -0.3997  1.4758  1.6400
17240TIP3   OH273210   1.874   1.228  13.645 -0.4521  0.2095 -0.4044
17240TIP3    H173211   1.843   1.299  13.588  2.8888  1.9864 -0.2091
17240TIP3    H273212   1.859   1.260  13.734  2.2924  1.4346 -0.2896
17241TIP3   OH273213   2.767   1.087  11.560 -0.4495  0.0304  0.0783
17241TIP3    H173214   2.697   1.150  11.539 -1.0064 -0.7465 -0.4879
17241TIP3    H273215   2.780   1.039  11.478  1.5351  0.8795 -0.1545
17242TIP3   OH273216   4.349   6.125   4.553  0.0340 -0.3897 -0.6233
17242TIP3    H173217   4.348   6.200   4.493 -0.4171  0.6053  0.5991
17242TIP3    H273218   4.267   6.080   4.536 -0.1007 -0.1020 -0.7435
17243TIP3   OH273219   4.384   4.414   1.496 -0.4956  0.6891 -0.0929
17243TIP3    H173220   4.335   4.343   1.537  0.6587  0.3930  0.8027
17243TIP3    H273221   4.414   4.468   1.569  0.5018  0.8625 -0.6159
17244TIP3   OH273222   3.151   6.170   3.978 -0.1748  0.2656 -0.3540
17244TIP3    H173223   3.229   6.156   4.031  0.1633  1.0467 -0.6175
17244TIP3    H273224   3.081   6.187   4.041 -0.0039  0.1304 -0.1291
17245TIP3   OH273225   4.476   0.832   1.340 -0.1992 -0.0763  0.1637
17245TIP3    H173226   4.443   0.743   1.327 -1.9819  0.5459  0.0988
17245TIP3    H273227   4.524   0.852   1.260  2.5551 -1.8729  1.2317
17246TIP3   OH273228   6.310   4.230  16.500 -0.1732  0.2455  0.0692
17246TIP3    H173229   6.281   4.142  16.522 -1.8829  0.5933 -0.6717
17246TIP3    H273230   6.230   4.277  16.475  0.9016  1.5522 -1.1075
17247TIP3   OH273231   2.186   0.420  12.837  0.0258 -0.9535 -0.3241
17247TIP3    H173232   2.233   0.422  12.753  1.4222 -0.7022  0.4208
17247TIP3    H273233   2.126   0.345  12.830  1.2857 -1.9459 -0.9590
17248TIP3   OH273234   0.488   6.376   5.666  0.2605  0.1410  0.2058
17248TIP3    H173235   0.463   6.329   5.587  1.3147 -1.2388  0.6577
17248TIP3    H273236   0.407   6.380   5.718 -0.0216 -0.5062 -0.1747
17249TIP3   OH273237   5.735   4.140  17.078  0.2938 -0.0978 -0.2058
17249TIP3    H173238   5.822   4.113  17.049  0.1001  0.2017 -1.1024
17249TIP3    H273239   5.693   4.059  17.106  0.5706 -0.3615 -0.5468
17250TIP3   OH273240   6.232   3.898  17.085  0.3651 -0.6813 -0.1796
17250TIP3    H173241   6.271   3.978  17.119 -0.1758  0.7622 -2.6691
17250TIP3    H273242   6.205   3.849  17.162  2.0348  0.8404  1.4639
17251TIP3   OH273243   3.670   0.028   4.186  0.2399  0.4087  0.2211
17251TIP3    H173244   3.742  -0.035   4.176  1.7790  1.9304  1.1962
17251TIP3    H273245   3.705   0.095   4.244 -2.3895  0.6617  1.6480
17252TIP3   OH273246   1.235   2.199   3.481  0.3609 -0.4965 -0.2828
17252TIP3    H173247   1.215   2.231   3.569  1.6756 -0.3932  0.0056
17252TIP3    H273248   1.173   2.243   3.424 -0.9987 -1.1136  0.6641
17253TIP3   OH273249   1.019   3.142   3.688 -0.2733 -0.3489 -0.8537
17253TIP3    H173250   1.103   3.111   3.655  0.0972 -1.0798  0.7026
17253TIP3    H273251   0.995   3.214   3.630  1.2147 -0.4032 -1.5655
17254TIP3   OH273252   1.142   5.355   5.142  0.4182 -0.6164  0.1349
17254TIP3    H173253   1.111   5.430   5.090 -2.5977 -1.6735  0.2492
17254TIP3    H273254   1.078   5.347   5.213  1.9943 -1.9318  1.4782
17255TIP3   OH273255   4.016   3.599   6.149 -0.2601  0.2006 -0.0431
17255TIP3    H173256   3.953   3.669   6.164  0.5981  0.5595  2.5135
17255TIP3    H273257   4.061   3.590   6.233  0.4381 -2.6555 -0.6226
17256TIP3   OH273258   6.411   4.425  16.658 -0.2761  0.1963 -0.7280
17256TIP3    H173259   6.357   4.477  16.599 -1.0222 -0.1844 -0.3994
17256TIP3    H273260   6.412   4.338  16.618 -1.3857 -0.2510  0.1692
17257TIP3   OH273261   3.545   1.233  13.572 -0.0270  0.4464 -0.4579
17257TIP3    H173262   3.530   1.327  13.584  0.9183  0.6036 -0.3922
17257TIP3    H273263   3.499   1.192  13.645  0.2507  0.9262 -0.0048
17258TIP3   OH273264   2.159   2.067   1.714  0.0002 -0.0970  0.3906
17258TIP3    H173265   2.237   2.025   1.750  0.1490 -0.7959 -0.6835
17258TIP3    H273266   2.088   2.006   1.734  0.4559 -1.8125 -2.5881
17259TIP3   OH273267   6.482   5.978   6.003  0.7643 -0.5426 -0.6587
17259TIP3    H173268   6.477   5.931   6.086 -0.2680  1.3411  0.3998
17259TIP3    H273269   6.399   5.960   5.960  0.1396  0.6953 -0.0070
17260TIP3   OH273270   3.748   1.490  14.223  0.0708  0.5102 -0.3336
17260TIP3    H173271   3.741   1.538  14.306  1.7180 -0.3934  0.3732
17260TIP3    H273272   3.756   1.559  14.157 -1.4819  1.2536  0.1924
17261TIP3   OH273273   1.210   0.591  14.109 -0.2818 -0.3648  0.0468
17261TIP3    H173274   1.132   0.622  14.062 -0.0941 -0.2355 -0.1810
17261TIP3    H273275   1.278   0.585  14.042 -0.1151 -0.5525  0.2308
17262TIP3   OH273276   6.554   0.595   0.033 -0.2280  0.2905 -0.1467
17262TIP3    H173277   6.572   0.617   0.125  2.7515 -2.1124 -0.0114
17262TIP3    H273278   6.626   0.634  -0.016  0.5378 -1.9271 -0.8808
17263TIP3   OH273279   5.122   5.949  11.120  0.3357 -0.2209  0.0830
17263TIP3    H173280   5.037   5.905  11.130  0.1113  0.2431  0.3259
17263TIP3    H273281   5.184   5.893  11.167  0.5233 -1.5155 -1.6279
17264TIP3   OH273282   1.744   3.749  11.762  0.0942 -0.1894 -0.1862
17264TIP3    H173283   1.750   3.828  11.815  2.6821 -0.7894  0.5774
17264TIP3    H273284   1.757   3.779  11.672  1.3115  0.2694  0.1237
17265TIP3   OH273285   5.477   3.449  16.143 -0.2336 -0.6400  0.4563
17265TIP3    H173286   5.559   3.463  16.190  0.3861  0.4205 -0.8727
17265TIP3    H273287   5.452   3.360  16.165  1.9611 -1.4606 -0.0976
17266TIP3   OH273288   5.242   0.409  16.299 -0.1538 -0.1190  0.9421
17266TIP3    H173289   5.218   0.333  16.246  0.8037 -0.4458  0.9617
17266TIP3    H273290   5.205   0.391  16.386  0.9718 -1.0847  1.2477
17267TIP3   OH273291   5.996   6.214   4.708 -0.0780  0.0542  0.6824
17267TIP3    H173292   5.992   6.198   4.613 -1.2769  2.4365  0.2608
17267TIP3    H273293   6.072   6.165   4.737  0.1066 -1.0523 -1.4468
17268TIP3   OH273294   3.675   3.549  17.191  0.5004 -0.2481 -0.6387
17268TIP3    H173295   3.626   3.488  17.245 -0.2187  0.3751 -0.5653
17268TIP3    H273296   3.623   3.558  17.111 -0.1669  1.3461 -0.0723
17269TIP3   OH273297   1.811   1.006   1.694  0.2508 -0.5060  0.2184
17269TIP3    H173298   1.779   0.934   1.748  0.9630 -0.9003  0.1306
17269TIP3    H273299   1.854   0.962   1.620 -1.3922 -0.0042 -1.1232
17270TIP3   OH273300   2.023   5.110   1.043  0.1942  0.2854 -0.1694
17270TIP3    H173301   2.043   5.165   0.967 -0.1488  0.1480 -0.3596
17270TIP3    H273302   2.087   5.039   1.039  2.1185  1.8165  1.3101
17271TIP3   OH273303   3.194   4.896  16.928  0.6723 -0.0109 -0.0916
17271TIP3    H173304   3.196   4.801  16.929 -2.0869 -0.1559 -0.6716
17271TIP3    H273305   3.191   4.920  16.835 -0.4726  0.5403  0.0772
17272TIP3   OH273306   4.772   5.459   6.603 -0.6842 -0.1472 -0.7211
17272TIP3    H173307   4.829   5.401   6.653 -0.7324 -0.1286 -0.6424
17272TIP3    H273308   4.698   5.404   6.577 -1.1858  0.0985  0.1448
17273TIP3   OH273309   5.101   0.327   4.636  0.3354  0.0116 -0.0844
17273TIP3    H173310   5.111   0.241   4.677  0.7675  0.0462 -0.1114
17273TIP3    H273311   5.020   0.362   4.674  0.3576 -0.2472  0.2127
17274TIP3   OH273312   0.818   2.989   1.278  0.9359 -0.3096 -0.5187
17274TIP3    H173313   0.730   3.026   1.269 -0.1229 -2.5980 -0.2538
17274TIP3    H273314   0.872   3.063   1.306 -0.4147  1.6579 -2.7616
17275TIP3   OH273315   2.582   5.859  14.939 -0.0125  0.1769 -0.7846
17275TIP3    H173316   2.578   5.902  14.854  1.5986  0.9586 -0.4943
17275TIP3    H273317   2.675   5.840  14.953 -0.1503  0.6966  1.1013
17276TIP3   OH273318   4.496   0.800   1.920 -0.1332 -0.9052 -0.1845
17276TIP3    H173319   4.469   0.809   1.828 -0.7345  0.7124  0.1216
17276TIP3    H273320   4.447   0.723   1.951 -1.1536 -0.5315 -0.8042
17277TIP3   OH273321   3.997   2.372   4.060  0.0998  0.1491 -0.2614
17277TIP3    H173322   3.936   2.446   4.061  0.0380  0.0965 -0.1740
17277TIP3    H273323   3.953   2.304   4.110 -0.2068 -0.2330 -1.0235
17278TIP3   OH273324   4.942   0.922  14.293  0.0363 -0.5335  0.2163
17278TIP3    H173325   4.904   0.884  14.214 -0.5428 -0.2079  0.3339
17278TIP3    H273326   5.033   0.893  14.292  0.2521  0.1243 -0.9943
17279TIP3   OH273327   5.190   0.961   6.206  0.0539  0.6667 -0.3189
17279TIP3    H173328   5.256   0.911   6.157  0.3678  0.9735 -0.2143
17279TIP3    H273329   5.178   0.912   6.287  0.0616  0.5466 -0.3890
17280TIP3   OH273330   4.324   0.180  15.866 -0.0513  0.2029  0.5280
17280TIP3    H173331   4.316   0.208  15.958  0.9371 -0.0842  0.7184
17280TIP3    H273332   4.417   0.188  15.848  0.3067 -2.8658  0.5706
17281TIP3   OH273333   5.434   4.385  13.820 -0.1071 -0.1034  0.3046
17281TIP3    H173334   5.421   4.479  13.808 -1.4637 -0.0424  1.8877
17281TIP3    H273335   5.445   4.373  13.914  0.5650 -1.4837  0.0843
17282TIP3   OH273336   2.193   3.184   5.881 -0.1010  0.4616 -0.2012
17282TIP3    H173337   2.265   3.239   5.852  1.0011 -0.7073  0.2339
17282TIP3    H273338   2.172   3.129   5.806  1.4571 -1.2137  0.5024
17283TIP3   OH273339   5.884   5.097   1.364  0.1801 -0.5100  0.0931
17283TIP3    H173340   5.887   5.175   1.308  1.6904 -0.5523  0.0802
17283TIP3    H273341   5.830   5.035   1.315  1.5846 -0.6068 -1.4381
17284TIP3   OH273342   6.082   6.706   2.714  0.1286 -0.0351 -0.3269
17284TIP3    H173343   6.039   6.780   2.757 -0.3202  1.1169 -2.5759
17284TIP3    H273344   6.171   6.706   2.750  0.0630  1.4650 -0.1006
17285TIP3   OH273345   4.540   5.291   3.595 -0.2077  0.7685  0.4698
17285TIP3    H173346   4.539   5.292   3.499 -1.2373 -1.8685  0.3713
17285TIP3    H273347   4.450   5.314   3.620 -0.3619 -0.0657  0.7180
17286TIP3   OH273348   1.564   5.046  15.633  0.1196 -0.0245 -0.3763
17286TIP3    H173349   1.549   5.095  15.714 -0.8015 -1.4785  0.3618
17286TIP3    H273350   1.653   5.011  15.642 -0.4694 -1.3380  0.6714
17287TIP3   OH273351   5.596   5.742   5.282  0.0686 -0.4249 -0.3491
17287TIP3    H173352   5.653   5.674   5.246 -0.6075 -0.8473 -0.6301
17287TIP3    H273353   5.629   5.823   5.244 -0.0460 -0.7635 -1.1913
17288TIP3   OH273354   3.825   1.143   3.545  0.3190 -0.1564  0.6648
17288TIP3    H173355   3.801   1.178   3.459 -2.7436  1.1210  1.8703
17288TIP3    H273356   3.883   1.209   3.583  0.8222 -0.2082 -0.0056
17289TIP3   OH273357   3.672   6.669  16.073 -0.1987 -0.5721 -0.2509
17289TIP3    H173358   3.749   6.658  16.017 -1.4727  1.4394 -2.6395
17289TIP3    H273359   3.685   6.609  16.145  3.9568  0.1845 -0.1360
17290TIP3   OH273360   0.536   6.473   3.845 -0.0650  0.1024 -1.0437
17290TIP3    H173361   0.442   6.485   3.860 -0.6666 -2.0478 -2.5339
17290TIP3    H273362   0.577   6.504   3.925 -2.1876 -0.4109  0.3394
17291TIP3   OH273363   4.629   6.749   3.354 -0.0612 -0.3074  0.8238
17291TIP3    H173364   4.607   6.797   3.434 -0.8503  1.7910 -0.5514
17291TIP3    H273365   4.596   6.805   3.283  0.9417 -1.9019 -0.9936
17292TIP3   OH273366   2.557   2.074  14.883 -0.6698 -0.0971 -0.0670
17292TIP3    H173367   2.498   1.999  14.887 -1.4974  0.4566 -1.3518
17292TIP3    H273368   2.558   2.109  14.972 -2.1772 -0.2222  0.0241
17293TIP3   OH273369   0.995   6.243  14.358  0.0584  0.0831  0.9501
17293TIP3    H173370   0.914   6.223  14.406 -1.2299  0.2648 -1.0354
17293TIP3    H273371   1.027   6.159  14.327  0.7715 -0.0105  1.8923
17294TIP3   OH273372   1.197   6.148   5.139 -0.2999  0.0268  0.4820
17294TIP3    H173373   1.213   6.165   5.046 -0.3018  2.5511  0.8765
17294TIP3    H273374   1.122   6.202   5.162 -1.6703 -2.1681  1.5349
17295TIP3   OH273375   3.133   3.559  14.748  0.4053 -0.1824 -0.0405
17295TIP3    H173376   3.188   3.481  14.746  1.0029  0.2084  0.5746
17295TIP3    H273377   3.115   3.578  14.656 -0.1282 -1.2947 -0.1833
17296TIP3   OH273378   2.080   4.185   4.746  0.0720 -0.0337 -0.0964
17296TIP3    H173379   2.132   4.146   4.816 -0.2935  0.2036  0.3162
17296TIP3    H273380   2.110   4.142   4.666  1.8441  1.0332 -0.0572
17297TIP3   OH273381   2.516   1.198  13.782  0.4411  0.5313  0.0732
17297TIP3    H173382   2.532   1.272  13.841 -1.2839 -0.3964  1.8618
17297TIP3    H273383   2.543   1.121  13.833  0.3949 -0.2104 -0.9846
17298TIP3   OH273384   2.258   2.237   5.472  0.0678 -0.4179 -0.4500
17298TIP3    H173385   2.281   2.320   5.514 -0.8483 -0.3877  0.0276
17298TIP3    H273386   2.226   2.182   5.544 -0.1322 -0.8887 -0.8898
17299TIP3   OH273387   2.014   4.628  16.287 -0.1219 -0.2526  0.2670
17299TIP3    H173388   2.107   4.627  16.262  0.0447 -0.6973  0.8722
17299TIP3    H273389   1.987   4.719  16.273 -0.0467 -0.4636 -1.4864
17300TIP3   OH273390   0.480   3.954   2.887 -0.0327  0.3893 -0.2381
17300TIP3    H173391   0.470   4.044   2.917  0.3816  0.3592  0.0031
17300TIP3    H273392   0.560   3.924   2.930  0.6032  0.3564 -1.4221
17301TIP3   OH273393   4.694   4.140   2.376 -0.7715 -0.8380  0.2013
17301TIP3    H173394   4.661   4.055   2.403 -0.6182 -1.0203 -0.1770
17301TIP3    H273395   4.619   4.199   2.385 -0.9214 -1.0442  0.3097
17302TIP3   OH273396   4.815   3.844  17.113  0.0225  0.2433  0.0345
17302TIP3    H173397   4.755   3.813  17.045  0.0412 -0.4544  0.3207
17302TIP3    H273398   4.809   3.777  17.182  1.3420  0.0036 -0.0539
17303TIP3   OH273399   5.837   4.013   4.990 -0.5254 -0.2707 -0.5061
17303TIP3    H173400   5.909   4.035   4.930  0.1549 -0.6381  0.1627
17303TIP3    H273401   5.758   4.046   4.946  0.2753  2.2636 -0.1981
17304TIP3   OH273402   5.511   0.049   6.016 -0.2341  0.1891  0.0899
17304TIP3    H173403   5.476   0.138   6.009  0.1041  0.3025 -0.1857
17304TIP3    H273404   5.557   0.048   6.099 -0.9959  0.0005  0.5186
17305TIP3   OH273405   2.617   6.152   5.328 -0.4296  0.1427  0.2197
17305TIP3    H173406   2.698   6.200   5.310 -1.1909  1.2544 -0.3467
17305TIP3    H273407   2.578   6.137   5.241 -0.4022 -1.1861  0.4141
17306TIP3   OH273408   1.152   0.161  13.009 -0.1880 -0.0382  0.4742
17306TIP3    H173409   1.088   0.200  12.949  1.0770 -0.0947 -0.9837
17306TIP3    H273410   1.171   0.230  13.073 -0.1257  0.7422 -0.3594
17307TIP3   OH273411   0.913   1.494  12.460 -0.4030  0.4490  0.2871
17307TIP3    H173412   0.976   1.566  12.468  0.4475 -0.2898  0.4587
17307TIP3    H273413   0.834   1.526  12.503  0.4370  0.7499  1.6718
17308TIP3   OH273414   3.633   4.235   2.036  0.1322 -0.2877 -0.0022
17308TIP3    H173415   3.645   4.230   2.131  0.2689  1.0457  0.0757
17308TIP3    H273416   3.672   4.319   2.011 -1.9096  0.4736 -0.9040
17309TIP3   OH273417   0.581   5.228   1.068  0.0790 -0.1115 -0.1559
17309TIP3    H173418   0.518   5.201   1.002 -0.1771 -1.3767  0.5613
17309TIP3    H273419   0.654   5.265   1.018  0.0616 -1.3861 -1.1988
17310TIP3   OH273420   2.069   1.463   1.333 -0.3895 -0.2052 -0.1458
17310TIP3    H173421   2.037   1.446   1.421 -1.2010  0.1704 -0.3619
17310TIP3    H273422   2.038   1.551   1.312  0.6312  0.1052 -0.4399
17311TIP3   OH273423   1.520   3.573  15.230  0.0167  0.3461 -0.1700
17311TIP3    H173424   1.572   3.603  15.155 -0.1740  0.2754 -0.3345
17311TIP3    H273425   1.582   3.566  15.302  0.4568 -0.7694 -0.6292
17312TIP3   OH273426   2.113   6.351  16.488 -0.0298 -0.3001 -0.2170
17312TIP3    H173427   2.063   6.414  16.435  2.7597  1.2755 -1.2027
17312TIP3    H273428   2.055   6.330  16.561 -1.1080  3.5805  0.2630
17313TIP3   OH273429   6.345   5.212  13.930 -0.0149  0.0282  0.6789
17313TIP3    H173430   6.429   5.171  13.950  0.7882  1.4156  0.2466
17313TIP3    H273431   6.288   5.184  14.001  0.3750 -2.1228  0.2094
17314TIP3   OH273432   4.364   0.446  15.976 -0.1478  0.6168  0.1231
17314TIP3    H173433   4.337   0.444  16.068  1.4253  0.2730  0.6050
17314TIP3    H273434   4.454   0.414  15.977 -0.4227 -0.3582 -1.6675
17315TIP3   OH273435   0.320   1.741  10.726  0.2318 -0.0225 -0.2365
17315TIP3    H173436   0.305   1.685  10.803  0.1829  2.1938  1.4539
17315TIP3    H273437   0.409   1.719  10.698  0.6316 -0.1867  1.0809
17316TIP3   OH273438   1.292   4.804  12.326  0.2555  0.7741 -0.0600
17316TIP3    H173439   1.207   4.847  12.336 -0.6561 -0.7817 -0.7625
17316TIP3    H273440   1.334   4.850  12.254 -1.3875 -0.4236 -1.9195
17317TIP3   OH273441   4.946   0.997   3.685 -0.0251  0.4302 -0.2926
17317TIP3    H173442   4.933   0.921   3.741  0.5135 -2.0674 -3.2606
17317TIP3    H273443   5.040   1.015   3.690 -0.0129  0.3462 -0.2281
17318TIP3   OH273444   0.343   1.881   2.757  0.4973 -0.0072 -0.0240
17318TIP3    H173445   0.275   1.814   2.766  0.8119 -0.4219 -0.7024
17318TIP3    H273446   0.410   1.856   2.820  1.3311 -1.2298 -1.3413
17319TIP3   OH273447   2.169   1.485  14.403  0.7561 -0.0516  0.2483
17319TIP3    H173448   2.182   1.533  14.485  1.6309 -1.0406  0.7070
17319TIP3    H273449   2.237   1.519  14.344  0.6006  0.1224  0.1653
17320TIP3   OH273450   3.284   2.780  12.950 -0.4584 -0.0452 -0.6132
17320TIP3    H173451   3.325   2.708  12.903 -1.3634 -0.5355 -0.6725
17320TIP3    H273452   3.238   2.830  12.882  1.9960  1.9644 -0.9667
17321TIP3   OH273453   2.113   4.837   0.556 -0.4576  0.3015  0.4220
17321TIP3    H173454   2.170   4.772   0.597  0.7339  1.9646  1.5306
17321TIP3    H273455   2.101   4.904   0.623 -1.6606  1.2444 -0.6767
17322TIP3   OH273456   0.942   0.014   0.051 -0.0972 -0.4603  0.2559
17322TIP3    H173457   0.994  -0.058   0.017 -1.7015 -2.3799  1.6531
17322TIP3    H273458   0.908  -0.018   0.135 -0.0859  2.2999  1.4391
17323TIP3   OH273459   3.071   5.478  16.279 -0.3581 -0.7282 -0.0402
17323TIP3    H173460   3.089   5.486  16.373 -0.1595  0.0869 -0.1387
17323TIP3    H273461   3.027   5.394  16.270  0.3921 -1.2195  0.6738
17324TIP3   OH273462   5.616   6.619   5.185 -0.4235 -0.2333 -0.1204
17324TIP3    H173463   5.599   6.599   5.093  0.2316  1.9130 -0.7539
17324TIP3    H273464   5.592   6.711   5.195 -2.7117 -0.9693  2.4550
17325TIP3   OH273465   3.535   2.140  11.254  0.7124 -0.1080  0.1395
17325TIP3    H173466   3.619   2.171  11.287  0.3141  0.3849  0.7127
17325TIP3    H273467   3.511   2.069  11.315 -0.2881  1.1701  1.2994
17326TIP3   OH273468   4.991   4.725  16.577  0.4198 -0.5318 -0.2614
17326TIP3    H173469   4.993   4.794  16.511 -1.4455  0.2016  0.4073
17326TIP3    H273470   5.000   4.644  16.527  0.4647  0.0828 -1.2729
17327TIP3   OH273471   5.981   2.376  16.292  0.0941  0.3443  0.9188
17327TIP3    H173472   6.005   2.298  16.342  0.7554  0.5849  0.9901
17327TIP3    H273473   6.050   2.440  16.312 -0.7030  1.1226  1.2577
17328TIP3   OH273474   4.280   6.419  16.006 -0.1421 -0.9878  0.2018
17328TIP3    H173475   4.187   6.415  16.028 -0.3135 -1.5337 -0.5898
17328TIP3    H273476   4.282   6.437  15.912  0.5700  0.2065  0.4243
17329TIP3   OH273477   4.184   3.775  11.006  0.2711 -0.1686  0.0342
17329TIP3    H173478   4.212   3.866  10.999  2.7337 -0.9647 -1.5520
17329TIP3    H273479   4.200   3.737  10.920 -2.9576 -1.5976 -0.0972
17330TIP3   OH273480   4.668   1.791   4.556 -0.1915  0.0601 -0.1834
17330TIP3    H173481   4.744   1.774   4.613 -1.5966  0.9331  2.0624
17330TIP3    H273482   4.663   1.886   4.551 -1.3911  0.0194  0.0862
17331TIP3   OH273483   0.149   3.619  13.175  0.3603 -0.0209  0.1829
17331TIP3    H173484   0.188   3.537  13.205 -0.5959 -1.2597 -1.7035
17331TIP3    H273485   0.215   3.659  13.120  1.0726  0.8502  1.6203
17332TIP3   OH273486   4.042   2.492  15.367 -0.4856 -0.0708  0.2906
17332TIP3    H173487   4.025   2.569  15.421  0.2723 -0.2099  0.7550
17332TIP3    H273488   4.017   2.518  15.279  0.5197  1.0003  0.2969
17333TIP3   OH273489   6.071   1.260  15.398  0.2434  0.0212  0.8228
17333TIP3    H173490   6.128   1.271  15.474 -2.4099  2.3125  2.6336
17333TIP3    H273491   6.011   1.190  15.423 -0.5460  0.6799  0.8146
17334TIP3   OH273492   6.588   1.113   1.235  0.0986  0.9569  0.2509
17334TIP3    H173493   6.627   1.034   1.273 -0.5991  0.2681 -0.4464
17334TIP3    H273494   6.499   1.087   1.212 -0.2348  2.0386  0.2823
17335TIP3   OH273495   3.655   5.409  14.925  0.5160  0.4897  0.2215
17335TIP3    H173496   3.736   5.459  14.921  0.0878  1.3285  1.3490
17335TIP3    H273497   3.666   5.339  14.861  1.8577  0.9730 -0.1025
17336TIP3   OH273498   2.549   5.965   4.318 -0.8461 -0.3152 -0.2366
17336TIP3    H173499   2.493   5.925   4.251 -1.3940 -1.4236  0.8419
17336TIP3    H273500   2.544   5.905   4.392  0.0778  0.6736  0.6601
17337TIP3   OH273501   2.437   5.187   5.966  0.0158 -0.2238 -0.4409
17337TIP3    H173502   2.354   5.199   6.011 -1.3939 -3.7881 -1.6866
17337TIP3    H273503   2.413   5.149   5.881  2.8469 -0.0166 -1.4377
17338TIP3   OH273504   3.996   2.246   5.772 -0.4711  0.1907 -0.2586
17338TIP3    H173505   4.037   2.300   5.839 -1.7965 -0.3752  1.0660
17338TIP3    H273506   3.919   2.208   5.815 -0.6614 -1.2061 -1.7204
17339TIP3   OH273507   3.350   0.871  15.601  0.2595 -0.1715  0.1019
17339TIP3    H173508   3.303   0.816  15.663  1.1548 -2.2640 -0.9950
17339TIP3    H273509   3.320   0.843  15.515  0.9728  0.8343 -0.5005
17340TIP3   OH273510   5.036   3.519  11.102  0.0950 -0.4117  0.3373
17340TIP3    H173511   4.954   3.564  11.122  1.1010  2.0278 -0.5884
17340TIP3    H273512   5.092   3.535  11.178  0.2604 -0.5828  0.2523
17341TIP3   OH273513   3.685   3.086  10.326 -0.0576 -0.4269 -0.5506
17341TIP3    H173514   3.617   3.053  10.268 -0.2192 -0.9588 -0.0693
17341TIP3    H273515   3.650   3.072  10.414  0.0791  0.5893 -0.3236
17342TIP3   OH273516   1.810   4.999  12.519  0.1613 -0.2299 -0.5416
17342TIP3    H173517   1.865   4.986  12.596 -0.6696  1.4957  0.4099
17342TIP3    H273518   1.861   5.058  12.463 -0.9751  2.1508  0.7697
17343TIP3   OH273519   6.016   6.180  13.379  0.2174  0.5607  0.2736
17343TIP3    H173520   6.078   6.252  13.383  1.9432 -0.9433  2.1980
17343TIP3    H273521   5.995   6.160  13.470 -1.1916 -0.5832 -0.2535
17344TIP3   OH273522   3.908   0.611   0.964 -0.1710 -0.4088 -0.6190
17344TIP3    H173523   3.911   0.642   0.873 -2.2927 -2.3527 -1.4324
17344TIP3    H273524   3.918   0.516   0.957 -0.0312 -0.5581  1.2480
17345TIP3   OH273525   0.340   4.100   4.115  0.2475 -0.2145  0.4212
17345TIP3    H173526   0.366   4.174   4.060  1.9492 -1.2310 -0.2590
17345TIP3    H273527   0.386   4.025   4.076  0.9015 -1.1245  2.7746
17346TIP3   OH273528   3.319   5.106  15.758 -0.4931 -0.2760  0.2126
17346TIP3    H173529   3.231   5.102  15.796 -0.4401 -1.3629  0.2740
17346TIP3    H273530   3.338   5.199  15.749 -1.6796 -0.0251  0.1362
17347TIP3   OH273531   6.411   0.975  12.893 -0.5104 -0.6904 -0.1094
17347TIP3    H173532   6.505   0.973  12.912 -1.1307 -2.3413  3.8462
17347TIP3    H273533   6.390   0.886  12.868 -1.0013 -0.2189 -1.4435
17348TIP3   OH273534   1.664   6.565   6.236  0.7160 -0.5650 -0.5793
17348TIP3    H173535   1.653   6.477   6.272  2.5953 -0.4091  0.5225
17348TIP3    H273536   1.635   6.623   6.307  0.3574 -0.2846 -0.9537
17349TIP3   OH273537   3.151   6.747   0.527  0.3303 -0.3732  0.2373
17349TIP3    H173538   3.136   6.768   0.619 -1.3573  0.5429 -0.1912
17349TIP3    H273539   3.194   6.825   0.491 -0.0515 -0.2576  0.0227
17350TIP3   OH273540   5.247   3.086  11.756  0.1454 -0.1127 -0.1515
17350TIP3    H173541   5.321   3.118  11.705  0.5772 -1.1753 -0.2200
17350TIP3    H273542   5.283   3.069  11.843 -0.1881  0.0356  0.0200
17351TIP3   OH273543   3.693   2.396   5.791 -0.4609  0.4017  0.2499
17351TIP3    H173544   3.606   2.359   5.777 -0.6075  1.1636 -0.9408
17351TIP3    H273545   3.745   2.322   5.822 -1.1191 -0.4557 -0.6222
17352TIP3   OH273546   5.362   0.624   2.128  0.2975 -0.3086 -0.0453
17352TIP3    H173547   5.414   0.634   2.048 -0.8079 -0.8875 -0.8600
17352TIP3    H273548   5.422   0.650   2.198  0.8819  1.5394 -1.1464
17353TIP3   OH273549   4.587   4.431  14.160  0.3712  0.0634 -0.6017
17353TIP3    H173550   4.650   4.438  14.232 -0.6650 -0.3194  0.3715
17353TIP3    H273551   4.637   4.392  14.089  1.3092  0.0096  0.0636
17354TIP3   OH273552   5.676   5.087  16.633  1.0860 -0.1455 -0.1298
17354TIP3    H173553   5.757   5.040  16.615  0.1949 -1.4939 -0.7953
17354TIP3    H273554   5.634   5.096  16.547 -0.5588 -1.5651  0.4687
17355TIP3   OH273555   3.279   0.561  12.104 -0.2121 -0.0709 -0.0860
17355TIP3    H173556   3.324   0.623  12.046  0.2981  0.2972  0.6925
17355TIP3    H273557   3.188   0.561  12.073 -0.4780  1.9086  0.5888
17356TIP3   OH273558   5.637   4.571  16.813 -0.8115  0.2326 -0.0944
17356TIP3    H173559   5.544   4.577  16.789 -0.6102  0.6639 -0.8079
17356TIP3    H273560   5.671   4.659  16.795  0.3368 -0.6406 -2.4813
17357TIP3   OH273561   3.549   0.151  15.245  0.2998  0.0084 -0.3489
17357TIP3    H173562   3.642   0.133  15.255  0.1230 -1.4018 -0.9766
17357TIP3    H273563   3.513   0.141  15.334  0.7740  0.8749 -0.0448
17358TIP3   OH273564   6.712   5.969   3.838  1.0818  0.1672 -0.0338
17358TIP3    H173565   6.651   5.905   3.873  1.3615  0.4875  1.0927
17358TIP3    H273566   6.659   6.047   3.821  1.1045  0.3479  0.6708
17359TIP3   OH273567   4.827   0.681  16.100  0.9753 -0.3138 -0.4470
17359TIP3    H173568   4.795   0.693  16.011 -0.2339 -1.0404 -0.1267
17359TIP3    H273569   4.916   0.717  16.098  0.5933  0.6479 -1.6718
17360TIP3   OH273570   5.469   4.787   5.957 -0.8685  0.1778  0.0001
17360TIP3    H173571   5.529   4.722   5.920 -2.3530 -1.8184  0.9331
17360TIP3    H273572   5.420   4.820   5.881  0.2642  0.6296 -0.5491
17361TIP3   OH273573   4.388   6.100  13.063 -0.4590  0.6490 -0.7978
17361TIP3    H173574   4.425   6.163  13.001  0.5451  1.1162  0.2185
17361TIP3    H273575   4.386   6.148  13.146  0.0458 -0.5585 -0.0670
17362TIP3   OH273576   3.751   1.025  12.436  0.3549  0.2899  0.2225
17362TIP3    H173577   3.826   0.970  12.457 -1.1416 -1.7828  0.4405
17362TIP3    H273578   3.786   1.091  12.375  2.0622 -1.4197 -0.7538
17363TIP3   OH273579   3.538   5.392   4.739  0.3100  0.1355 -0.4104
17363TIP3    H173580   3.486   5.426   4.667  1.2438  0.1401 -1.1051
17363TIP3    H273581   3.570   5.470   4.784 -1.3711  0.1391  0.8596
17364TIP3   OH273582   4.695   6.536  11.244 -0.5886 -0.4920  0.0622
17364TIP3    H173583   4.704   6.631  11.239  0.3912 -0.6244 -1.0771
17364TIP3    H273584   4.773   6.502  11.199 -0.8188 -1.8336  0.6267
17365TIP3   OH273585   3.194   1.288   6.202  0.6988 -0.1571  0.1612
17365TIP3    H173586   3.236   1.241   6.274  1.6274  0.6812  0.1913
17365TIP3    H273587   3.260   1.351   6.173 -0.7909  1.7625  0.7168
17366TIP3   OH273588   4.266   3.998  15.485  0.5875 -1.0702 -0.4085
17366TIP3    H173589   4.285   4.065  15.551  1.6726 -1.1422 -0.6245
17366TIP3    H273590   4.184   3.958  15.514 -0.4872  0.8218 -0.6497
17367TIP3   OH273591   0.551   0.557   4.651  0.0385  0.2493  0.5670
17367TIP3    H173592   0.563   0.463   4.660  1.5160  0.2557 -0.9741
17367TIP3    H273593   0.496   0.581   4.726 -1.9860 -2.1031 -0.0377
17368TIP3   OH273594   6.265   4.981  13.128 -0.0587  0.8431  0.4413
17368TIP3    H173595   6.196   5.004  13.067  1.1930 -0.2001 -1.4862
17368TIP3    H273596   6.271   5.055  13.188 -1.9874  1.4753 -0.0965
17369TIP3   OH273597   2.897   3.897  12.843  0.1935 -0.4857  0.3468
17369TIP3    H173598   2.841   3.827  12.810 -1.7297 -0.4828  3.1808
17369TIP3    H273599   2.986   3.865  12.832 -0.3781 -1.2513 -2.7656
17370TIP3   OH273600   2.257   1.153   4.430 -0.7967  0.5811 -0.3579
17370TIP3    H173601   2.257   1.084   4.497 -0.3917  1.8113  0.9742
17370TIP3    H273602   2.225   1.110   4.351  0.9245 -1.5247  0.0041
17371TIP3   OH273603   6.431   2.175  11.164 -0.2730 -0.2547  0.5119
17371TIP3    H173604   6.502   2.172  11.100  1.2537  5.8922  1.2738
17371TIP3    H273605   6.461   2.120  11.236  1.5540 -1.3167 -0.9770
17372TIP3   OH273606   6.166   5.269   3.575  0.0955 -0.2110 -0.1132
17372TIP3    H173607   6.152   5.357   3.541 -2.0423  0.2438  1.6969
17372TIP3    H273608   6.259   5.267   3.598  0.5551  0.9589 -1.6794
17373TIP3   OH273609   0.589   2.326   3.343 -0.4589  0.5662  0.0124
17373TIP3    H173610   0.642   2.300   3.268  1.6927  1.2503  1.1907
17373TIP3    H273611   0.503   2.287   3.327  0.2721 -0.3039 -2.1848
17374TIP3   OH273612   4.038   6.053   1.533  0.3271  0.4190 -0.1715
17374TIP3    H173613   4.073   6.104   1.607  1.6905  1.1892 -1.3055
17374TIP3    H273614   4.079   5.967   1.542  0.7556  0.6144 -0.2060
17375TIP3   OH273615   4.976   1.440  14.065 -0.6423  0.1946  0.0018
17375TIP3    H173616   4.926   1.419  13.986  0.2466  2.0175 -1.1153
17375TIP3    H273617   4.972   1.360  14.118 -4.1408  0.0503 -0.2855
17376TIP3   OH273618   2.530   1.196   1.058 -0.1164 -0.3459  0.2717
17376TIP3    H173619   2.498   1.112   1.028  1.1571 -0.6886 -0.2048
17376TIP3    H273620   2.577   1.233   0.983 -3.4539  2.3912 -0.7270
17377TIP3   OH273621   4.089   5.470  13.692 -0.2023  0.5467 -0.2257
17377TIP3    H173622   4.167   5.510  13.653 -0.4663  0.4116 -0.9041
17377TIP3    H273623   4.101   5.376  13.679  0.9670  0.2749  2.3879
17378TIP3   OH273624   3.885   0.872  17.242 -0.4101  0.5241 -0.5768
17378TIP3    H173625   3.884   0.866  17.338 -1.2537  1.2826 -0.5285
17378TIP3    H273626   3.919   0.787  17.213 -0.4060  0.1876  0.3836
17379TIP3   OH273627   6.029   4.950   4.326 -0.0042  0.1169  0.1925
17379TIP3    H173628   6.017   4.872   4.380  0.0653  0.0730  0.1445
17379TIP3    H273629   5.999   4.924   4.239 -0.7055  0.3776  0.3506
17380TIP3   OH273630   6.627   5.031   6.123 -1.0763  0.7374  0.0061
17380TIP3    H173631   6.677   4.978   6.185  0.8339  0.2195 -1.8372
17380TIP3    H273632   6.690   5.096   6.092 -1.3258 -0.2062 -2.7475
17381TIP3   OH273633   2.153   4.633   2.456 -0.3202 -0.1975  0.0206
17381TIP3    H173634   2.210   4.707   2.437 -1.2326  0.3607 -0.5657
17381TIP3    H273635   2.122   4.649   2.545 -1.7810  0.9917 -0.6646
17382TIP3   OH273636   3.664   0.368  12.263  0.6583  0.4580  0.4004
17382TIP3    H173637   3.586   0.410  12.225  0.6239  0.4477  0.4595
17382TIP3    H273638   3.733   0.434  12.254  0.8078  0.2260 -0.2537
17383TIP3   OH273639   4.565   2.183  13.371  0.1272 -0.0140  0.1889
17383TIP3    H173640   4.551   2.220  13.284 -4.2749  1.1641  1.1902
17383TIP3    H273641   4.583   2.090  13.355  2.2276  0.6555 -1.9692
17384TIP3   OH273642   2.786   4.358  14.200  0.0535 -0.5873 -0.5142
17384TIP3    H173643   2.754   4.432  14.148  0.7341 -0.0799 -0.2354
17384TIP3    H273644   2.775   4.387  14.291  2.5339  0.1913 -0.3943
17385TIP3   OH273645   6.667   2.348  16.087 -0.6289  0.2766  0.1432
17385TIP3    H173646   6.744   2.404  16.076  0.2522 -0.9205  0.0259
17385TIP3    H273647   6.671   2.287  16.013 -1.5977  0.0946  0.2337
17386TIP3   OH273648   0.002   0.328   2.281  0.1396 -0.0897  0.4410
17386TIP3    H173649   0.072   0.313   2.344  0.8039  1.0613  0.0116
17386TIP3    H273650  -0.078   0.324   2.332  0.6463  0.4546  1.3021
17387TIP3   OH273651   6.197   1.729   2.009 -0.8021 -0.6218 -0.0618
17387TIP3    H173652   6.245   1.793   2.061  1.1446 -0.5311 -1.8269
17387TIP3    H273653   6.120   1.777   1.977 -0.0599  0.4408 -0.2882
17388TIP3   OH273654   5.640   5.053   6.012  0.4428 -0.7995 -0.0273
17388TIP3    H173655   5.555   5.036   6.053 -0.4086  0.0402 -1.3608
17388TIP3    H273656   5.649   5.148   6.016  0.3993 -0.7072 -1.6164
17389TIP3   OH273657   4.078   5.740  16.300  0.0947 -0.2065  0.1681
17389TIP3    H173658   4.091   5.797  16.375  1.9519 -0.0659 -0.2050
17389TIP3    H273659   3.991   5.763  16.267 -0.2155  0.6323  1.4951
17390TIP3   OH273660   2.864   1.826   6.394 -0.0215 -0.4067  0.4667
17390TIP3    H173661   2.783   1.821   6.445 -0.3956 -2.0868 -0.2428
17390TIP3    H273662   2.904   1.740   6.405 -0.0438 -0.7762 -1.9375
17391TIP3   OH273663   3.401   1.436   0.283  0.4427  0.3604  0.5774
17391TIP3    H173664   3.324   1.491   0.268  0.4319  0.1285 -0.2880
17391TIP3    H273665   3.390   1.362   0.223  2.0813  1.0996 -0.7047
17392TIP3   OH273666   1.784   1.685   3.499 -0.1421 -0.4397 -0.2943
17392TIP3    H173667   1.784   1.684   3.403 -0.2808 -1.9129 -0.3087
17392TIP3    H273668   1.716   1.747   3.522  0.2703  0.3530 -1.1381
17393TIP3   OH273669   3.354   1.382  12.475  0.0075  0.1573  0.8433
17393TIP3    H173670   3.364   1.470  12.438  0.0765 -0.0708  0.3045
17393TIP3    H273671   3.333   1.327  12.399  2.6631 -0.7939  0.6751
17394TIP3   OH273672   2.830   6.143  12.446  0.7635  0.1926 -0.8074
17394TIP3    H173673   2.900   6.095  12.490  0.4169  0.8633  0.5017
17394TIP3    H273674   2.842   6.234  12.472 -1.1864  0.1836  0.2942
17395TIP3   OH273675   3.934   1.247   3.852  0.3818  0.3992  0.1298
17395TIP3    H173676   3.987   1.243   3.772  0.2806 -0.0697  0.0881
17395TIP3    H273677   3.895   1.161   3.860  0.9551  0.2110  1.0809
17396TIP3   OH273678   1.609   2.373   5.806 -0.0436 -0.3557  0.5578
17396TIP3    H173679   1.640   2.461   5.783 -0.0637 -0.5709 -0.3266
17396TIP3    H273680   1.559   2.385   5.887  0.9540  0.2567  1.1015
17397TIP3   OH273681   4.952   2.838  13.903 -0.3247  0.7006  0.2178
17397TIP3    H173682   4.862   2.834  13.872 -0.4161  0.4139  0.5244
17397TIP3    H273683   4.996   2.895  13.840 -0.5879  0.3894 -0.2466
17398TIP3   OH273684   3.542   3.212   2.232  0.6669  0.2705  0.4391
17398TIP3    H173685   3.593   3.150   2.283  2.1613 -0.4184 -1.7382
17398TIP3    H273686   3.452   3.181   2.240  1.0189 -0.5207  1.6256
17399TIP3   OH273687   4.897   3.198   5.030  0.0324  0.0102 -0.4964
17399TIP3    H173688   4.896   3.245   4.946 -0.2468 -0.5444 -0.8045
17399TIP3    H273689   4.990   3.192   5.053  0.0315  1.8046  0.1724
17400TIP3   OH273690   6.238   1.891  16.804  0.4116 -0.6073  0.2215
17400TIP3    H173691   6.331   1.915  16.804  0.6034 -1.2414  1.4137
17400TIP3    H273692   6.237   1.801  16.773 -0.1267  0.2577 -2.5052
17401TIP3   OH273693   5.848   3.813  17.108  0.1177 -0.0401  0.4519
17401TIP3    H173694   5.759   3.847  17.104  0.8406  2.4241  2.6102
17401TIP3    H273695   5.888   3.838  17.024 -0.2515  2.0156  0.8348
17402TIP3   OH273696   5.017   1.813  15.746 -0.0244  0.6411  0.0083
17402TIP3    H173697   5.080   1.799  15.675  1.4041  1.0374  1.1406
17402TIP3    H273698   4.934   1.829  15.702  0.5153 -0.5668 -1.5284
17403TIP3   OH273699   2.202   0.595  16.490  0.8017  0.1639 -0.2406
17403TIP3    H173700   2.172   0.571  16.402 -0.5161 -0.1489  0.2688
17403TIP3    H273701   2.239   0.515  16.526 -0.6554 -0.3086  0.2717
17404TIP3   OH273702   0.074   3.496   0.384 -0.3602 -0.2072  0.8639
17404TIP3    H173703   0.097   3.431   0.451 -0.0337 -0.2916  0.6702
17404TIP3    H273704  -0.018   3.517   0.402 -1.0205 -1.9779 -0.1034
17405TIP3   OH273705   3.390   5.637  15.336  0.0786  0.5468 -0.2062
17405TIP3    H173706   3.450   5.659  15.407  0.4451 -0.5990 -0.1468
17405TIP3    H273707   3.309   5.684  15.357  0.7822  1.7013 -0.0242
17406TIP3   OH273708   2.073   3.178   3.959  0.4965  0.0746 -0.3652
17406TIP3    H173709   1.999   3.221   4.002 -0.9070 -1.6922 -0.8491
17406TIP3    H273710   2.115   3.127   4.028  2.3133  2.2939  0.2640
17407TIP3   OH273711   3.445   3.196   1.266  0.2953 -0.1253 -0.3267
17407TIP3    H173712   3.364   3.228   1.306  0.3973  1.8713 -1.6006
17407TIP3    H273713   3.498   3.166   1.340 -1.0282 -0.1738  0.6482
17408TIP3   OH273714   4.609   1.795  11.397 -0.8424 -0.1748  0.2609
17408TIP3    H173715   4.636   1.821  11.309 -4.0988  0.3351 -0.7200
17408TIP3    H273716   4.596   1.700  11.391 -0.2253 -0.2743  0.4579
17409TIP3   OH273717   1.518   2.834  12.565  0.1986  0.2836 -0.1281
17409TIP3    H173718   1.560   2.829  12.480  2.6010  2.4583  0.8077
17409TIP3    H273719   1.500   2.927  12.578 -0.1121  0.0025  1.7544
17410TIP3   OH273720   5.181   5.737  12.359  0.0757  0.2138 -0.5116
17410TIP3    H173721   5.195   5.825  12.395  1.2892 -0.3930  0.5928
17410TIP3    H273722   5.174   5.681  12.436 -0.4418 -0.6999 -1.2125
17411TIP3   OH273723   5.158   4.229   5.278  0.2746 -0.0024 -0.2689
17411TIP3    H173724   5.155   4.257   5.370  1.0693 -2.0911  0.4393
17411TIP3    H273725   5.072   4.255   5.243  0.2299  1.4866  0.8318
17412TIP3   OH273726   1.272   3.377  12.608 -0.2958 -0.0048  0.1286
17412TIP3    H173727   1.357   3.373  12.564 -0.0673  0.2658  0.5403
17412TIP3    H273728   1.215   3.422  12.546 -0.1512 -0.2223 -0.1661
17413TIP3   OH273729   5.753   0.132   4.731  0.1240  0.1716  0.0853
17413TIP3    H173730   5.767   0.216   4.686 -1.2576 -0.3429 -1.3887
17413TIP3    H273731   5.835   0.085   4.718  0.1548  0.4815 -0.9417
17414TIP3   OH273732   3.370   2.632   1.582  0.3341  0.0427  0.2339
17414TIP3    H173733   3.320   2.629   1.664  1.2539  1.0051  0.8583
17414TIP3    H273734   3.450   2.678   1.605  0.5364  0.4763 -1.2633
17415TIP3   OH273735   4.202   6.258   2.517  0.0910 -0.7480  0.1349
17415TIP3    H173736   4.212   6.244   2.611  1.3138  0.5935  0.2551
17415TIP3    H273737   4.284   6.226   2.479  0.3533  0.2921 -0.2371
17416TIP3   OH273738   1.914   4.222   2.349 -0.1082 -0.4476  0.1210
17416TIP3    H173739   1.919   4.315   2.370 -0.5844  0.1265 -2.0587
17416TIP3    H273740   1.881   4.181   2.429 -2.2479  1.5955  0.4154
17417TIP3   OH273741   4.269   3.158   5.179  0.3062 -0.7248 -0.6457
17417TIP3    H173742   4.361   3.147   5.205  0.4600  1.0934 -0.2980
17417TIP3    H273743   4.226   3.192   5.257  0.4234  3.1832 -2.0667
17418TIP3   OH273744   6.316   5.430   0.101  0.0187  0.2245  0.3008
17418TIP3    H173745   6.409   5.438   0.121  0.4591 -0.9127 -1.1362
17418TIP3    H273746   6.313   5.393   0.013 -1.7700 -1.0468  0.8178
17419TIP3   OH273747   6.050   6.715  16.028 -0.1796 -0.0750 -0.0504
17419TIP3    H173748   5.958   6.720  16.001 -0.1650  1.0443  0.0390
17419TIP3    H273749   6.048   6.730  16.122 -0.0092 -1.3927  0.1735
17420TIP3   OH273750   0.086   5.029   6.214  0.5742  0.5503 -0.2229
17420TIP3    H173751   0.070   5.037   6.308 -1.2432 -2.7702 -0.1052
17420TIP3    H273752   0.162   4.971   6.208  0.3889  0.3652 -0.7935
17421TIP3   OH273753   3.481   6.698   0.284  0.4787 -0.4301  0.3272
17421TIP3    H173754   3.486   6.765   0.352  1.8877  1.3570 -1.3992
17421TIP3    H273755   3.397   6.714   0.242  0.9532  0.5723 -0.3008
17422TIP3   OH273756   6.522   5.463   1.913 -0.3261 -0.4936 -0.0368
17422TIP3    H173757   6.447   5.508   1.952 -0.2844 -0.1385 -0.3539
17422TIP3    H273758   6.595   5.523   1.928 -0.3676 -0.1961 -0.9316
17423TIP3   OH273759   1.660   2.340   3.526  0.2474 -0.0109  0.3496
17423TIP3    H173760   1.745   2.307   3.556  0.6494  0.6859  0.0102
17423TIP3    H273761   1.674   2.361   3.434 -0.0165  0.9835  0.5229
17424TIP3   OH273762   2.326   1.053   3.239 -0.3386  0.0004 -0.2310
17424TIP3    H173763   2.360   1.088   3.321  2.8097 -0.9996 -0.9406
17424TIP3    H273764   2.296   1.130   3.191 -0.7448  0.7796  1.2111
17425TIP3   OH273765   6.642   4.992  14.724 -0.7755 -0.3015  0.0936
17425TIP3    H173766   6.558   4.982  14.679 -0.0885 -0.2564 -1.2591
17425TIP3    H273767   6.685   5.064  14.679  0.1309 -0.5402  0.5446
17426TIP3   OH273768   2.664   3.652   0.222  0.4948 -0.2322  0.1362
17426TIP3    H173769   2.643   3.567   0.261  0.8718  0.2339  1.4143
17426TIP3    H273770   2.652   3.639   0.128 -0.4983 -1.3925  0.4006
17427TIP3   OH273771   2.942   3.672  13.126 -0.1528  0.0488 -0.1708
17427TIP3    H173772   2.977   3.583  13.130 -1.3274 -0.3967  1.8786
17427TIP3    H273773   2.876   3.669  13.056 -1.7455 -1.3701  1.3038
17428TIP3   OH273774   0.350   1.457  12.950 -0.2095  0.2349 -0.1483
17428TIP3    H173775   0.315   1.520  12.887 -2.3622  0.3102  1.0186
17428TIP3    H273776   0.302   1.476  13.031 -0.2526 -2.2722  0.5022
17429TIP3   OH273777   2.699   0.301  13.638  0.3997 -0.2265 -0.1749
17429TIP3    H173778   2.764   0.371  13.638 -0.5254  0.6810 -1.1620
17429TIP3    H273779   2.735   0.233  13.581  0.5656  0.1956 -0.5770
17430TIP3   OH273780   4.380   2.759   3.905 -0.1190 -0.4267 -0.5838
17430TIP3    H173781   4.292   2.722   3.907  0.0866 -0.9034  0.1072
17430TIP3    H273782   4.431   2.703   3.964  1.1621 -1.4429 -2.5539
17431TIP3   OH273783   4.031   6.397   0.794  0.7170 -0.0550  0.4373
17431TIP3    H173784   4.068   6.484   0.778 -1.6613  0.5533 -2.6722
17431TIP3    H273785   3.944   6.415   0.830  1.2077 -1.2927  2.3529
17432TIP3   OH273786   2.486   0.915   0.966 -0.3056  0.3335  0.0903
17432TIP3    H173787   2.433   0.851   1.014 -0.8180  0.5757 -0.1554
17432TIP3    H273788   2.576   0.893   0.990 -0.4516 -0.7003 -0.2662
17433TIP3   OH273789   5.946   0.935   1.045  0.1277 -0.1433 -0.1730
17433TIP3    H173790   5.930   1.027   1.020  0.9050 -0.2358 -1.0926
17433TIP3    H273791   5.859   0.898   1.058 -0.2565  0.3701 -1.1853
17434TIP3   OH273792   2.614   6.397   4.257  0.0848 -0.2299 -0.4146
17434TIP3    H173793   2.653   6.481   4.283 -3.3419  1.9043 -1.5191
17434TIP3    H273794   2.626   6.340   4.333  0.3209  2.0921  1.4088
17435TIP3   OH273795   6.553   0.745  13.888  0.6164  0.5884 -0.1439
17435TIP3    H173796   6.471   0.793  13.889 -0.3516 -0.9385 -1.4386
17435TIP3    H273797   6.621   0.812  13.891 -0.6670  2.0300 -1.7736
17436TIP3   OH273798   0.165   1.530  17.253 -0.2234  0.0659 -0.5653
17436TIP3    H173799   0.196   1.444  17.280 -1.6767 -0.2246  0.3179
17436TIP3    H273800   0.106   1.557  17.323  0.6005  2.0318 -0.5673
17437TIP3   OH273801   6.777   0.030   2.420 -0.0347  0.0942  0.2141
17437TIP3    H173802   6.766   0.100   2.484 -0.3283 -0.6783  1.0365
17437TIP3    H273803   6.807  -0.045   2.472 -0.2738 -0.5485 -0.5535
17438TIP3   OH273804   1.414   2.541  11.043  0.0719  0.3477 -0.0365
17438TIP3    H173805   1.451   2.486  10.975 -1.9400  0.7823 -1.5871
17438TIP3    H273806   1.430   2.631  11.013 -0.6658  0.5472  0.1334
17439TIP3   OH273807   3.864   5.068  11.565 -0.5368 -0.4716  0.5862
17439TIP3    H173808   3.937   5.007  11.555  0.3863  0.5983  0.6420
17439TIP3    H273809   3.788   5.011  11.581  0.0179 -1.6752 -0.8199
17440TIP3   OH273810   2.818   0.305   5.155 -0.7767 -1.0873 -0.4131
17440TIP3    H173811   2.741   0.316   5.099  0.5766 -0.7706 -2.3033
17440TIP3    H273812   2.840   0.212   5.147 -2.5596 -1.8579  2.4155
17441TIP3   OH273813   4.680   0.277   3.090 -0.1602 -0.1878 -0.4021
17441TIP3    H173814   4.681   0.287   3.185  1.1696 -1.3128 -0.2794
17441TIP3    H273815   4.618   0.206   3.074 -1.3879  0.8579 -0.5090
17442TIP3   OH273816   4.592   4.924   2.050 -0.3395 -0.6702  0.0100
17442TIP3    H173817   4.567   4.844   2.004  2.3873 -2.2593  1.0452
17442TIP3    H273818   4.668   4.957   2.001  0.0652 -0.0864  1.0072
17443TIP3   OH273819   4.608   4.442  12.903  0.0697 -0.3558  0.8532
17443TIP3    H173820   4.575   4.357  12.875  1.5449 -0.2628 -1.4803
17443TIP3    H273821   4.650   4.425  12.987 -3.7584 -0.8685  2.9183
17444TIP3   OH273822   1.155   2.386  13.669 -0.0355  0.2508 -0.8048
17444TIP3    H173823   1.079   2.339  13.702 -0.6511  0.8089 -1.3840
17444TIP3    H273824   1.125   2.426  13.587  0.1820  2.3496  0.0636
17445TIP3   OH273825   4.224   2.253   0.253  0.2634 -0.7059 -0.0754
17445TIP3    H173826   4.197   2.303   0.330  2.2171 -2.3253  1.8187
17445TIP3    H273827   4.270   2.316   0.198  0.7445  0.0567  1.1649
17446TIP3   OH273828   3.987   1.889   0.769 -0.8494  0.2836  0.1623
17446TIP3    H173829   3.927   1.888   0.843  0.3663  1.0149  1.2108
17446TIP3    H273830   4.016   1.798   0.761  0.2007  0.4428  1.6453
17447TIP3   OH273831   2.336   0.565   1.758  0.3343 -0.0183  0.3934
17447TIP3    H173832   2.415   0.603   1.794  1.5708 -1.8174 -0.2828
17447TIP3    H273833   2.320   0.487   1.810  1.0712 -1.6167 -1.6286
17448TIP3   OH273834   3.410   1.504   1.665  0.0700  0.0551 -0.0944
17448TIP3    H173835   3.426   1.570   1.597  1.4532 -1.1437 -1.0077
17448TIP3    H273836   3.498   1.483   1.698  0.1661 -3.6142 -2.1114
17449TIP3   OH273837   4.293   5.524   0.497  0.6348 -0.2338  0.2108
17449TIP3    H173838   4.321   5.434   0.514  0.7831 -0.1195  0.5798
17449TIP3    H273839   4.366   5.563   0.450  0.4717 -0.3748 -0.1646
17450TIP3   OH273840   5.782   6.005  16.349  0.5344 -0.1732 -0.1348
17450TIP3    H173841   5.725   6.074  16.385  0.8812  0.4142 -0.6845
17450TIP3    H273842   5.758   5.926  16.398  1.6220  0.7522  2.0371
17451TIP3   OH273843   2.032   6.718   1.168 -0.4845 -0.0876  0.0901
17451TIP3    H173844   2.023   6.773   1.246  0.9165 -0.7193  0.7337
17451TIP3    H273845   2.002   6.631   1.197 -1.1184 -0.0501 -0.4406
17452TIP3   OH273846   4.148   1.951   5.684 -0.8090  0.2629 -0.1783
17452TIP3    H173847   4.109   1.864   5.676 -0.7206  0.1263  0.7392
17452TIP3    H273848   4.079   2.010   5.655 -0.2476 -0.1811 -2.5815
17453TIP3   OH273849   2.629   0.442  11.090 -0.1107  0.4324  0.4497
17453TIP3    H173850   2.601   0.423  11.001  0.4703  0.9869  0.1446
17453TIP3    H273851   2.666   0.530  11.086  1.1436 -0.0541  0.9510
17454TIP3   OH273852   6.020   2.672   0.205 -0.1858 -0.1039 -0.1213
17454TIP3    H173853   6.103   2.681   0.252  0.4934  0.5609 -1.3724
17454TIP3    H273854   6.039   2.606   0.137 -0.4178  0.6503 -0.9351
17455TIP3   OH273855   6.627   2.624  12.681  0.5640 -0.1034  0.2256
17455TIP3    H173856   6.588   2.544  12.716 -0.3125 -0.2294 -0.9925
17455TIP3    H273857   6.556   2.689  12.686  0.8789  0.2603  0.0275
17456TIP3   OH273858   4.444   2.762   4.898  0.5940  0.1125  0.4823
17456TIP3    H173859   4.367   2.716   4.932  0.7975  0.2427  1.1302
17456TIP3    H273860   4.518   2.708   4.923  0.7723  0.3678  0.5101
17457TIP3   OH273861   2.179   3.931  13.725  0.4826 -0.4614 -0.2534
17457TIP3    H173862   2.091   3.894  13.728  1.0897 -1.9530  0.5319
17457TIP3    H273863   2.223   3.893  13.801  1.3195  1.5595  0.3133
17458TIP3   OH273864   3.810   5.599  11.980 -0.5654 -0.1263  0.3244
17458TIP3    H173865   3.837   5.632  11.894  0.1566 -0.9667  0.2228
17458TIP3    H273866   3.842   5.509  11.983 -2.4894 -0.8531  0.6073
17459TIP3   OH273867   3.237   5.201  14.114  0.7034  0.1532  0.1605
17459TIP3    H173868   3.206   5.209  14.204  1.8594 -0.6749  0.6570
17459TIP3    H273869   3.286   5.282  14.098 -1.7010  1.5560 -0.6895
17460TIP3   OH273870   3.641   2.874  13.249 -0.0094  0.1475 -0.4607
17460TIP3    H173871   3.574   2.815  13.283 -0.8689  1.4893  0.2710
17460TIP3    H273872   3.666   2.927  13.325 -0.2123  1.5820 -1.3735
17461TIP3   OH273873   5.421   6.329  15.813  0.5018 -0.9553 -0.0547
17461TIP3    H173874   5.428   6.384  15.891  0.7212  0.5352 -1.0862
17461TIP3    H273875   5.485   6.259  15.828 -0.3818 -1.4507  1.6542
17462TIP3   OH273876   3.931   2.065   5.547 -0.1174 -0.0162  0.0879
17462TIP3    H173877   3.976   2.108   5.474 -0.5623 -1.5969 -1.1598
17462TIP3    H273878   3.931   2.131   5.617  2.3550  0.7323 -0.5192
17463TIP3   OH273879   3.013   3.043  15.413 -0.6891 -0.0951  0.3766
17463TIP3    H173880   3.026   3.074  15.323 -1.2919  0.4475  0.4691
17463TIP3    H273881   2.991   3.122  15.462  0.3939 -0.2591  1.1653
17464TIP3   OH273882   6.375   4.089   5.961 -0.0418 -0.2224 -0.0410
17464TIP3    H173883   6.292   4.120   5.998 -0.6249 -0.8431 -0.7710
17464TIP3    H273884   6.367   3.993   5.964 -0.2416 -0.3035 -1.9793
17465TIP3   OH273885   4.407   3.647   3.123  0.1904  0.5468 -0.3520
17465TIP3    H173886   4.403   3.628   3.029 -0.3740 -3.0877  0.2325
17465TIP3    H273887   4.463   3.578   3.159 -2.4141 -0.3801  2.3450
17466TIP3   OH273888   0.771   6.666  15.728 -0.1472  0.1760 -0.2760
17466TIP3    H173889   0.809   6.597  15.674 -1.2644 -0.1486 -0.6851
17466TIP3    H273890   0.684   6.681  15.690 -0.4309  0.8843  0.6091
17467TIP3   OH273891   2.611   6.117   4.750 -0.2435 -0.7173  0.0664
17467TIP3    H173892   2.569   6.197   4.717 -0.5950 -0.8528  0.1810
17467TIP3    H273893   2.541   6.052   4.751  0.6673 -1.9481 -2.9923
17468TIP3   OH273894   2.905   2.691   5.342 -0.0059  0.4402  0.2859
17468TIP3    H173895   2.994   2.657   5.333 -0.2286 -0.5486  1.5095
17468TIP3    H273896   2.915   2.781   5.371  0.6050  0.2847  0.5623
17469TIP3   OH273897   0.897   6.569   2.174  0.1013 -0.3901 -0.2340
17469TIP3    H173898   0.962   6.607   2.234  0.6848  2.2171 -2.3188
17469TIP3    H273899   0.921   6.477   2.169  2.5201  0.1035  0.4937
17470TIP3   OH273900   1.720   3.434  14.540  0.1705  0.2823 -0.3002
17470TIP3    H173901   1.785   3.462  14.605 -1.1092 -0.9871  1.6583
17470TIP3    H273902   1.637   3.466  14.575 -0.4809  0.1906 -1.7213
17471TIP3   OH273903   0.372   2.134   0.135  0.4781 -0.3927  0.0228
17471TIP3    H173904   0.388   2.045   0.103 -1.6479 -0.7674 -0.1388
17471TIP3    H273905   0.411   2.135   0.223  1.6016 -1.0758 -0.4513
17472TIP3   OH273906   4.178   0.727  11.757 -0.1848 -0.1104 -0.3021
17472TIP3    H173907   4.204   0.637  11.734  0.7092 -0.3369  1.4216
17472TIP3    H273908   4.115   0.716  11.828 -0.1951  0.6116 -0.1923
17473TIP3   OH273909   4.767   4.705   0.058  0.3993 -0.6144 -0.0498
17473TIP3    H173910   4.733   4.726  -0.030  0.9395  0.0404 -0.1127
17473TIP3    H273911   4.810   4.621   0.047  0.5940 -0.4683 -0.4553
17474TIP3   OH273912   4.696   2.596   4.933  0.9481 -0.3446  0.4936
17474TIP3    H173913   4.682   2.576   5.025 -1.9321 -0.1502  0.1862
17474TIP3    H273914   4.756   2.528   4.903  1.4671 -0.7684  2.3545
17475TIP3   OH273915   4.205   3.855   5.468 -0.3333  0.0055  0.3835
17475TIP3    H173916   4.287   3.812   5.443  1.3474  1.8228  2.3333
17475TIP3    H273917   4.159   3.789   5.520  0.0349 -0.9321 -0.4438
17476TIP3   OH273918   3.730   2.872  13.903 -0.3297 -0.1798  0.3877
17476TIP3    H173919   3.818   2.910  13.901 -0.2385 -0.1228  2.5875
17476TIP3    H273920   3.673   2.941  13.868  0.4437 -0.0537 -0.6407
17477TIP3   OH273921   2.426   0.902  16.954  0.3778  0.0337 -0.0472
17477TIP3    H173922   2.453   0.977  16.900  0.7204 -0.3558 -0.4280
17477TIP3    H273923   2.396   0.837  16.890  0.4601 -0.3037  0.2545
17478TIP3   OH273924   1.275   6.375   4.943  0.7643  0.0818 -0.5561
17478TIP3    H173925   1.263   6.460   4.900  1.2865 -0.4105 -1.7052
17478TIP3    H273926   1.235   6.312   4.883 -1.0447 -0.3710  1.0045
17479TIP3   OH273927   1.814   6.499  10.872 -0.1263 -0.2095  0.3001
17479TIP3    H173928   1.785   6.438  10.804  0.2014 -0.1045  0.0617
17479TIP3    H273929   1.752   6.572  10.867 -3.5082 -2.4949  3.6966
17480TIP3   OH273930   2.683   5.715  12.081  0.1434  0.4806 -0.4481
17480TIP3    H173931   2.656   5.623  12.088  0.4225  0.4567  0.5698
17480TIP3    H273932   2.708   5.739  12.170  1.2079  1.1978 -0.9219
17481TIP3   OH273933   4.992   5.713   5.567 -0.5074  0.4447  0.6579
17481TIP3    H173934   4.954   5.634   5.528 -0.9530  0.6315  0.7131
17481TIP3    H273935   5.062   5.679   5.623  2.2013  0.3026 -2.4930
17482TIP3   OH273936   3.253   0.864   4.466 -0.7113 -0.0204  0.2002
17482TIP3    H173937   3.169   0.817   4.464 -1.7155  1.6939  0.3198
17482TIP3    H273938   3.307   0.813   4.527 -2.5551  0.2104  2.1762
17483TIP3   OH273939   4.379   4.643  12.302 -0.3948 -0.6486  0.3887
17483TIP3    H173940   4.346   4.708  12.240 -0.0064  0.2031  1.0502
17483TIP3    H273941   4.408   4.695  12.378  0.2430 -1.5672  0.7896
17484TIP3   OH273942   4.460   5.089   6.671 -0.0548 -0.0223 -0.6330
17484TIP3    H173943   4.376   5.122   6.639 -1.0475 -0.5998  1.2439
17484TIP3    H273944   4.455   4.994   6.660 -0.0341 -0.1417  0.3114
17485TIP3   OH273945   3.212   4.666   1.504  0.0580 -0.0550 -0.5997
17485TIP3    H173946   3.180   4.617   1.427  2.0818 -2.5580 -0.0018
17485TIP3    H273947   3.179   4.617   1.579 -0.0146  1.0384  0.0948
17486TIP3   OH273948   0.434   4.555  10.957 -0.0726  0.3775  0.4983
17486TIP3    H173949   0.423   4.510  11.041 -0.9807 -2.8589 -1.1792
17486TIP3    H273950   0.394   4.496  10.893  1.1361  2.3887 -2.3137
17487TIP3   OH273951   1.617   5.566   5.721  0.3010  0.3659 -0.2169
17487TIP3    H173952   1.630   5.639   5.782  1.3035 -0.3599  0.4696
17487TIP3    H273953   1.576   5.606   5.644 -2.0207  1.1427  1.2944
17488TIP3   OH273954   6.770   4.317  12.840  0.5611  0.2846 -0.1106
17488TIP3    H173955   6.749   4.303  12.748  1.8148  0.7689 -0.5049
17488TIP3    H273956   6.784   4.412  12.847  1.0402  0.1824  0.4416
17489TIP3   OH273957   0.181   2.680  12.115 -0.6048  0.1412 -0.5466
17489TIP3    H173958   0.198   2.607  12.175  2.3328  1.8437  0.9132
17489TIP3    H273959   0.251   2.675  12.050 -0.2234  1.7358 -0.2924
17490TIP3   OH273960   4.071   0.116   4.512 -0.5455 -0.3010  0.0697
17490TIP3    H173961   4.153   0.067   4.519 -0.4263 -0.0916  0.1512
17490TIP3    H273962   4.008   0.053   4.480 -0.0018 -0.0887 -1.4966
17491TIP3   OH273963   3.042   1.986  11.747  0.0867  0.0957  0.6355
17491TIP3    H173964   3.009   2.058  11.801 -1.3354 -0.0368 -0.0091
17491TIP3    H273965   2.996   1.909  11.781 -1.9947  0.2190 -1.6434
17492TIP3   OH273966   3.929   1.685   0.397 -0.1949  0.4879 -0.6463
17492TIP3    H173967   3.863   1.624   0.431  0.6015 -0.0844 -0.0631
17492TIP3    H273968   3.883   1.768   0.388 -1.2306 -0.1239 -1.1643
17493TIP3   OH273969   4.250   3.636   2.339  0.7053  0.5136  0.5157
17493TIP3    H173970   4.334   3.663   2.302  0.2554  2.3514  0.7798
17493TIP3    H273971   4.186   3.660   2.273  0.3655 -1.2745  0.1215
17494TIP3   OH273972   0.423   3.021  14.821  0.1802  0.0629  0.0684
17494TIP3    H173973   0.507   3.064  14.800  0.1376 -0.3899 -1.0815
17494TIP3    H273974   0.421   2.943  14.766 -0.6974 -0.3100  0.6036
17495TIP3   OH273975   1.980   0.969  17.306 -0.4503 -0.3265  0.4647
17495TIP3    H173976   2.032   0.952  17.227 -1.9548  0.1195 -0.6859
17495TIP3    H273977   2.021   1.047  17.345 -0.0155 -0.2119 -0.1945
17496TIP3   OH273978   3.156   5.200  13.366  0.2165  0.3508 -0.0804
17496TIP3    H173979   3.085   5.142  13.393  1.2915 -2.0729 -1.9596
17496TIP3    H273980   3.115   5.264  13.309 -0.6204 -0.4536 -0.4060
17497TIP3   OH273981   0.799   2.397   4.807  0.0411  0.0070  0.2069
17497TIP3    H173982   0.750   2.377   4.887  1.0370  0.9732  1.0849
17497TIP3    H273983   0.821   2.490   4.814 -1.4605  0.6424 -2.1043
17498TIP3   OH273984   4.463   4.849  13.836 -0.0904  0.4151 -0.6361
17498TIP3    H173985   4.379   4.839  13.881 -0.6196  2.6904 -1.0155
17498TIP3    H273986   4.513   4.772  13.863 -1.0058  0.7437  2.3932
17499TIP3   OH273987   1.722   0.667   4.303 -0.0247 -0.2424 -0.1225
17499TIP3    H173988   1.634   0.629   4.298 -0.1186 -0.1205  0.4870
17499TIP3    H273989   1.780   0.595   4.279 -0.1459 -1.0740  1.8613
17500TIP3   OH273990   5.064   3.317   5.339 -0.5046 -0.3763 -0.2203
17500TIP3    H173991   5.059   3.224   5.362  2.0501 -0.2415  1.1814
17500TIP3    H273992   5.054   3.318   5.244  0.4346 -2.1937 -0.3878
17501TIP3   OH273993   3.361   0.582   1.774 -0.0890 -0.0849  0.4041
17501TIP3    H173994   3.408   0.520   1.829  0.8912  1.7065  1.6811
17501TIP3    H273995   3.308   0.633   1.835  0.8341  1.7858 -0.2988
17502TIP3   OH273996   2.920   4.630   6.049  0.4746  0.3276 -0.4187
17502TIP3    H173997   2.943   4.561   6.111 -2.2507  0.0101  0.3844
17502TIP3    H273998   2.921   4.711   6.100 -1.4772  0.1068  0.0377
17503TIP3   OH273999   6.496   6.333   2.766 -0.5482 -0.3006 -0.3839
17503TIP3    H174000   6.431   6.266   2.747  1.1135 -2.0410 -0.1487
17503TIP3    H274001   6.549   6.298   2.837  1.6465  0.3115 -1.5935
17504TIP3   OH274002   3.907   6.493  11.287  0.4485 -0.5527 -0.2757
17504TIP3    H174003   3.976   6.474  11.223  0.7240 -1.1898  0.1935
17504TIP3    H274004   3.935   6.574  11.330  0.9145 -0.8052 -0.0907
17505TIP3   OH274005   5.899   0.234  16.819  0.5668 -0.0643 -0.2311
17505TIP3    H174006   5.893   0.226  16.914 -0.9601 -0.2901 -0.3083
17505TIP3    H274007   5.977   0.287  16.804  0.3270  0.7478  1.1978
17506TIP3   OH274008   0.312   1.569  16.982  0.3427  0.0686  0.1895
17506TIP3    H174009   0.386   1.613  16.940 -1.0634  2.3958 -0.0780
17506TIP3    H274010   0.286   1.628  17.053 -2.0666  0.0367 -0.5790
17507TIP3   OH274011   3.814   0.919   4.851 -0.6010 -0.2637  0.2304
17507TIP3    H174012   3.865   0.989   4.892 -0.8906 -0.0513  0.2379
17507TIP3    H274013   3.819   0.846   4.912  1.0655 -0.8232 -0.5374
17508TIP3   OH274014   3.947   3.682  12.501 -0.3378 -0.5559  0.3864
17508TIP3    H174015   4.031   3.696  12.543  0.2502 -1.0811 -0.5694
17508TIP3    H274016   3.909   3.770  12.491 -0.2270 -0.3841  1.4538
17509TIP3   OH274017   1.611   1.111   1.175 -0.0886  0.5573 -0.0950
17509TIP3    H174018   1.555   1.045   1.136 -1.9368  0.3825  2.5809
17509TIP3    H274019   1.689   1.063   1.202 -0.2179  0.0451 -0.6153
17510TIP3   OH274020   2.408   6.608   1.740  0.2281 -0.0585 -0.3818
17510TIP3    H174021   2.427   6.578   1.828  0.6796 -0.1738 -0.5177
17510TIP3    H274022   2.491   6.598   1.692  0.2593  0.9215 -0.5565
17511TIP3   OH274023   3.241   6.059   0.991  0.5154  0.2353  0.2304
17511TIP3    H174024   3.259   6.149   0.965 -0.8255 -0.0430 -1.9004
17511TIP3    H274025   3.326   6.024   1.018  1.3008  1.7390 -0.2070
17512TIP3   OH274026   5.588   2.705   4.446 -0.5256 -0.2151  0.0107
17512TIP3    H174027   5.638   2.724   4.526 -1.3436  0.4117  0.3898
17512TIP3    H274028   5.518   2.646   4.474 -1.2696  0.6033 -0.0744
17513TIP3   OH274029   4.937   0.772  12.663  0.2303 -0.4572  0.0687
17513TIP3    H174030   5.027   0.753  12.640  0.7053  1.2203  0.3985
17513TIP3    H274031   4.943   0.834  12.735 -1.2008 -3.4300  3.0370
17514TIP3   OH274032   3.952   5.959   2.067  0.6264  0.2988  0.4722
17514TIP3    H174033   4.019   5.925   2.009 -0.3881  2.5317 -2.2353
17514TIP3    H274034   3.976   6.051   2.079 -2.0766  1.2967 -0.9646
17515TIP3   OH274035   2.047   1.845  14.125 -0.2939 -0.2597 -0.0103
17515TIP3    H174036   2.138   1.867  14.104 -0.2126 -0.1680  0.4352
17515TIP3    H274037   1.998   1.924  14.103 -0.0724  0.1991  1.0942
17516TIP3   OH274038   1.206   6.291   4.175 -0.1712  0.3745  0.1211
17516TIP3    H174039   1.168   6.375   4.200 -0.3326 -0.2969  2.3717
17516TIP3    H274040   1.131   6.233   4.162 -0.0748  0.6061 -1.7507
17517TIP3   OH274041   2.967   4.197  16.424  0.2087  0.6681  0.0277
17517TIP3    H174042   2.982   4.136  16.495  0.6440  1.3405  0.5246
17517TIP3    H274043   2.976   4.144  16.344 -0.4093 -0.1097  0.4597
17518TIP3   OH274044   2.764   2.152  14.682 -0.2222  0.4716  0.1862
17518TIP3    H174045   2.710   2.141  14.760  0.5192  0.8219  0.7570
17518TIP3    H274046   2.766   2.065  14.643  2.3505 -0.6491  2.5295
17519TIP3   OH274047   5.637   3.407   0.564  0.0342  0.1156 -0.0775
17519TIP3    H174048   5.732   3.402   0.558 -0.0692 -1.7509 -0.9491
17519TIP3    H274049   5.619   3.416   0.657  1.0262 -3.3132  0.5894
17520TIP3   OH274050   6.503   3.976  10.876 -0.0311 -0.2254 -0.3273
17520TIP3    H174051   6.484   3.973  10.783 -1.1293 -1.0018 -0.0945
17520TIP3    H274052   6.426   4.019  10.915  0.0938 -0.5539  0.2928
17521TIP3   OH274053   6.102   6.823   6.060 -0.1751 -0.0432 -0.0079
17521TIP3    H174054   6.088   6.874   5.980  0.5726 -0.4610 -0.4201
17521TIP3    H274055   6.197   6.809   6.063 -0.1113  0.4985  1.2833
17522TIP3   OH274056   3.332   1.933   3.861 -0.0420  0.2747 -0.1459
17522TIP3    H174057   3.276   1.957   3.935 -1.8106 -0.4208 -1.1904
17522TIP3    H274058   3.328   1.837   3.859  1.9344  0.1581  0.2775
17523TIP3   OH274059   2.864   4.952  12.061  0.0970  0.1587  0.1899
17523TIP3    H174060   2.930   4.941  11.993 -0.9826  0.1808 -0.8892
17523TIP3    H274061   2.872   4.874  12.116  0.1910 -0.4370 -0.6554
17524TIP3   OH274062   3.713   2.714  13.626 -0.8179 -0.0784 -0.6004
17524TIP3    H174063   3.746   2.723  13.716 -0.0329  1.2196 -1.0011
17524TIP3    H274064   3.635   2.658  13.635  0.7453 -2.2337  0.5116
17525TIP3   OH274065   5.134   0.148  13.992 -0.2943  0.5476 -0.1942
17525TIP3    H174066   5.165   0.109  13.911 -0.4750 -0.5778  0.2656
17525TIP3    H274067   5.214   0.167  14.041 -0.2328 -0.4175  0.1038
17526TIP3   OH274068   4.655   4.174   3.996 -0.1693  0.2813  0.5486
17526TIP3    H174069   4.665   4.086   4.032  0.9581 -0.1212 -0.6792
17526TIP3    H274070   4.582   4.166   3.934  0.7412 -0.1232 -0.4983
17527TIP3   OH274071   2.131   3.789  17.182 -0.1174  0.3745 -0.1357
17527TIP3    H174072   2.175   3.865  17.221 -1.1667  0.1636  1.5443
17527TIP3    H274073   2.197   3.751  17.124  0.9422  1.6856  0.1527
17528TIP3   OH274074   6.659   1.461   4.760 -0.1645 -0.4529 -0.2932
17528TIP3    H174075   6.691   1.434   4.846 -0.5996 -3.4217 -0.9768
17528TIP3    H274076   6.734   1.506   4.720  0.1807  0.5909  1.4020
17529TIP3   OH274077   5.351   5.980   6.759  0.0697  0.2561  0.2116
17529TIP3    H174078   5.424   6.006   6.701  0.2931  0.5479  0.6172
17529TIP3    H274079   5.367   5.888   6.778 -1.0353 -0.3803 -1.7006
17530TIP3   OH274080   3.374   5.277   4.002 -0.2790  0.0207 -0.3172
17530TIP3    H174081   3.408   5.363   4.028  1.2370 -0.8710  0.7865
17530TIP3    H274082   3.375   5.280   3.906 -0.8073  1.4210 -0.3095
17531TIP3   OH274083   6.580   2.632  14.972  0.0911 -0.2027 -0.3326
17531TIP3    H174084   6.490   2.612  14.946 -0.7584  0.3395  1.9626
17531TIP3    H274085   6.583   2.728  14.976  0.1366 -0.2607  1.5684
17532TIP3   OH274086   2.248   3.897  12.811  0.1195  0.0488  0.2579
17532TIP3    H174087   2.226   3.850  12.731  2.2049 -1.3624  0.4183
17532TIP3    H274088   2.331   3.941  12.791  1.2374 -1.1723  1.8966
17533TIP3   OH274089   3.154   1.619   0.646  0.1937 -0.1579 -0.3595
17533TIP3    H174090   3.134   1.713   0.652 -1.6404 -0.4655 -0.8969
17533TIP3    H274091   3.136   1.585   0.734  1.7648  0.1241  0.0916
17534TIP3   OH274092   2.258   1.032  15.842 -0.0641  0.4001 -0.0552
17534TIP3    H174093   2.219   1.040  15.755  1.3220 -1.2614 -0.8975
17534TIP3    H274094   2.257   0.938  15.860  3.6098  0.1851 -0.2595
17535TIP3   OH274095   6.370   2.775   4.775  0.3555  0.2501 -0.0005
17535TIP3    H174096   6.455   2.800   4.812 -0.1805  2.0549  0.1074
17535TIP3    H274097   6.367   2.818   4.690 -0.6178  0.5931  0.1869
17536TIP3   OH274098   3.572   3.979   1.924  0.2723 -0.1351  0.6591
17536TIP3    H174099   3.608   4.066   1.943 -1.8307  1.1058 -0.5717
17536TIP3    H274100   3.493   3.997   1.873  0.6175 -2.8474 -1.0455
17537TIP3   OH274101   4.088   5.742   3.054  0.4494 -0.3087  0.2025
17537TIP3    H174102   4.003   5.786   3.061  0.1154 -0.5823 -1.6907
17537TIP3    H274103   4.068   5.649   3.067  0.6599 -0.2653  0.9056
17538TIP3   OH274104   5.869   0.230  15.990 -0.1711  0.2333  0.3524
17538TIP3    H174105   5.883   0.262  15.901  0.4706 -1.4012 -0.1914
17538TIP3    H274106   5.944   0.263  16.040 -0.8701  1.6982  0.4778
17539TIP3   OH274107   4.753   6.048   6.306  0.1306 -0.6082 -0.3293
17539TIP3    H174108   4.818   5.989   6.344 -0.3046 -0.2265  1.0401
17539TIP3    H274109   4.737   6.113   6.373  0.4406  0.9849 -1.7429
17540TIP3   OH274110   5.421   1.015   0.618 -0.1126  0.4780 -0.3974
17540TIP3    H174111   5.465   1.017   0.703 -2.2666  0.7157  0.7891
17540TIP3    H274112   5.492   1.007   0.554  1.9820  4.3816  1.0914
17541TIP3   OH274113   4.185   0.635   0.055  0.4594  0.3388  0.3839
17541TIP3    H174114   4.251   0.678   0.001 -0.6706  0.6499 -0.8162
17541TIP3    H274115   4.105   0.638   0.001 -0.5099 -0.0798  1.7483
17542TIP3   OH274116   5.276   1.674  14.577 -0.3775  0.1117  0.3159
17542TIP3    H174117   5.236   1.696  14.661  0.9124  0.3707  0.8854
17542TIP3    H274118   5.276   1.578  14.576 -0.1552  0.1044  0.7324
17543TIP3   OH274119   2.977   3.270   3.913  0.3497 -0.1364 -0.1834
17543TIP3    H174120   3.026   3.244   3.835 -0.1213  0.5909 -0.7317
17543TIP3    H274121   2.909   3.203   3.922  2.0604 -1.7903  1.2277
17544TIP3   OH274122   1.578   1.418   4.590 -0.1853 -0.6247  0.0304
17544TIP3    H174123   1.598   1.437   4.682 -1.4013  0.3792  0.1061
17544TIP3    H274124   1.547   1.328   4.590 -0.6335 -0.4725  0.6782
17545TIP3   OH274125   3.443   0.731   4.633  0.0416 -0.5572  0.3701
17545TIP3    H174126   3.414   0.762   4.719  1.0311 -0.7061  0.7591
17545TIP3    H274127   3.450   0.636   4.642  1.2379 -0.4709  0.4703
17546TIP3   OH274128   2.377   0.465   5.927  0.1382 -0.5787  0.0879
17546TIP3    H174129   2.406   0.405   5.858 -2.7846 -0.5905 -1.2911
17546TIP3    H274130   2.360   0.408   6.002  1.5857 -0.8165  0.2641
17547TIP3   OH274131   1.029   0.282  11.245  0.2093  0.0835 -0.2971
17547TIP3    H174132   1.019   0.319  11.333  1.1618 -0.9053  0.2542
17547TIP3    H274133   1.123   0.265  11.237  0.1185  0.0797 -1.4820
17548TIP3   OH274134   5.118   0.325   2.889  0.2209 -0.0751  0.0768
17548TIP3    H174135   5.121   0.305   2.796  0.1360 -1.9929  0.4423
17548TIP3    H274136   5.064   0.256   2.927 -0.9516  1.4874  1.3770
17549TIP3   OH274137   5.503   0.387   3.784  0.1567  0.4210  0.2316
17549TIP3    H174138   5.509   0.296   3.755  0.2440  0.6302 -0.4163
17549TIP3    H274139   5.411   0.409   3.773  0.3465  0.7719 -0.7386
17550TIP3   OH274140   2.908   1.855   5.740 -0.1451  0.0283  0.0772
17550TIP3    H174141   2.879   1.766   5.721 -0.3491  0.1866 -0.3581
17550TIP3    H274142   2.837   1.894   5.790 -0.3800  0.1867 -0.3773
17551TIP3   OH274143   1.287   6.639  16.953  0.5662 -0.1748  0.6956
17551TIP3    H174144   1.295   6.644  16.858 -0.1682  3.0102  0.7072
17551TIP3    H274145   1.304   6.547  16.973 -0.7955 -1.2998 -2.6261
17552TIP3   OH274146   5.336   3.517  14.756 -0.4538 -0.3208  0.1517
17552TIP3    H174147   5.343   3.608  14.784 -0.5775  0.4894 -2.2039
17552TIP3    H274148   5.413   3.474  14.795  1.9968  1.7898 -1.9683
17553TIP3   OH274149   3.138   5.861   1.240  0.3346  0.3710 -0.3644
17553TIP3    H174150   3.095   5.777   1.226  1.8404 -0.4754 -0.1150
17553TIP3    H274151   3.226   5.839   1.270  0.0450  2.0331  2.0612
17554TIP3   OH274152   1.138   6.483  13.036  0.2659  0.4816 -0.2131
17554TIP3    H174153   1.210   6.419  13.037  0.6674  0.9281  0.6461
17554TIP3    H274154   1.176   6.562  12.998 -0.4176  0.0298 -1.9141
17555TIP3   OH274155   4.130   0.909  12.962  0.1157  0.2057  0.1597
17555TIP3    H174156   4.074   0.862  12.900  0.7359  0.4531 -0.6101
17555TIP3    H274157   4.197   0.846  12.988  1.2997  0.7895 -1.3313
17556TIP3   OH274158   6.585   4.552   0.354 -0.4473 -0.0844 -0.1067
17556TIP3    H174159   6.658   4.615   0.354 -2.7035  2.7410  0.1656
17556TIP3    H274160   6.559   4.546   0.446 -2.2520  1.2282 -0.4593
17557TIP3   OH274161   5.748   0.375   2.705 -0.6390 -0.1025  0.6645
17557TIP3    H174162   5.689   0.446   2.729  1.0350  1.1842  1.2572
17557TIP3    H274163   5.727   0.304   2.766  0.0418  1.2419  2.5809
17558TIP3   OH274164   2.076   3.791  14.102  0.2181  0.4323  0.6710
17558TIP3    H174165   2.086   3.877  14.142 -2.1968  1.1281 -0.0213
17558TIP3    H274166   2.153   3.780  14.047  0.4191  2.3197  0.5098
17559TIP3   OH274167   1.035   5.983   3.763  0.7314 -0.4268  0.1147
17559TIP3    H174168   1.038   5.959   3.856 -2.1017 -0.9208  0.1423
17559TIP3    H274169   0.978   6.060   3.759  0.9307 -0.3186 -1.2199
17560TIP3   OH274170   0.074   0.733  15.468 -0.2623 -0.2053  0.0031
17560TIP3    H174171   0.023   0.700  15.394 -1.6646  2.5372 -0.3698
17560TIP3    H274172   0.146   0.782  15.428 -0.8686  1.0568  0.4054
17561TIP3   OH274173   1.875   4.123   5.082  0.5539 -0.6336  0.7414
17561TIP3    H174174   1.911   4.035   5.067 -0.1926 -0.5766 -1.8673
17561TIP3    H274175   1.790   4.122   5.037  1.1527  1.8410 -0.5976
17562TIP3   OH274176   4.158   1.556  13.394  0.2982  0.2632 -0.1736
17562TIP3    H174177   4.243   1.565  13.437  0.4624  1.4059 -0.7077
17562TIP3    H274178   4.163   1.472  13.348  0.5792 -0.3745  0.9942
17563TIP3   OH274179   4.201   0.988  15.556  0.2834 -0.3225 -0.3535
17563TIP3    H174180   4.150   0.914  15.524  0.7798 -1.3979  1.2284
17563TIP3    H274181   4.242   1.024  15.477 -3.1347  0.8796 -1.7682
17564TIP3   OH274182   3.011   4.279   5.942  0.2695  0.1048 -0.2185
17564TIP3    H174183   3.059   4.308   6.019 -1.6575 -0.0036  1.0873
17564TIP3    H274184   3.015   4.183   5.946 -0.2500  0.0920  0.0287
17565TIP3   OH274185   2.943   6.510   4.088 -0.6916  0.4347 -0.1703
17565TIP3    H174186   2.890   6.468   4.020  1.6097 -0.0004 -1.8177
17565TIP3    H274187   2.948   6.444   4.158 -0.0161 -0.6611 -1.2158
17566TIP3   OH274188   0.758   3.451   2.210 -0.0888  0.3202 -0.1634
17566TIP3    H174189   0.719   3.428   2.295 -0.0626 -2.3833 -0.7910
17566TIP3    H274190   0.683   3.465   2.152 -0.2232 -2.2841 -0.7256
17567TIP3   OH274191   4.638   3.603  12.738  0.3811  0.0663  0.5484
17567TIP3    H174192   4.573   3.673  12.741 -2.4679 -2.3537  0.0474
17567TIP3    H274193   4.627   3.555  12.820  1.1155 -0.7435  0.2014
17568TIP3   OH274194   5.588   3.491  12.741 -0.3582  0.5969 -0.0212
17568TIP3    H174195   5.644   3.537  12.678  1.7914  0.3784  1.6094
17568TIP3    H274196   5.620   3.401  12.741 -1.3143  0.2464  0.3144
17569TIP3   OH274197   4.386   4.397   5.274  0.4605  0.6134 -0.0023
17569TIP3    H174198   4.424   4.469   5.323  0.5366  2.1546 -2.2012
17569TIP3    H274199   4.298   4.427   5.250  0.2693 -0.2630 -0.4559
17570TIP3   OH274200   2.664   3.834  15.429 -0.0837  0.1485 -0.0065
17570TIP3    H174201   2.664   3.756  15.373  0.3169  0.1606 -0.0214
17570TIP3    H274202   2.738   3.822  15.488  0.0705  0.5934 -0.1064
17571TIP3   OH274203   2.454   6.234   0.075  0.1376  0.0755  0.1150
17571TIP3    H174204   2.494   6.212   0.159  0.0923 -0.4853 -0.0083
17571TIP3    H274205   2.528   6.264   0.021  0.0976  0.8860  0.4963
17572TIP3   OH274206   5.994   3.141   2.893  0.8682 -0.1167 -0.0562
17572TIP3    H174207   5.984   3.075   2.961  2.6991 -1.7032 -1.2372
17572TIP3    H274208   5.916   3.132   2.838  0.8872 -1.0041  0.0541
17573TIP3   OH274209   5.233   4.978   5.649  0.3347 -0.1496 -0.2883
17573TIP3    H174210   5.141   4.959   5.631 -0.5798  1.2582  2.3474
17573TIP3    H274211   5.266   4.898   5.691 -0.4392  0.1545  0.9699
17574TIP3   OH274212   1.499   0.547   3.676 -0.1168 -0.1230  0.0231
17574TIP3    H174213   1.503   0.642   3.669 -1.4169  0.2302  2.7857
17574TIP3    H274214   1.587   0.521   3.704  0.3916  0.1787 -1.2559
17575TIP3   OH274215   5.512   1.615  10.824  0.2375 -0.8425  0.1113
17575TIP3    H174216   5.430   1.566  10.816 -1.3161  1.4998  0.7554
17575TIP3    H274217   5.486   1.700  10.859  2.8484  0.3641 -0.6302
17576TIP3   OH274218   1.779   0.638   0.585 -0.1151  0.0349  0.6039
17576TIP3    H174219   1.713   0.626   0.517 -1.3905 -0.9385  1.9686
17576TIP3    H274220   1.837   0.562   0.576 -0.1641  0.0111  0.4873
17577TIP3   OH274221   4.486   4.510   4.927 -0.2240 -0.0995 -0.2610
17577TIP3    H174222   4.430   4.582   4.957  0.5244  1.1073 -1.6296
17577TIP3    H274223   4.430   4.433   4.931 -1.6091  0.8543 -0.4281
17578TIP3   OH274224   5.408   5.682  15.078 -0.3476  0.3091 -0.2436
17578TIP3    H174225   5.426   5.589  15.089 -1.1872  0.0045 -1.2868
17578TIP3    H274226   5.426   5.720  15.164  1.2601 -0.5834 -0.1363
17579TIP3   OH274227   5.681   6.199   3.761  0.2966  0.7762 -0.4918
17579TIP3    H174228   5.599   6.156   3.736  0.1809  1.2458 -0.9167
17579TIP3    H274229   5.671   6.290   3.734 -1.3395  2.3603  4.3975
17580TIP3   OH274230   1.920   2.306  11.127  0.0631  0.5202 -0.5275
17580TIP3    H174231   1.977   2.338  11.057  0.2895  3.2646  0.7900
17580TIP3    H274232   1.851   2.258  11.082  0.7079  1.3918 -2.5509
17581TIP3   OH274233   0.785   6.691   3.553 -0.0361 -0.0251 -0.1999
17581TIP3    H174234   0.715   6.740   3.597 -0.5139 -0.9596  0.0938
17581TIP3    H274235   0.770   6.600   3.577  0.1499 -0.4745 -1.6813
17582TIP3   OH274236   4.777   5.628  16.618 -0.0111 -0.2903 -0.2377
17582TIP3    H174237   4.861   5.634  16.664  0.3955 -0.6970 -0.9072
17582TIP3    H274238   4.719   5.686  16.667  0.3473 -0.8596  0.9012
17583TIP3   OH274239   0.127   1.721   2.918 -0.5144 -0.1168  0.2954
17583TIP3    H174240   0.188   1.738   2.990 -3.4271  3.2833  2.2735
17583TIP3    H274241   0.083   1.640   2.942  1.7619 -1.6170 -0.2491
17584TIP3   OH274242   1.056   1.533  15.449 -0.0317  0.2514  0.2239
17584TIP3    H174243   0.999   1.608  15.431  0.6648  0.7066 -0.1837
17584TIP3    H274244   1.023   1.496  15.531  0.0671  1.4837  0.8574
17585TIP3   OH274245   0.850   0.255   6.337 -0.7554 -0.5078 -0.3213
17585TIP3    H174246   0.907   0.297   6.401 -0.9844 -0.0314 -0.4319
17585TIP3    H274247   0.777   0.221   6.389  0.0978 -2.0035 -0.0308
17586TIP3   OH274248   1.771   5.130  14.593  0.1920  0.4650  0.1573
17586TIP3    H174249   1.678   5.147  14.612 -1.2405 -4.1625 -1.2993
17586TIP3    H274250   1.781   5.152  14.500  0.0415 -0.4759 -0.0971
17587TIP3   OH274251   2.446   5.892  15.670  0.5161 -0.2679 -0.6018
17587TIP3    H174252   2.402   5.977  15.663  0.0631 -0.2270  1.8616
17587TIP3    H274253   2.539   5.914  15.676  0.5830 -0.1065 -1.9330
17588TIP3   OH274254   3.289   0.243  12.870  0.6855  0.1528 -0.0965
17588TIP3    H174255   3.259   0.278  12.954  0.7124 -0.5010  0.1956
17588TIP3    H274256   3.361   0.300  12.845 -0.0277  1.0177 -0.2190
17589TIP3   OH274257   6.527   0.195   4.245  0.7323 -0.1544  0.5247
17589TIP3    H174258   6.446   0.216   4.199  1.1836 -1.6787 -1.0995
17589TIP3    H274259   6.523   0.100   4.259  2.5953 -0.4157 -0.4242
17590TIP3   OH274260   4.280   4.495   4.339  0.3449 -0.0768  0.5699
17590TIP3    H174261   4.210   4.444   4.378 -0.5930  1.4083  0.9108
17590TIP3    H274262   4.308   4.555   4.408  0.9063  0.3881 -0.0439
17591TIP3   OH274263   0.284   1.339   2.824 -0.3245 -0.7294  0.1307
17591TIP3    H174264   0.303   1.249   2.798 -4.3889 -1.6366 -0.3692
17591TIP3    H274265   0.234   1.375   2.751 -1.3021  0.9103  1.5366
17592TIP3   OH274266   2.137   3.766  11.418 -0.4853  0.4675  0.2032
17592TIP3    H174267   2.049   3.731  11.434 -0.4415  0.7157  0.9862
17592TIP3    H274268   2.133   3.799  11.328 -1.1007  0.1988  0.1260
17593TIP3   OH274269   0.695   4.474  12.219  0.0657  0.4980  0.0526
17593TIP3    H174270   0.714   4.426  12.138  0.2067 -1.7960  1.3451
17593TIP3    H274271   0.780   4.481  12.263 -0.2850  0.1100  0.8061
17594TIP3   OH274272   1.245   5.101  16.048 -0.0477 -0.0671  0.3783
17594TIP3    H174273   1.195   5.177  16.020  3.2855  2.9669  1.7691
17594TIP3    H274274   1.210   5.080  16.135 -0.9577 -0.0831  0.0115
17595TIP3   OH274275   5.494   2.305   3.421 -0.8279 -0.1453 -0.0482
17595TIP3    H174276   5.438   2.290   3.345 -0.6532 -0.1406 -0.1788
17595TIP3    H274277   5.435   2.338   3.488 -0.8605  0.5248 -0.4044
17596TIP3   OH274278   1.002   1.902  16.891  0.1529 -0.7125  0.1584
17596TIP3    H174279   0.949   1.919  16.813 -0.2421 -0.9378  0.3688
17596TIP3    H274280   1.033   1.812  16.879  0.0860 -0.7496  0.2608
17597TIP3   OH274281   4.715   1.744  11.076 -0.0487  0.0205  0.0196
17597TIP3    H174282   4.791   1.752  11.020  0.4295 -0.0192  0.6460
17597TIP3    H274283   4.719   1.655  11.110  0.6505  0.5495  1.4481
17598TIP3   OH274284   4.960   6.157  13.930 -0.1150  0.0161  0.4269
17598TIP3    H174285   4.989   6.070  13.901  1.4887  0.8909 -0.7716
17598TIP3    H274286   4.983   6.160  14.023  1.7245 -0.1445  0.0187
17599TIP3   OH274287   0.256   4.274  13.062  0.2977 -0.3702 -0.1035
17599TIP3    H174288   0.299   4.207  13.115  0.2344 -0.6454 -0.3970
17599TIP3    H274289   0.225   4.227  12.985  0.3523  0.0228 -0.3639
17600TIP3   OH274290   0.391   0.065  15.212  0.1024  0.5782  0.6157
17600TIP3    H174291   0.372   0.147  15.166  2.4934  0.9238  0.1160
17600TIP3    H274292   0.485   0.069  15.231  1.1267 -3.3809 -2.2328
17601TIP3   OH274293   1.150   6.148   1.564  0.5644 -0.1373 -0.0572
17601TIP3    H174294   1.182   6.073   1.514  2.6575  1.1335 -0.7398
17601TIP3    H274295   1.211   6.219   1.543 -1.1230  1.6847  0.8252
17602TIP3   OH274296   5.273   0.357  16.908  0.0501 -0.6138  0.1343
17602TIP3    H174297   5.324   0.431  16.941  0.8912 -0.1909 -1.9652
17602TIP3    H274298   5.188   0.366  16.950  0.7139  0.4710  1.3224
17603TIP3   OH274299   3.565   2.868   3.674 -0.1405 -0.1208  0.0148
17603TIP3    H174300   3.578   2.934   3.606 -0.3774 -0.2032 -0.1141
17603TIP3    H274301   3.493   2.902   3.727 -0.6221 -0.5153 -0.3669
17604TIP3   OH274302   0.404   3.564  16.591  0.3327 -1.0644 -0.6483
17604TIP3    H174303   0.469   3.494  16.592 -0.3897 -1.7530 -0.3846
17604TIP3    H274304   0.383   3.579  16.684  0.0410 -0.9329 -0.7331
17605TIP3   OH274305   3.725   6.055   0.581 -0.4543 -0.0196 -0.1610
17605TIP3    H174306   3.700   6.005   0.504  0.2004  0.4194 -0.6703
17605TIP3    H274307   3.649   6.052   0.638 -0.4740 -1.4949 -0.2312
17606TIP3   OH274308   0.536   0.700  11.343 -0.0336  0.2483  0.1330
17606TIP3    H174309   0.531   0.652  11.261  1.6538  0.0765  0.0852
17606TIP3    H274310   0.496   0.641  11.408 -3.5086  1.3188 -0.8376
17607TIP3   OH274311   0.651   4.982   4.188  0.1087 -0.3479  0.5091
17607TIP3    H174312   0.707   4.915   4.228  0.6198  0.2230  0.7787
17607TIP3    H274313   0.582   4.996   4.252 -1.1811 -2.0560 -0.4218
17608TIP3   OH274314   4.899   0.665  11.361 -0.5530 -0.0866 -0.4495
17608TIP3    H174315   4.898   0.703  11.273  0.5848  0.3815 -0.2757
17608TIP3    H274316   4.833   0.714  11.410 -0.0383  0.7751 -0.6033
17609TIP3   OH274317   2.501   6.697  13.148 -0.4011  0.4860 -0.1575
17609TIP3    H174318   2.548   6.630  13.198  0.6772  0.7747 -0.7603
17609TIP3    H274319   2.528   6.780  13.187 -1.5856  0.6031  0.4595
17610TIP3   OH274320   0.999   1.974  11.564 -0.5399  0.1782  0.2742
17610TIP3    H174321   1.046   2.057  11.552  0.1241 -0.0014  1.4119
17610TIP3    H274322   0.907   1.999  11.562 -0.4980  0.4139 -2.8731
17611TIP3   OH274323   5.973   3.856   4.032  0.0832 -0.0292  0.3576
17611TIP3    H174324   5.991   3.777   4.083  0.3372 -1.0712 -1.2734
17611TIP3    H274325   5.877   3.861   4.029  0.0403 -0.8889 -0.3679
17612TIP3   OH274326   5.843   1.117  14.460 -0.2310  0.0424 -0.3114
17612TIP3    H174327   5.935   1.141  14.473  0.1370 -1.1483 -0.6145
17612TIP3    H274328   5.813   1.090  14.546 -0.9487  2.4577  0.2644
17613TIP3   OH274329   2.742   3.213   3.248 -0.5505 -0.0952  0.4788
17613TIP3    H174330   2.670   3.243   3.303 -1.7457 -1.7373 -0.1520
17613TIP3    H274331   2.717   3.240   3.159  0.5524  1.0050  0.4660
17614TIP3   OH274332   4.149   0.936   0.139 -0.4119 -0.2148 -0.5777
17614TIP3    H174333   4.167   0.885   0.218 -2.8472  0.7212  0.6827
17614TIP3    H274334   4.118   1.020   0.172 -1.6415  0.1449 -2.5364
17615TIP3   OH274335   4.841   6.537  15.086  0.2561 -0.2331  0.0254
17615TIP3    H174336   4.783   6.613  15.090 -0.1649 -0.5586  0.0987
17615TIP3    H274337   4.811   6.488  15.009  1.2806  0.2803 -0.7391
17616TIP3   OH274338   4.924   1.065  16.629 -0.1574  0.4465 -0.0870
17616TIP3    H174339   5.002   1.114  16.654  0.3443 -0.9164  1.1455
17616TIP3    H274340   4.891   1.028  16.711 -0.9146 -0.6847 -0.8660
17617TIP3   OH274341   0.241   6.414  16.119  0.5266  0.2965  0.1880
17617TIP3    H174342   0.167   6.474  16.112 -1.0877 -1.6599 -0.8642
17617TIP3    H274343   0.210   6.345  16.178  0.9154 -1.3016 -1.3847
17618TIP3   OH274344   3.170   6.380   0.776  0.5352  0.0841  0.1444
17618TIP3    H174345   3.178   6.308   0.712 -0.8925 -0.4646  0.5493
17618TIP3    H274346   3.228   6.448   0.742  0.6730 -0.6297 -1.1356
17619TIP3   OH274347   1.753   6.121   5.907 -0.4912 -0.2061  0.1312
17619TIP3    H174348   1.731   6.198   5.960 -0.9639  1.2755 -2.0672
17619TIP3    H274349   1.693   6.053   5.938 -1.3097  0.8383  0.9199
17620TIP3   OH274350   3.309   4.011   6.326 -0.2804 -0.4707 -0.0467
17620TIP3    H174351   3.247   4.084   6.321  1.3469  0.8983 -1.1484
17620TIP3    H274352   3.279   3.951   6.256 -1.2860 -0.6238  0.4913
17621TIP3   OH274353   0.830   4.863   5.757 -0.1056  0.2658  0.3202
17621TIP3    H174354   0.920   4.863   5.791  0.0510 -1.1660 -0.0025
17621TIP3    H274355   0.779   4.823   5.827 -0.4158  0.6572  0.3186
17622TIP3   OH274356   3.535   4.482  14.876 -0.5202  0.2963 -0.1894
17622TIP3    H174357   3.475   4.408  14.864 -1.9427  1.5973 -1.4674
17622TIP3    H274358   3.521   4.509  14.967 -2.2755  0.8704 -0.5904
17623TIP3   OH274359   5.384   6.815   4.537 -0.1321 -0.2720 -0.1001
17623TIP3    H174360   5.477   6.803   4.519  0.0833  0.0662  0.7489
17623TIP3    H274361   5.355   6.881   4.473  0.5764  0.7889  0.6506
17624TIP3   OH274362   5.434   5.757   2.284 -0.4011  0.2470 -0.5566
17624TIP3    H174363   5.414   5.722   2.197 -0.5543 -1.0095 -0.0274
17624TIP3    H274364   5.349   5.758   2.330 -0.4026  1.3301 -0.5575
17625TIP3   OH274365   0.857   2.203  17.040  0.1539 -0.5306 -0.5993
17625TIP3    H174366   0.878   2.292  17.011  0.4007 -0.3372  0.1431
17625TIP3    H274367   0.885   2.201  17.131 -1.2625 -0.8857 -0.1453
17626TIP3   OH274368   3.493   1.298   1.470 -0.7631 -0.0316 -0.1332
17626TIP3    H174369   3.490   1.255   1.555 -3.8770 -1.2817 -0.7430
17626TIP3    H274370   3.550   1.242   1.417  0.3047  0.1559  0.7765
17627TIP3   OH274371   4.744   3.367   0.117  0.2926  0.2632 -0.5095
17627TIP3    H174372   4.811   3.300   0.103  1.3433  0.7107  1.9205
17627TIP3    H274373   4.662   3.324   0.091  1.1730 -1.3020 -0.8428
17628TIP3   OH274374   5.503   0.525   4.023  0.1902 -0.0839  0.6317
17628TIP3    H174375   5.506   0.444   3.972  1.2348 -0.3395  1.0701
17628TIP3    H274376   5.419   0.521   4.070 -0.9394  0.3021 -1.2378
17629TIP3   OH274377   5.281   2.135   2.408 -0.4637  0.2000 -0.0708
17629TIP3    H174378   5.358   2.133   2.466  1.0700 -0.2300 -2.0063
17629TIP3    H274379   5.286   2.222   2.367  0.0841 -0.5026 -1.5445
17630TIP3   OH274380   5.776   0.066  14.067 -0.3147 -0.0744  0.1878
17630TIP3    H174381   5.780   0.148  14.117  0.3443  0.3474 -0.5389
17630TIP3    H274382   5.821   0.086  13.985 -0.1768 -1.1568 -0.0094
17631TIP3   OH274383   4.428   2.896  14.533  0.1496  0.3065  0.2013
17631TIP3    H174384   4.481   2.867  14.607 -0.3993 -0.8832  0.1581
17631TIP3    H274385   4.338   2.895  14.567 -0.0442  0.3379 -0.2980
17632TIP3   OH274386   5.447   0.445   5.691 -0.0134 -0.6099  0.2032
17632TIP3    H174387   5.410   0.402   5.614 -0.4169  0.7709 -0.4121
17632TIP3    H274388   5.454   0.537   5.666  1.2598 -0.3798  1.2993
17633TIP3   OH274389   2.391   3.788  14.589 -0.2727  0.0330  0.3181
17633TIP3    H174390   2.387   3.813  14.496 -0.6097  1.7914  0.7652
17633TIP3    H274391   2.302   3.761  14.610 -0.0533 -0.9837 -0.0115
17634TIP3   OH274392   0.465   2.329  13.222 -0.2992  0.4833 -0.4983
17634TIP3    H174393   0.478   2.274  13.300  0.2055  2.9517  1.2831
17634TIP3    H274394   0.550   2.328  13.178  0.5489  1.8644  0.9925
17635TIP3   OH274395   6.158   4.006  14.155  0.6706 -0.1900 -0.7138
17635TIP3    H174396   6.213   4.002  14.076 -0.8935  0.8847 -1.9134
17635TIP3    H274397   6.072   4.033  14.123 -0.1278 -0.1670  1.3297
17636TIP3   OH274398   1.951   3.194   0.263  0.0752 -0.2455  0.0900
17636TIP3    H174399   1.944   3.215   0.356  0.9924  1.9351 -0.2685
17636TIP3    H274400   1.862   3.199   0.231  0.0053  1.3483  0.4378
17637TIP3   OH274401   1.188   3.899  12.317  0.0211  0.5178  0.8995
17637TIP3    H174402   1.170   3.812  12.283 -1.6018 -0.4676  3.9361
17637TIP3    H274403   1.221   3.948  12.242 -0.8031 -2.1502 -1.3459
17638TIP3   OH274404   1.300   6.508  11.285 -0.6374 -0.0009 -0.5065
17638TIP3    H174405   1.232   6.519  11.218  1.1796  2.3195 -2.1060
17638TIP3    H274406   1.370   6.459  11.241 -0.1475 -0.0060  0.2649
17639TIP3   OH274407   5.666   1.375  17.067 -1.0336  0.2360 -0.2778
17639TIP3    H174408   5.636   1.296  17.021 -1.4487  0.0995  0.2154
17639TIP3    H274409   5.604   1.443  17.040 -0.3913  0.5145 -1.0778
17640TIP3   OH274410   4.518   0.927   6.131  0.3740 -0.2226 -0.3746
17640TIP3    H174411   4.567   0.860   6.084  1.2754  0.0554  0.1393
17640TIP3    H274412   4.577   1.003   6.133  0.1222 -0.0409  0.6697
17641TIP3   OH274413   4.267   5.771   6.488 -0.1587 -0.3386 -0.2068
17641TIP3    H174414   4.275   5.745   6.396  1.5785  1.7018 -0.7073
17641TIP3    H274415   4.174   5.760   6.507 -0.2603 -2.6768 -1.5688
17642TIP3   OH274416   4.584   5.397   2.217 -0.0919 -0.3288 -0.6024
17642TIP3    H174417   4.624   5.310   2.215  0.4374 -0.0998 -0.2329
17642TIP3    H274418   4.657   5.458   2.203 -0.6462  0.0184 -2.2434
17643TIP3   OH274419   5.742   1.727   2.504  0.2685 -0.8407 -0.1072
17643TIP3    H174420   5.691   1.719   2.423  0.5729 -0.3591 -0.3479
17643TIP3    H274421   5.676   1.740   2.573  0.0946  1.4859 -0.6253
17644TIP3   OH274422   4.794   1.585  13.832 -0.1455  0.1635  0.7088
17644TIP3    H174423   4.753   1.599  13.917 -0.7243  1.5284  0.2218
17644TIP3    H274424   4.796   1.671  13.791  0.9299 -0.3208 -0.3123
17645TIP3   OH274425   6.609   4.927  16.713 -0.4793 -0.4195 -0.1137
17645TIP3    H174426   6.563   4.879  16.782 -2.8750  0.3747 -1.0621
17645TIP3    H274427   6.542   4.947  16.648  0.9576  1.8492 -1.0449
17646TIP3   OH274428   3.685   4.993   2.729 -0.4286  0.3641  0.0003
17646TIP3    H174429   3.611   4.950   2.687  0.0154  0.1925 -0.6199
17646TIP3    H274430   3.678   5.085   2.701 -0.4039  0.3461 -0.0650
17647TIP3   OH274431   0.507   6.194   3.293 -0.0197  0.5740 -0.2420
17647TIP3    H174432   0.511   6.281   3.253 -0.4727  0.2849 -0.9461
17647TIP3    H274433   0.463   6.140   3.227  0.4559 -0.2369  0.0982
17648TIP3   OH274434   2.698   1.455  14.988 -0.4470  0.2315  0.5734
17648TIP3    H174435   2.713   1.548  14.975 -1.0044  0.2781  0.1992
17648TIP3    H274436   2.651   1.449  15.071 -4.4057  0.7521 -1.3596
17649TIP3   OH274437   3.416   5.762   6.100 -0.4371  0.4706 -0.4439
17649TIP3    H174438   3.492   5.706   6.084 -0.9159 -0.8510  1.5730
17649TIP3    H274439   3.453   5.850   6.105  0.8574 -0.0560 -0.2334
17650TIP3   OH274440   6.399   3.984  13.277 -0.2367 -0.3570 -0.3163
17650TIP3    H174441   6.427   3.933  13.353 -0.4663 -1.9296 -1.2387
17650TIP3    H274442   6.430   4.073  13.294 -0.9058 -0.5054  1.9267
17651TIP3   OH274443   3.113   2.015  14.575  0.0621 -0.0946 -0.4383
17651TIP3    H174444   3.088   2.056  14.658  1.5674  0.5595 -0.2756
17651TIP3    H274445   3.176   2.076  14.537  2.1016 -2.0441 -0.3710
17652TIP3   OH274446   0.215   1.222  12.319 -0.2747  0.2094  0.5579
17652TIP3    H174447   0.225   1.148  12.379 -1.1813  0.0197  0.4885
17652TIP3    H274448   0.134   1.203  12.271  0.5468  0.2568 -0.8785
17653TIP3   OH274449   4.067   6.703  16.803 -0.1445 -0.0597 -0.0971
17653TIP3    H174450   4.089   6.688  16.895  0.4907  3.2590  0.4386
17653TIP3    H274451   4.146   6.679  16.755  1.1202  2.0719  0.7545
17654TIP3   OH274452   6.034   0.661   1.050  0.1187 -0.1880  0.1765
17654TIP3    H174453   5.999   0.750   1.039  0.3071 -0.2052 -0.6657
17654TIP3    H274454   6.118   0.673   1.094 -0.2739 -0.0317  0.9060
17655TIP3   OH274455   6.507   3.145  10.630 -0.7561 -0.6232 -0.0058
17655TIP3    H174456   6.470   3.184  10.551  1.6700 -0.8153 -1.3363
17655TIP3    H274457   6.560   3.071  10.599  0.0222 -0.9124  1.8260
17656TIP3   OH274458   2.640   2.082   6.254 -0.5590  0.5109 -0.1963
17656TIP3    H174459   2.708   2.063   6.319 -1.2575 -1.5725 -0.0253
17656TIP3    H274460   2.570   2.019   6.272 -0.9142  0.0523 -2.7805
17657TIP3   OH274461   6.290   0.128   0.920 -0.1769 -0.0948  0.0556
17657TIP3    H174462   6.256   0.212   0.950  0.9570  0.5183 -0.3167
17657TIP3    H274463   6.213   0.079   0.891 -0.7961  0.9987 -0.1838
17658TIP3   OH274464   5.095   1.627   1.106 -0.0144  0.2402 -0.2485
17658TIP3    H174465   5.023   1.678   1.144  0.1054  0.5619 -0.4434
17658TIP3    H274466   5.170   1.647   1.161 -0.5537 -1.8632  1.3370
17659TIP3   OH274467   2.062   6.458   3.582 -0.0033  0.8734  0.1523
17659TIP3    H174468   2.084   6.528   3.520  1.1545 -0.5098 -1.1034
17659TIP3    H274469   2.147   6.421   3.607 -0.5462  0.4701  1.4790
17660TIP3   OH274470   0.531   3.500  12.768  0.1611  0.1598 -0.0646
17660TIP3    H174471   0.451   3.549  12.751 -0.4205  0.3947  2.8052
17660TIP3    H274472   0.600   3.549  12.723 -1.2850 -0.4457 -3.2200
17661TIP3   OH274473   2.194   4.852  13.384  0.3327 -0.0288 -0.2574
17661TIP3    H174474   2.210   4.767  13.425  0.1893 -0.9469 -2.0442
17661TIP3    H274475   2.102   4.848  13.355 -1.1334  2.3688  3.3006
17662TIP3   OH274476   3.579   1.149  11.808  0.0179  0.0290  0.1313
17662TIP3    H174477   3.561   1.165  11.715 -0.8497 -0.1279  0.2704
17662TIP3    H274478   3.651   1.085  11.807  1.3793  1.4769 -0.4208
17663TIP3   OH274479   4.208   2.297  17.189  0.8670 -0.0334 -0.0983
17663TIP3    H174480   4.239   2.350  17.263 -0.2390  0.2793  0.1612
17663TIP3    H274481   4.113   2.303  17.195  0.7643  0.4046 -1.8423
17664TIP3   OH274482   4.555   6.015   4.446  0.4282  0.6055  0.0864
17664TIP3    H174483   4.538   5.925   4.419  0.1082  0.6843  0.0252
17664TIP3    H274484   4.474   6.043   4.490  0.3508  1.0173 -0.3080
17665TIP3   OH274485   2.329   5.165   3.736 -0.2192 -0.3751 -0.2477
17665TIP3    H174486   2.294   5.216   3.663  2.3680 -1.2840 -2.2686
17665TIP3    H274487   2.292   5.206   3.814 -3.1145  0.6427 -2.0143
17666TIP3   OH274488   3.363   6.819  13.455 -0.4545  0.4171  0.0517
17666TIP3    H174489   3.361   6.858  13.367  1.4238 -1.4770 -0.9105
17666TIP3    H274490   3.341   6.727  13.442  0.1218  0.0394  1.5031
17667TIP3   OH274491   1.137   4.673   1.981 -0.2163 -0.0294 -1.0519
17667TIP3    H174492   1.077   4.747   1.989 -1.6091 -1.0020 -1.8761
17667TIP3    H274493   1.218   4.710   1.947  1.1613  1.9833  3.6365
17668TIP3   OH274494   6.453   4.323   4.371 -0.6151 -0.6750 -0.6776
17668TIP3    H174495   6.459   4.395   4.308  1.6665  0.4194  0.6714
17668TIP3    H274496   6.504   4.252   4.332 -1.1972 -0.8765 -1.0968
17669TIP3   OH274497   2.090   0.627  12.678  0.1575 -0.6042 -0.3872
17669TIP3    H174498   2.121   0.583  12.757 -0.5997 -3.5466 -1.6036
17669TIP3    H274499   2.006   0.666  12.705  1.0206  0.5003  0.8245
17670TIP3   OH274500   6.771   3.008  12.695  0.3937  0.5713 -0.2231
17670TIP3    H174501   6.697   3.048  12.650 -0.4743 -0.6073  0.1187
17670TIP3    H274502   6.812   2.952  12.629 -2.0356 -2.7015  0.8036
17671TIP3   OH274503   2.731   1.677  16.243  0.1570 -0.3362 -0.3410
17671TIP3    H174504   2.795   1.705  16.309  0.4491  1.2043 -1.2070
17671TIP3    H274505   2.768   1.708  16.160 -0.1659 -2.2919 -1.2567
17672TIP3   OH274506   2.583   4.349   4.450  0.2284  0.0155  0.0841
17672TIP3    H174507   2.668   4.332   4.490  0.6258 -0.7539 -1.0317
17672TIP3    H274508   2.553   4.430   4.492  0.6127 -0.7301  1.8782
17673TIP3   OH274509   0.926   1.013  14.810  0.7817 -0.2362  0.2253
17673TIP3    H174510   0.925   1.062  14.893  0.2948  0.9101 -0.4287
17673TIP3    H274511   0.940   1.080  14.743  0.1082 -0.9920 -0.7021
17674TIP3   OH274512   1.978   5.591   0.996  0.3209  0.1598  0.0472
17674TIP3    H174513   1.975   5.564   0.904 -0.3428 -1.1906  0.4314
17674TIP3    H274514   2.067   5.571   1.024  0.3264 -0.0753 -0.1306
17675TIP3   OH274515   2.306   5.827   3.140  0.1345  0.3410  0.1387
17675TIP3    H174516   2.296   5.812   3.046  0.4813  0.5801  0.0617
17675TIP3    H274517   2.387   5.781   3.163  0.6086  1.1438  0.1125
17676TIP3   OH274518   1.227   1.885  16.553 -0.0510 -0.4381  0.2961
17676TIP3    H174519   1.153   1.884  16.493 -0.2868 -0.5308  0.5841
17676TIP3    H274520   1.300   1.851  16.502  0.0204  0.5466 -0.2760
17677TIP3   OH274521   0.838   5.590   0.724 -0.0352 -0.1243  0.1506
17677TIP3    H174522   0.747   5.605   0.751  0.6533  0.3645  2.4244
17677TIP3    H274523   0.835   5.590   0.628 -2.1479  1.6761  0.1408
17678TIP3   OH274524   0.929   0.177   1.425  0.1540 -0.2584  0.2895
17678TIP3    H174525   0.855   0.227   1.459  0.6635  0.0746  0.9345
17678TIP3    H274526   0.892   0.093   1.398 -0.5318  0.0756  0.1818
17679TIP3   OH274527   1.839   0.107  11.232  0.8523 -0.1580  0.1860
17679TIP3    H174528   1.750   0.126  11.203  0.5695 -1.3028  0.2585
17679TIP3    H274529   1.894   0.166  11.181  0.1730 -0.5195 -1.0055
17680TIP3   OH274530   0.691   1.727  11.533 -0.2255 -0.0580  0.2454
17680TIP3    H174531   0.695   1.803  11.590 -0.0946 -0.4906  0.8223
17680TIP3    H274532   0.777   1.726  11.489 -0.9811  1.3266 -1.3715
17681TIP3   OH274533   4.154   4.455  12.810 -0.5552  0.1359  0.0081
17681TIP3    H174534   4.138   4.439  12.717  1.7681  1.4528 -0.7004
17681TIP3    H274535   4.162   4.550  12.817 -1.2980  0.1064  1.6873
17682TIP3   OH274536   4.326   4.368  12.313  0.2460 -1.0390  0.1101
17682TIP3    H174537   4.254   4.347  12.253  0.4934 -1.2137 -0.1231
17682TIP3    H274538   4.336   4.463  12.305 -0.7055 -0.8538  0.9821
17683TIP3   OH274539   1.663   2.598  12.403  0.7550  0.4046 -0.3283
17683TIP3    H174540   1.681   2.691  12.388  1.0898  0.4879  0.5674
17683TIP3    H274541   1.636   2.565  12.317 -1.8089  1.8888 -0.2143
17684TIP3   OH274542   3.189   4.377  11.534  0.2433  0.2974  0.0399
17684TIP3    H174543   3.115   4.360  11.475 -0.0103  1.2137  0.0786
17684TIP3    H274544   3.258   4.318  11.504  0.1090  0.7422 -1.1597
17685TIP3   OH274545   1.199   4.956   5.146 -0.0648 -0.5256  0.1827
17685TIP3    H174546   1.130   4.890   5.147  0.2720 -0.8757  0.3509
17685TIP3    H274547   1.185   5.007   5.225 -0.9054  0.2139 -0.4191
17686TIP3   OH274548   2.325   2.296  12.869  0.0315  0.2492 -0.1490
17686TIP3    H174549   2.246   2.346  12.890 -0.8320 -0.2872 -1.9379
17686TIP3    H274550   2.300   2.205  12.885 -0.1940 -0.0432 -1.9763
17687TIP3   OH274551   5.099   6.167   6.211 -0.1057  0.4974  0.0295
17687TIP3    H174552   5.032   6.187   6.276 -0.7446 -2.4525  0.4173
17687TIP3    H274553   5.065   6.091   6.164  2.3101 -0.1636 -0.8016
17688TIP3   OH274554   1.675   1.067  12.440  0.3478 -0.1019  0.0003
17688TIP3    H174555   1.614   1.106  12.504  1.0539  0.3155  0.4293
17688TIP3    H274556   1.692   0.979  12.473 -2.0371 -1.2586 -1.4917
17689TIP3   OH274557   5.933   0.482  16.621  0.0438 -0.1557  0.1551
17689TIP3    H174558   5.872   0.426  16.574 -0.4902  1.2340 -0.8616
17689TIP3    H274559   5.882   0.521  16.692  0.4829 -1.1072  1.0337
17690TIP3   OH274560   6.171   5.142   3.282 -0.3589 -0.0030  0.0078
17690TIP3    H174561   6.231   5.094   3.339  0.3474  0.9324  0.0552
17690TIP3    H274562   6.207   5.230   3.276 -1.0236  0.2217 -1.0004
17691TIP3   OH274563   0.597   1.653   6.534  0.0280  0.5182 -0.3066
17691TIP3    H174564   0.679   1.606   6.523  0.0076  0.5310 -0.5054
17691TIP3    H274565   0.534   1.606   6.480  0.1925  1.2450 -1.1459
17692TIP3   OH274566   4.311   0.970  14.494 -1.0692 -0.6010  0.0422
17692TIP3    H174567   4.333   0.998  14.406  1.4298 -2.0160  0.1366
17692TIP3    H274568   4.257   1.041  14.529  2.3281  2.6671 -0.7778
17693TIP3   OH274569   1.666   6.469   3.959  0.6158  0.4373 -0.3984
17693TIP3    H174570   1.753   6.509   3.960  0.6201  0.4273  0.6056
17693TIP3    H274571   1.671   6.401   3.892  1.8756 -0.6121  0.7091
17694TIP3   OH274572   6.776   0.707   4.018  0.5282  0.1320  0.2925
17694TIP3    H174573   6.808   0.623   3.984  1.2985  0.2818  0.6435
17694TIP3    H274574   6.823   0.773   3.968 -2.5472  0.4899 -2.5003
17695TIP3   OH274575   5.445   6.812  13.930 -0.1405  0.5319 -0.1630
17695TIP3    H174576   5.515   6.808  13.864 -0.1189  0.8996 -0.1595
17695TIP3    H274577   5.466   6.741  13.990  1.6766  2.1902  1.2839
17696TIP3   OH274578   2.906   6.149  10.896  0.0570  0.2144 -0.1752
17696TIP3    H174579   2.882   6.073  10.950 -1.5461  2.1212  1.9802
17696TIP3    H274580   3.000   6.140  10.882  0.1098 -1.5418  1.0049
17697TIP3   OH274581   0.599   3.920   4.033  0.5159 -0.5891  0.3284
17697TIP3    H174582   0.630   3.986   3.972  1.1014 -0.4976  0.7240
17697TIP3    H274583   0.619   3.836   3.990  0.4262 -0.5206  0.1514
17698TIP3   OH274584   2.617   0.657   4.395 -0.3340 -0.2320 -0.4026
17698TIP3    H174585   2.565   0.705   4.460 -2.4412 -1.4115 -1.1062
17698TIP3    H274586   2.676   0.722   4.358 -1.1995  1.1619  0.5717
17699TIP3   OH274587   4.985   3.654  10.870  0.7413  0.0710  0.0337
17699TIP3    H174588   4.976   3.584  10.805 -0.1154  0.5344 -0.3665
17699TIP3    H274589   5.020   3.610  10.948 -0.0815 -0.8758 -0.1093
17700TIP3   OH274590   6.631   2.649   5.408 -0.5547 -0.1243 -0.5309
17700TIP3    H174591   6.674   2.604   5.336 -0.4619  0.8785 -1.1188
17700TIP3    H274592   6.538   2.627   5.398 -0.4048 -0.9115 -0.2657
17701TIP3   OH274593   6.306   5.520   0.395 -0.3405  0.2069  0.0116
17701TIP3    H174594   6.275   5.430   0.403  1.4224 -0.3533  1.1280
17701TIP3    H274595   6.309   5.536   0.301 -2.4590 -0.2068 -0.1738
17702TIP3   OH274596   1.280   1.444  13.936 -0.4065  0.3012  0.1702
17702TIP3    H174597   1.206   1.393  13.971 -0.0374  0.2822  0.9294
17702TIP3    H274598   1.338   1.457  14.011  1.1821 -1.0824 -0.7435
17703TIP3   OH274599   4.781   5.224   6.050  0.1322 -0.5600 -0.2773
17703TIP3    H174600   4.749   5.138   6.078  0.1995 -0.6615 -0.5096
17703TIP3    H274601   4.783   5.276   6.131 -0.8372 -0.4772 -0.2861
17704TIP3   OH274602   2.552   5.844   2.869  0.7252  0.1392  0.1431
17704TIP3    H174603   2.597   5.833   2.953  1.0641 -1.1676 -0.1822
17704TIP3    H274604   2.543   5.755   2.835 -1.8280  0.3781  0.0131
17705TIP3   OH274605   4.043   2.320  13.113 -0.3856 -0.0615  0.0825
17705TIP3    H174606   3.972   2.259  13.092 -2.1373  2.7837 -3.1604
17705TIP3    H274607   4.013   2.365  13.192 -1.9338  0.5915 -0.8332
17706TIP3   OH274608   4.642   4.436   4.544 -0.1226 -0.6229  0.0199
17706TIP3    H174609   4.643   4.421   4.450 -0.4377 -5.4843  0.5341
17706TIP3    H274610   4.556   4.406   4.573  0.7874 -1.4522  2.0696
17707TIP3   OH274611   5.595   1.439   2.941  0.6606 -0.0077 -0.4074
17707TIP3    H174612   5.588   1.525   2.982 -0.9005 -0.6104  0.6784
17707TIP3    H274613   5.517   1.432   2.886  0.8135 -0.6882 -0.5511
17708TIP3   OH274614   0.598   3.215  17.120 -0.2056  0.1919 -0.9736
17708TIP3    H174615   0.640   3.248  17.040  0.4617  2.0883  0.1006
17708TIP3    H274616   0.639   3.265  17.190 -0.6751 -1.5317  0.5923
17709TIP3   OH274617   4.951   4.636  16.306 -0.9476 -0.8293 -0.1063
17709TIP3    H174618   4.951   4.696  16.232  2.4181 -0.5732 -0.0222
17709TIP3    H274619   4.873   4.582  16.293 -3.9973  3.1165 -0.4156
17710TIP3   OH274620   1.317   2.818   4.591  0.3698  0.1135 -0.5062
17710TIP3    H174621   1.357   2.790   4.509  3.1764  1.1485  0.3990
17710TIP3    H274622   1.390   2.849   4.644 -1.4716  0.4032  2.0352
17711TIP3   OH274623   1.817   4.487   2.483  0.3830 -0.2805  0.4525
17711TIP3    H174624   1.842   4.500   2.391 -1.3377  2.5151  0.2568
17711TIP3    H274625   1.898   4.499   2.531  0.8374  1.0894 -0.5732
17712TIP3   OH274626   1.632   1.898   1.909 -0.3770 -0.1143 -0.4117
17712TIP3    H174627   1.546   1.896   1.866 -1.4474  2.0750  1.4311
17712TIP3    H274628   1.630   1.976   1.963  1.9451 -1.2494  1.4939
17713TIP3   OH274629   2.826   1.013  14.303  0.2350  0.2685 -0.1027
17713TIP3    H174630   2.838   1.073  14.230  0.2923  0.2678 -0.0936
17713TIP3    H274631   2.859   1.061  14.379  1.1271 -0.1132 -0.2313
17714TIP3   OH274632   0.974   1.782   4.782 -0.5331  0.4142 -0.0046
17714TIP3    H174633   1.044   1.840   4.752 -0.3072  0.7951  1.1813
17714TIP3    H274634   1.017   1.724   4.844 -0.7251 -1.1759 -1.3093
17715TIP3   OH274635   4.592   6.324  15.795  0.4388  0.7471  0.1424
17715TIP3    H174636   4.540   6.252  15.759 -0.1298  0.5840  1.2133
17715TIP3    H274637   4.561   6.402  15.749 -2.6628  1.0703  2.4222
17716TIP3   OH274638   3.170   5.531  11.732 -0.0394 -0.0482 -0.5621
17716TIP3    H174639   3.176   5.602  11.669  0.1546 -0.2577 -0.7822
17716TIP3    H274640   3.261   5.512  11.757 -0.1646  0.7393  0.5832
17717TIP3   OH274641   2.573   1.417  12.847  0.0989  0.4163 -0.5588
17717TIP3    H174642   2.515   1.348  12.881 -2.1404  2.6280  0.4942
17717TIP3    H274643   2.641   1.425  12.914  0.2602 -0.5956 -0.5820
17718TIP3   OH274644   2.476   1.878   2.642 -0.0116 -0.2828 -0.5144
17718TIP3    H174645   2.462   1.814   2.572  0.9956 -0.3314 -0.6911
17718TIP3    H274646   2.543   1.838   2.698 -0.9919 -0.3575  0.6363
17719TIP3   OH274647   6.050   3.008  14.971 -0.5556 -0.1162  0.1207
17719TIP3    H174648   5.984   2.961  14.919 -1.8242  2.0551 -0.3717
17719TIP3    H274649   6.098   3.061  14.907  1.5006 -1.3634  0.5273
17720TIP3   OH274650   4.012   6.021   4.139 -0.5917 -0.4228 -0.7146
17720TIP3    H174651   4.010   5.935   4.181 -0.6699  0.2315  0.6668
17720TIP3    H274652   3.942   6.070   4.182  0.5892  0.8814 -0.2346
17721TIP3   OH274653   1.905   6.132   1.217 -0.1949  0.1498  0.2973
17721TIP3    H174654   1.847   6.160   1.288 -1.5835 -1.6577 -0.0639
17721TIP3    H274655   1.862   6.056   1.179  0.2753  1.2980 -2.7976
17722TIP3   OH274656   6.645   1.968  12.623 -0.5110 -0.2995  0.2610
17722TIP3    H174657   6.551   1.962  12.642 -0.9165  2.1431 -0.5602
17722TIP3    H274658   6.678   2.031  12.687 -0.0079  0.8083 -1.0230
17723TIP3   OH274659   1.423   2.439  11.548  0.1179 -0.3763  0.2689
17723TIP3    H174660   1.454   2.433  11.457  1.1402 -0.1505  0.5873
17723TIP3    H274661   1.351   2.502  11.545  1.1728  0.8506 -0.1380
17724TIP3   OH274662   5.221   1.207  15.522  0.0330 -0.5271  0.3121
17724TIP3    H174663   5.156   1.136  15.520 -0.5208 -0.0376 -1.1948
17724TIP3    H274664   5.207   1.251  15.606  1.1770 -2.8621  1.8010
17725TIP3   OH274665   2.250   2.688   3.685  0.1346 -0.2243 -0.6746
17725TIP3    H174666   2.259   2.592   3.680 -0.7824 -0.3566 -0.0667
17725TIP3    H274667   2.157   2.704   3.671  0.3055  0.5996 -0.9205
17726TIP3   OH274668   6.732   5.223   3.733  0.1965  0.1040 -0.0596
17726TIP3    H174669   6.823   5.231   3.761  0.5425  0.1041 -1.1475
17726TIP3    H274670   6.690   5.172   3.802  0.5661  1.6766  1.4175
17727TIP3   OH274671   0.575   6.694  16.236  0.1381  0.0039 -0.5097
17727TIP3    H174672   0.584   6.644  16.155 -0.6816 -1.4337  0.2334
17727TIP3    H274673   0.488   6.732  16.231 -0.3953 -1.0763  0.1871
17728TIP3   OH274674   6.723   2.418  15.073  0.2131 -0.0801 -0.2918
17728TIP3    H174675   6.647   2.361  15.079 -0.1705  0.3356 -1.1047
17728TIP3    H274676   6.687   2.503  15.046  0.7401  0.6143  1.0564
17729TIP3   OH274677   0.260   1.908   1.196 -0.4435 -0.2811 -0.2449
17729TIP3    H174678   0.278   2.000   1.178  1.0695 -0.2326  1.2950
17729TIP3    H274679   0.346   1.866   1.194 -0.6724 -1.0089  2.3676
17730TIP3   OH274680   4.247   2.668  11.061  0.5317 -0.6389 -0.6183
17730TIP3    H174681   4.172   2.671  11.119  0.8992 -1.3690 -0.0854
17730TIP3    H274682   4.225   2.602  10.996  0.4755 -0.4462 -0.7933
17731TIP3   OH274683   1.050   4.200  16.270  0.7336  0.4872  0.2063
17731TIP3    H174684   1.087   4.114  16.294  0.9640  0.9850  1.7570
17731TIP3    H274685   1.047   4.198  16.174  1.1387 -1.0862  0.1821
17732TIP3   OH274686   6.313   0.236  11.625 -0.4923 -0.1296 -0.3888
17732TIP3    H174687   6.357   0.317  11.603 -0.9238  0.4703  0.8999
17732TIP3    H274688   6.259   0.217  11.548 -0.5460  0.9109 -0.6202
17733TIP3   OH274689   5.196   3.089   2.347  0.3650  0.2157  0.4939
17733TIP3    H174690   5.146   3.141   2.284 -0.8103 -1.0277  0.3690
17733TIP3    H274691   5.166   3.120   2.432 -1.3883 -1.1697  0.4302
17734TIP3   OH274692   0.332   0.430  16.294 -0.1612 -0.6280  0.4768
17734TIP3    H174693   0.322   0.404  16.203  0.9682 -2.8299  0.9037
17734TIP3    H274694   0.386   0.361  16.333  1.2759  1.3742  2.3031
17735TIP3   OH274695   0.033   3.253   1.804 -0.0478  0.0329 -0.1366
17735TIP3    H174696   0.017   3.310   1.729 -2.9854  2.4902  2.1053
17735TIP3    H274697   0.102   3.298   1.853  2.1397 -1.7630 -1.4002
17736TIP3   OH274698   1.247   2.244  15.291  0.2325  0.2076 -0.2183
17736TIP3    H174699   1.304   2.316  15.318 -0.5611  0.2767  1.4041
17736TIP3    H274700   1.162   2.286  15.276  0.3941 -0.0101 -1.8675
17737TIP3   OH274701   2.604   0.310  12.651  0.6596 -0.6282 -0.4952
17737TIP3    H174702   2.677   0.276  12.600 -0.7398 -2.9917 -1.0672
17737TIP3    H274703   2.528   0.259  12.622 -0.4703 -1.2298  3.0341
17738TIP3   OH274704   0.026   0.414  12.119  0.4504 -0.6318  0.4856
17738TIP3    H174705   0.012   0.349  12.188 -2.9684 -1.1266 -0.4899
17738TIP3    H274706   0.006   0.498  12.161  0.6160 -0.6806  0.6643
17739TIP3   OH274707   3.918   6.617  16.324  0.3280 -0.1904 -0.1503
17739TIP3    H174708   3.982   6.552  16.352 -0.3462 -0.5812  0.4998
17739TIP3    H274709   3.970   6.684  16.278  1.0954 -0.8770 -0.2962
17740TIP3   OH274710   2.583   2.394  14.574 -0.1217 -0.1582 -0.3699
17740TIP3    H174711   2.562   2.395  14.668  0.3185 -0.3321 -0.2638
17740TIP3    H274712   2.632   2.313  14.562  0.9478  0.4799 -0.4932
17741TIP3   OH274713   5.650   1.825  13.455  0.8030 -0.4968  0.0788
17741TIP3    H174714   5.710   1.889  13.491  1.5807 -0.0357 -1.9043
17741TIP3    H274715   5.567   1.872  13.448  1.1553  0.0428 -0.5860
17742TIP3   OH274716   3.676   6.717  11.459 -0.4175  0.2544 -0.2668
17742TIP3    H174717   3.606   6.659  11.491 -0.9075  0.7199 -0.4701
17742TIP3    H274718   3.755   6.685  11.502 -0.9631  0.5327  1.0180
17743TIP3   OH274719   0.136   1.454  14.271  0.7881 -0.3728  0.2556
17743TIP3    H174720   0.125   1.514  14.345  1.6693 -0.7676  0.7150
17743TIP3    H274721   0.083   1.378  14.294  1.1856 -0.5599  0.5530
17744TIP3   OH274722   1.649   5.043  13.842 -0.0339  0.5129  0.0245
17744TIP3    H174723   1.682   4.992  13.768  0.7624 -0.5315  1.0540
17744TIP3    H274724   1.723   5.099  13.867  0.1350 -0.0543  0.8120
17745TIP3   OH274725   4.217   5.818  13.577  0.4953  0.0366  0.2429
17745TIP3    H174726   4.310   5.823  13.557  0.1179  2.0153 -1.3146
17745TIP3    H274727   4.178   5.773  13.502 -0.0848  1.6350 -0.4826
17746TIP3   OH274728   2.484   0.288   2.539 -0.2323 -0.3673  0.2626
17746TIP3    H174729   2.398   0.331   2.537  0.3088  0.7863 -2.3563
17746TIP3    H274730   2.481   0.227   2.466  0.4321 -1.9796  1.5387
17747TIP3   OH274731   3.832   1.115  11.511  0.1939 -0.0602  0.0989
17747TIP3    H174732   3.861   1.134  11.421  1.2346  0.3454  0.5052
17747TIP3    H274733   3.845   1.197  11.558  0.8815 -0.6307  0.9210
17748TIP3   OH274734   1.131   6.741   5.288  0.2953  0.2232 -0.5723
17748TIP3    H174735   1.088   6.708   5.366  1.3630  1.5471  0.6300
17748TIP3    H274736   1.154   6.663   5.237  1.4824 -0.8342  1.4695
17749TIP3   OH274737   2.176   5.343  15.938 -0.3946 -0.0943  0.2932
17749TIP3    H174738   2.230   5.421  15.952  1.6792 -1.2783 -0.6484
17749TIP3    H274739   2.174   5.299  16.023 -0.5166  0.3210  0.5090
17750TIP3   OH274740   6.532   4.782  14.278  0.0096 -0.4871 -0.3042
17750TIP3    H174741   6.531   4.876  14.296 -1.0708 -0.2299 -1.5216
17750TIP3    H274742   6.621   4.754  14.302  0.2615  0.7756  0.3438
17751TIP3   OH274743   2.476   3.928  13.747  0.1628  0.2809  0.1691
17751TIP3    H174744   2.406   3.972  13.699  1.6986  2.9878  0.2780
17751TIP3    H274745   2.491   3.982  13.824 -0.0343 -2.2448  2.1450
17752TIP3   OH274746   2.767   5.003  12.484  0.2044 -0.5594 -0.5827
17752TIP3    H174747   2.732   5.036  12.401 -1.1315  1.6470  0.7461
17752TIP3    H274748   2.701   4.941  12.514 -0.1216 -0.1248 -0.4005
17753TIP3   OH274749   6.690   5.907   5.163 -0.5425  0.3003 -0.4818
17753TIP3    H174750   6.652   5.832   5.116  1.0210 -1.1019  0.3615
17753TIP3    H274751   6.783   5.902   5.143 -0.3341  1.7025  0.0830
17754TIP3   OH274752   5.012   3.551   0.733  0.0740 -0.5116 -0.1988
17754TIP3    H174753   5.026   3.538   0.640  1.1814 -3.2564  0.2302
17754TIP3    H274754   4.942   3.489   0.755  1.1731 -1.3576  1.0822
17755TIP3   OH274755   2.004   4.176   5.775 -0.5254 -0.5888 -0.1949
17755TIP3    H174756   1.956   4.105   5.732 -0.9813 -0.4277  0.0414
17755TIP3    H274757   2.089   4.139   5.796  1.0707  0.2379 -4.2750
17756TIP3   OH274758   0.410   2.862   5.692 -0.1178 -0.5365  0.1593
17756TIP3    H174759   0.445   2.836   5.777 -0.9194 -0.2734  0.5805
17756TIP3    H274760   0.425   2.786   5.636 -0.1839 -0.9662  0.7115
17757TIP3   OH274761   4.831   3.135   1.082  0.3071 -0.5234 -0.7066
17757TIP3    H174762   4.840   3.229   1.099  0.2296 -0.8132  1.0592
17757TIP3    H274763   4.883   3.093   1.150 -0.8341 -1.8016 -0.5776
17758TIP3   OH274764   2.692   1.957   5.999 -0.4456  0.2775 -0.2955
17758TIP3    H174765   2.669   1.996   6.084 -1.0051 -1.3248  0.3277
17758TIP3    H274766   2.725   1.870   6.021  0.2765  0.1805 -1.6760
17759TIP3   OH274767   3.260   1.425  16.786  0.0867  0.2898  0.2243
17759TIP3    H174768   3.321   1.380  16.843  0.3786  0.7248  0.2547
17759TIP3    H274769   3.209   1.355  16.745  0.5570 -0.0687  0.2526
17760TIP3   OH274770   3.033   4.696  16.272  0.0185 -0.3847 -0.1637
17760TIP3    H174771   3.093   4.626  16.300  1.6008  1.0673  0.2189
17760TIP3    H274772   2.992   4.727  16.353  0.5579  0.2154 -0.1127
17761TIP3   OH274773   2.763   3.111   3.552  0.3887  0.0160  0.0349
17761TIP3    H174774   2.783   3.026   3.593  0.6433 -1.1284 -2.2705
17761TIP3    H274775   2.725   3.087   3.467  0.3292  2.2364 -0.6066
17762TIP3   OH274776   2.983   1.077   1.688  0.2024  0.1911  0.2045
17762TIP3    H174777   2.940   1.131   1.623 -0.0672 -0.3021 -0.0368
17762TIP3    H274778   2.933   0.995   1.689 -1.4865  1.1149  2.9252
17763TIP3   OH274779   0.239   3.406   3.454  0.4458 -0.1090 -0.0900
17763TIP3    H174780   0.224   3.497   3.427  1.3858 -0.3149 -1.4148
17763TIP3    H274781   0.247   3.411   3.549 -0.4074  1.0593 -0.0563
17764TIP3   OH274782   2.599   0.811  11.938  0.5348 -0.6920  0.1517
17764TIP3    H174783   2.570   0.751  11.869 -0.0523  1.2816 -1.4131
17764TIP3    H274784   2.641   0.883  11.891  1.5742 -0.0298  1.9824
17765TIP3   OH274785   1.258   6.691   3.463  0.8112  0.2044  0.4030
17765TIP3    H174786   1.195   6.709   3.393  0.5581 -1.7207  0.0968
17765TIP3    H274787   1.340   6.729   3.433  0.6571 -0.4435 -0.8668
17766TIP3   OH274788   3.778   1.185   4.233 -0.4299 -0.5410 -0.0967
17766TIP3    H174789   3.690   1.206   4.265  0.3439  0.3156  1.6517
17766TIP3    H274790   3.821   1.270   4.225  0.9903 -1.0434  1.5107
17767TIP3   OH274791   6.714   1.435  13.618  0.3524  0.7595 -0.1034
17767TIP3    H174792   6.728   1.436  13.712 -0.7532  1.7953  0.0588
17767TIP3    H274793   6.628   1.474  13.605  1.1493  2.1416 -1.6475
17768TIP3   OH274794   5.198   3.857  16.209 -0.0176 -0.1774  0.0534
17768TIP3    H174795   5.180   3.853  16.115 -1.5291 -0.6716  0.3394
17768TIP3    H274796   5.229   3.769  16.231 -0.1379 -0.2070  0.1044
17769TIP3   OH274797   0.537   2.149   5.378 -0.4340  0.2407 -0.3761
17769TIP3    H174798   0.551   2.068   5.428  1.3610  0.7394  0.0124
17769TIP3    H274799   0.553   2.124   5.287 -0.8326 -0.0317 -0.3762
17770TIP3   OH274800   6.292   2.013   2.848 -0.2002  0.0155 -0.2577
17770TIP3    H174801   6.272   1.923   2.821  3.0010 -0.9558  0.2563
17770TIP3    H274802   6.303   2.008   2.943  1.3263  0.6439 -0.3860
17771TIP3   OH274803   2.384   6.081  11.278 -0.0345  0.3314  0.5153
17771TIP3    H174804   2.377   6.118  11.189  1.2398  0.8046  0.5960
17771TIP3    H274805   2.447   6.010  11.269  1.5638  1.5970  1.3933
17772TIP3   OH274806   6.311   3.997  12.504  0.7764 -0.0927  0.0298
17772TIP3    H174807   6.319   4.045  12.586  0.4825  2.0304 -1.1207
17772TIP3    H274808   6.247   3.928  12.523 -0.3503  1.2101  1.2393
17773TIP3   OH274809   3.197   2.222   2.130 -0.1173 -0.3194  0.4930
17773TIP3    H174810   3.230   2.312   2.124 -2.3311  0.5564  0.6110
17773TIP3    H274811   3.239   2.186   2.208  1.2150  0.4003  0.1343
17774TIP3   OH274812   3.696   1.622   3.291  0.0242  0.0242 -0.1910
17774TIP3    H174813   3.647   1.605   3.211 -1.8663  0.7789  0.7325
17774TIP3    H274814   3.629   1.640   3.357  1.4369 -1.7364  1.8802
17775TIP3   OH274815   1.231   1.232  14.416  0.6724  0.2363 -0.2104
17775TIP3    H174816   1.277   1.216  14.333  1.2580  1.0580 -0.0563
17775TIP3    H274817   1.294   1.208  14.483  0.0609 -0.8026  0.0199
17776TIP3   OH274818   4.778   6.297   2.422 -0.2100  0.1513  0.0935
17776TIP3    H174819   4.825   6.375   2.450 -1.2534  1.4226 -1.4958
17776TIP3    H274820   4.847   6.237   2.393  0.5793  0.6736  0.8381
17777TIP3   OH274821   0.081   0.466  15.816 -0.2077  0.2105 -0.5095
17777TIP3    H174822   0.034   0.408  15.875 -0.5767 -0.2899 -1.2753
17777TIP3    H274823   0.100   0.544  15.869 -0.4314 -0.2658  0.2858
17778TIP3   OH274824   2.415   4.135   5.531  0.1430  0.3397  0.8212
17778TIP3    H174825   2.437   4.160   5.441  0.2897  0.4047  0.8765
17778TIP3    H274826   2.326   4.167   5.543 -1.0597 -2.2165 -0.3155
17779TIP3   OH274827   1.364   6.588  14.535 -0.3553 -0.2639 -0.0855
17779TIP3    H174828   1.289   6.528  14.541  0.3025 -1.2474 -1.3369
17779TIP3    H274829   1.433   6.536  14.495  0.7856  0.8508  0.3890
17780TIP3   OH274830   2.991   4.685   5.472 -0.2441  0.1469 -0.4061
17780TIP3    H174831   2.929   4.682   5.399  0.6535  2.0748 -1.3225
17780TIP3    H274832   2.937   4.676   5.550 -1.5488  0.6497 -1.2181
17781TIP3   OH274833   2.562   3.835   4.555  0.5699  0.4455  0.2904
17781TIP3    H174834   2.550   3.865   4.464  0.7603  1.1486  0.4938
17781TIP3    H274835   2.525   3.906   4.608 -1.0636 -0.6872  0.7319
17782TIP3   OH274836   3.979   3.974  12.583  0.1189 -0.5807  0.0939
17782TIP3    H174837   4.001   4.008  12.496 -3.1433  1.3140 -0.1576
17782TIP3    H274838   4.004   4.044  12.643 -0.9052 -0.3368  0.2561
17783TIP3   OH274839   4.235   5.506  16.694 -0.1573 -0.3719 -0.1150
17783TIP3    H174840   4.148   5.545  16.684  0.6870  1.0955 -2.8747
17783TIP3    H274841   4.290   5.578  16.724  0.6651 -0.4559 -1.3663
17784TIP3   OH274842   3.923   4.746  11.482  0.0980  0.4293  0.0244
17784TIP3    H174843   3.999   4.800  11.506 -0.4093  0.7517  0.9484
17784TIP3    H274844   3.900   4.775  11.393 -0.5432  2.2015  0.7167
17785TIP3   OH274845   3.193   2.043   4.666  0.3360 -0.4347  0.1619
17785TIP3    H174846   3.214   1.950   4.655  2.5794 -0.2966  2.5042
17785TIP3    H274847   3.244   2.070   4.742 -1.1824  2.4601  0.2588
17786TIP3   OH274848   2.125   1.791   4.688 -0.4059  0.1140 -0.1083
17786TIP3    H174849   2.078   1.718   4.728 -0.3633  1.1961  2.0649
17786TIP3    H274850   2.216   1.781   4.719 -0.0631  0.2480 -1.0446
17787TIP3   OH274851   0.134   2.084   2.492  0.9941  0.2047 -0.2565
17787TIP3    H174852   0.113   2.156   2.432 -0.3113 -1.6805 -2.2110
17787TIP3    H274853   0.219   2.052   2.462  2.5006  2.0038  1.8033
17788TIP3   OH274854   3.179   2.351   1.520  0.3290  0.1279  0.3580
17788TIP3    H174855   3.085   2.361   1.528  0.1103 -0.0963 -1.4725
17788TIP3    H274856   3.204   2.296   1.595 -1.0410 -0.1526  0.6285
17789TIP3   OH274857   4.814   2.544  12.365  0.0040  0.3270  0.3287
17789TIP3    H174858   4.866   2.616  12.400  0.6581  0.4640 -0.8737
17789TIP3    H274859   4.723   2.572  12.375  0.2469  1.2256  0.0664
17790TIP3   OH274860   4.158   1.760   4.532  0.1182  0.5515 -0.5063
17790TIP3    H174861   4.135   1.732   4.621 -0.4480  1.6761 -0.2665
17790TIP3    H274862   4.244   1.722   4.516 -0.2800 -0.6456  0.0598
17791TIP3   OH274863   0.319   3.456   2.288 -0.0840 -0.0899  0.9692
17791TIP3    H174864   0.260   3.488   2.356 -0.3938  2.2168 -0.3071
17791TIP3    H274865   0.401   3.504   2.304 -0.5259  1.4175 -0.9195
17792TIP3   OH274866   3.108   1.372  12.230 -0.3273  0.5319 -0.0906
17792TIP3    H174867   3.087   1.465  12.242  0.5268  0.6005  1.0279
17792TIP3    H274868   3.203   1.368  12.234 -0.4000 -0.5785  1.5175
17793TIP3   OH274869   3.523   3.880  12.343  0.1180 -0.2567  0.2897
17793TIP3    H174870   3.451   3.895  12.282 -1.2107  2.4441  2.3400
17793TIP3    H274871   3.590   3.944  12.318  0.1258 -0.0512  0.8222
17794TIP3   OH274872   5.662   1.581  13.022 -0.8544 -0.2109  0.2381
17794TIP3    H174873   5.711   1.499  13.012 -0.9387 -0.3511  0.9327
17794TIP3    H274874   5.622   1.595  12.937 -1.7863 -1.5002  0.4294
17795TIP3   OH274875   3.943   2.304   3.361 -0.4625  0.0365 -0.0469
17795TIP3    H174876   3.889   2.255   3.299  0.6059  0.2038 -1.1613
17795TIP3    H274877   3.883   2.332   3.429 -1.6381 -0.3396 -0.9005
17796TIP3   OH274878   5.928   1.554   5.473  0.4115 -0.1476 -0.5474
17796TIP3    H174879   5.978   1.554   5.391 -1.3069  0.8280 -1.6550
17796TIP3    H274880   5.994   1.572   5.540  1.9725 -1.5462 -1.6050
17797TIP3   OH274881   5.164   1.446   0.012 -0.2375  0.3575  0.0345
17797TIP3    H174882   5.179   1.367  -0.041 -1.4002 -0.9583  1.5677
17797TIP3    H274883   5.123   1.508  -0.049 -0.8852 -0.8581 -0.8133
17798TIP3   OH274884   4.657   1.305  13.178 -0.0174  0.2302 -1.1266
17798TIP3    H174885   4.628   1.363  13.249  0.0227  0.0775 -0.9851
17798TIP3    H274886   4.748   1.330  13.162  0.1354 -0.0963 -0.7635
17799TIP3   OH274887   5.401   3.153   1.995  0.1953  0.4525  0.2142
17799TIP3    H174888   5.385   3.138   2.088  0.0406 -1.4529 -0.0762
17799TIP3    H274889   5.455   3.232   1.992  2.3775 -0.8290  2.1251
17800TIP3   OH274890   3.682   1.317   5.328  0.5381 -0.5232 -0.4233
17800TIP3    H174891   3.646   1.403   5.349  1.8277 -0.2050  0.6757
17800TIP3    H274892   3.608   1.267   5.295 -0.8325  0.2215  1.3302
17801TIP3   OH274893   6.289   2.985  11.773  0.4201 -0.0619 -0.4411
17801TIP3    H174894   6.228   3.059  11.773  0.0080 -0.2025  3.0284
17801TIP3    H274895   6.373   3.024  11.796  0.0975 -0.6228  1.9187
17802TIP3   OH274896   6.038   3.825  12.265 -0.4510  0.1291  0.4888
17802TIP3    H174897   5.985   3.747  12.249 -0.1339 -0.0139  0.0972
17802TIP3    H274898   6.054   3.824  12.359 -3.0207  1.4235  1.0095
17803TIP3   OH274899   0.421   5.137  15.460 -0.6842 -0.6791  0.1829
17803TIP3    H174900   0.405   5.192  15.537  0.0679 -0.7226  0.3825
17803TIP3    H274901   0.435   5.049  15.495 -0.6675 -0.7610 -0.0283
17804TIP3   OH274902   4.962   4.632  15.150 -0.7742  0.5807  0.6643
17804TIP3    H174903   5.007   4.552  15.123 -0.0601  1.3421 -0.4797
17804TIP3    H274904   4.916   4.608  15.230 -1.9973 -1.4398 -0.5810
17805TIP3   OH274905   4.558   2.641  14.989 -0.1577  0.2009 -0.0880
17805TIP3    H174906   4.644   2.639  14.947 -0.0485 -0.2931  0.1597
17805TIP3    H274907   4.544   2.734  15.008  0.3834  0.2713 -0.0041
17806TIP3   OH274908   1.054   5.926  15.625 -0.1352 -0.6608  0.2179
17806TIP3    H174909   1.017   6.005  15.665  0.9527 -0.3388  0.6287
17806TIP3    H274910   1.136   5.955  15.586 -0.6698 -1.1805 -1.4105
17807TIP3   OH274911   5.464   0.293   1.741 -0.0160  0.0999  0.1988
17807TIP3    H174912   5.430   0.321   1.826  0.5430  0.6301  0.2605
17807TIP3    H274913   5.406   0.334   1.677 -0.9686 -1.0027  0.3137
17808TIP3   OH274914   2.173   4.973   2.944 -0.4303  0.1154  0.0237
17808TIP3    H174915   2.238   5.026   2.897  0.0106  0.0013  0.4860
17808TIP3    H274916   2.222   4.936   3.018 -0.7240 -0.9441 -0.2941
17809TIP3   OH274917   1.511   1.990  11.602 -0.2758  0.7795  0.2522
17809TIP3    H174918   1.572   1.917  11.596 -1.4788 -0.4471  1.9920
17809TIP3    H274919   1.563   2.062  11.638  1.0216  0.9995 -1.8635
17810TIP3   OH274920   4.940   4.230  10.986 -0.3084  0.3847 -0.9653
17810TIP3    H174921   4.978   4.145  10.963  0.3747  0.4305 -0.0379
17810TIP3    H274922   4.859   4.208  11.032  2.0510 -0.0184  3.4859
17811TIP3   OH274923   1.276   1.156   1.844  0.1821 -0.2941  0.0207
17811TIP3    H174924   1.187   1.185   1.826  1.1235  1.3493 -2.6338
17811TIP3    H274925   1.267   1.090   1.912 -3.0433 -0.1911 -0.1728
17812TIP3   OH274926   2.159   4.412   0.611  0.0555 -0.0319 -0.3759
17812TIP3    H174927   2.211   4.458   0.677  0.1484  0.1445 -0.5732
17812TIP3    H274928   2.222   4.356   0.566 -0.1824 -0.9127  0.3518
17813TIP3   OH274929   5.481   1.835  16.533  0.4104  0.3804 -0.0884
17813TIP3    H174930   5.484   1.741  16.512 -2.0706  0.2883 -0.3620
17813TIP3    H274931   5.515   1.878  16.454  1.3206 -0.2618 -0.0625
17814TIP3   OH274932   1.071   4.610   2.371  0.0342  0.0958 -0.0858
17814TIP3    H174933   1.057   4.550   2.297 -2.0330  0.4469 -0.0148
17814TIP3    H274934   1.113   4.686   2.332  0.5601 -0.4295 -0.5794
17815TIP3   OH274935   2.715   1.074  11.893 -0.0234  0.2680  0.4567
17815TIP3    H174936   2.809   1.057  11.882 -0.4134 -2.4744  0.6007
17815TIP3    H274937   2.704   1.089  11.987 -0.0325 -2.3840  0.9555
17816TIP3   OH274938   1.503   3.878   1.056  0.0874 -0.4476 -0.2354
17816TIP3    H174939   1.509   3.937   1.131 -1.1419 -1.7998  0.9813
17816TIP3    H274940   1.508   3.790   1.093  0.5666 -1.1539 -1.8659
17817TIP3   OH274941   0.575   3.481   5.589 -0.1297  0.8196  0.2987
17817TIP3    H174942   0.623   3.542   5.533  0.5039 -0.4828 -0.5997
17817TIP3    H274943   0.642   3.431   5.635 -0.6231  0.0798  0.2423
17818TIP3   OH274944   6.516   3.540  10.854 -0.5665  0.3189 -0.7453
17818TIP3    H174945   6.589   3.543  10.793  0.6088 -0.2745  0.5776
17818TIP3    H274946   6.542   3.598  10.926 -0.4759 -1.3930  0.6712
17819TIP3   OH274947   0.086   6.261  16.290  0.0868 -0.4527  0.1032
17819TIP3    H174948   0.134   6.186  16.326 -0.6057 -0.3147  1.3806
17819TIP3    H274949  -0.005   6.245  16.315 -0.9384 -1.5739 -3.7332
17820TIP3   OH274950   6.632   2.930  14.046  0.2870  0.0867 -0.0923
17820TIP3    H174951   6.711   2.963  14.003  1.4221 -0.8315  1.1942
17820TIP3    H274952   6.581   2.891  13.975  0.3176  1.8864 -1.1576
17821TIP3   OH274953   5.875   1.182   2.419 -0.6362  0.1647  0.3019
17821TIP3    H174954   5.813   1.254   2.426 -1.2949 -0.4528  0.9637
17821TIP3    H274955   5.949   1.218   2.370 -1.6138  0.8462 -0.7017
17822TIP3   OH274956   1.921   3.427  15.301  0.2918 -0.5795  0.3446
17822TIP3    H174957   1.866   3.401  15.227  0.2594  1.9785 -0.6380
17822TIP3    H274958   1.860   3.438  15.374 -0.5834  1.8960 -0.6459
17823TIP3   OH274959   4.502   0.201  13.417 -0.1011 -0.4804  0.3992
17823TIP3    H174960   4.465   0.116  13.440  0.4713 -1.5475 -2.1988
17823TIP3    H274961   4.579   0.179  13.363  0.9358  1.6941  0.8829
17824TIP3   OH274962   4.851   2.165   1.932 -0.0082  0.4383 -0.0869
17824TIP3    H174963   4.936   2.131   1.960  0.2952  1.2678  0.0172
17824TIP3    H274964   4.806   2.188   2.013  0.1391  1.1095 -0.1905
17825TIP3   OH274965   4.582   3.834   3.025 -0.1628 -0.0758 -0.2202
17825TIP3    H174966   4.513   3.821   3.090  2.0366  1.3770  2.6495
17825TIP3    H274967   4.579   3.928   3.005  0.6938 -0.0664 -0.3454
17826TIP3   OH274968   5.320   5.092   2.979  0.2373  0.0906  0.4759
17826TIP3    H174969   5.234   5.054   2.957 -0.1249 -0.0809  2.0703
17826TIP3    H274970   5.335   5.157   2.910 -0.8169 -0.4057 -0.2654
17827TIP3   OH274971   4.147   4.342  13.316 -0.1608 -0.1521 -0.3369
17827TIP3    H174972   4.199   4.310  13.390 -0.9346  1.9617  1.1931
17827TIP3    H274973   4.211   4.359  13.247  1.2087  2.0063  1.3652
17828TIP3   OH274974   3.006   0.688   6.305 -0.3180 -0.4236  0.1231
17828TIP3    H174975   2.925   0.680   6.356 -0.3785 -0.0431  0.0902
17828TIP3    H274976   3.058   0.612   6.331 -0.3167 -0.1949  0.8151
17829TIP3   OH274977   1.946   4.163  12.330 -0.1615  0.3082 -0.4167
17829TIP3    H174978   2.008   4.169  12.258  0.2468 -2.4460 -0.4264
17829TIP3    H274979   1.999   4.179  12.409  0.7299 -2.2754 -0.4056
17830TIP3   OH274980   2.464   4.598  10.890 -0.7413 -0.7993 -0.1501
17830TIP3    H174981   2.463   4.607  10.794 -0.9045 -0.2663 -0.1050
17830TIP3    H274982   2.473   4.688  10.921  0.3914 -1.0619  0.3204
17831TIP3   OH274983   3.546   3.871  16.056  0.1930 -0.5794 -0.2306
17831TIP3    H174984   3.577   3.898  15.970 -0.1608  0.7681  0.0311
17831TIP3    H274985   3.600   3.922  16.117 -2.3924  1.8610  0.2468
17832TIP3   OH274986   2.658   3.675   1.418 -0.2086 -0.1480 -0.1917
17832TIP3    H174987   2.615   3.738   1.360 -1.4205 -0.9223 -0.1603
17832TIP3    H274988   2.587   3.621   1.452  0.2353  1.1718  3.1967
17833TIP3   OH274989   1.540   1.527   1.016  0.9585 -0.2977  0.1806
17833TIP3    H174990   1.490   1.489   1.088  2.5652 -0.6362  1.1596
17833TIP3    H274991   1.557   1.453   0.958  0.2299 -0.1497 -0.2431
17834TIP3   OH274992   0.680   1.640   1.296 -0.0515 -0.7108 -0.1881
17834TIP3    H174993   0.729   1.558   1.302 -0.0723 -0.6542  0.8373
17834TIP3    H274994   0.593   1.618   1.328 -0.1748 -0.3726 -0.2841
17835TIP3   OH274995   3.784   6.497   5.357  0.0472 -0.1434 -0.4664
17835TIP3    H174996   3.830   6.423   5.397  1.0487  0.1450 -1.0265
17835TIP3    H274997   3.853   6.562   5.342 -0.6966  0.6226 -0.6212
17836TIP3   OH274998   5.594   5.028   2.018  0.0427  0.4232 -0.1614
17836TIP3    H174999   5.685   5.047   1.993 -0.3040  1.5602 -0.5824
17836TIP3    H275000   5.590   5.054   2.110  0.4298 -0.6964  0.1955
17837TIP3   OH275001   6.788   6.778  12.115  0.0158  0.4842 -0.2634
17837TIP3    H175002   6.774   6.684  12.113 -0.4787  0.5022  1.0829
17837TIP3    H275003   6.716   6.815  12.065  1.3685  0.0850 -2.6318
17838TIP3   OH275004   5.857   1.859  16.412 -0.2928 -0.2157 -0.6035
17838TIP3    H175005   5.825   1.808  16.338 -0.8893 -0.7027 -0.0206
17838TIP3    H275006   5.841   1.804  16.489 -3.1186  1.7098  0.3502
17839TIP3   OH275007   5.666   1.811   4.060 -0.1407 -0.3448  0.6023
17839TIP3    H175008   5.679   1.721   4.088 -2.5188 -0.3052  2.1728
17839TIP3    H275009   5.625   1.854   4.135 -0.0790  1.7666 -0.4804
17840TIP3   OH275010   6.397   5.099  15.020  0.1678  0.3553 -0.5104
17840TIP3    H175011   6.351   5.127  14.941  0.5715  0.9887 -0.5244
17840TIP3    H275012   6.355   5.016  15.043 -0.9123  0.8605 -0.5784
17841TIP3   OH275013   3.266   3.921  16.922 -0.3330 -0.0230 -0.1247
17841TIP3    H175014   3.278   3.970  16.841 -2.1966  1.1536  0.2363
17841TIP3    H275015   3.354   3.908  16.956  0.4922 -0.5232 -2.3019
17842TIP3   OH275016   3.760   1.452  13.346  0.0612  0.4208  0.1512
17842TIP3    H175017   3.742   1.447  13.253 -0.2579  0.3409  0.2170
17842TIP3    H275018   3.801   1.368  13.367 -0.2883  0.2531  0.1720
17843TIP3   OH275019   1.904   0.398   6.737  0.5172  0.0138 -0.4001
17843TIP3    H175020   1.837   0.465   6.741  0.2215 -0.3343  1.6212
17843TIP3    H275021   1.987   0.446   6.743  0.3212  0.2644  0.5052
17844TIP3   OH275022   2.139   0.655   2.296  0.3646  0.3441  0.6651
17844TIP3    H175023   2.189   0.573   2.292  1.7860  1.2462 -1.3164
17844TIP3    H275024   2.063   0.639   2.241  1.2253  0.6899 -0.6633
17845TIP3   OH275025   1.709   4.602   1.366 -0.1677 -0.0928 -0.0957
17845TIP3    H175026   1.704   4.509   1.344 -0.1997  0.1317 -1.1072
17845TIP3    H275027   1.688   4.647   1.284 -0.9122  0.8051  0.5618
17846TIP3   OH275028   2.180   4.101  16.631  0.0982 -0.6649  0.4554
17846TIP3    H175029   2.136   4.169  16.682  0.6047 -0.1053  0.1669
17846TIP3    H275030   2.151   4.019  16.670 -1.2520 -0.3240  0.2205
17847TIP3   OH275031   6.592   5.460  15.295  0.4620 -0.2029 -0.0968
17847TIP3    H175032   6.648   5.497  15.364 -0.1099  1.4832 -0.5040
17847TIP3    H275033   6.516   5.426  15.342  0.8290 -0.5662  0.2471
17848TIP3   OH275034   1.253   0.469  14.991 -0.0375 -0.3611  0.0256
17848TIP3    H175035   1.195   0.397  14.965  0.4886 -1.6581  2.1996
17848TIP3    H275036   1.329   0.426  15.029 -0.7927  1.1778  3.8309
17849TIP3   OH275037   1.626   0.791   0.927  0.0041  0.2773 -0.1330
17849TIP3    H175038   1.619   0.711   0.978  0.3183  0.4211  0.1405
17849TIP3    H275039   1.579   0.857   0.979 -0.8108  0.1331 -0.6646
17850TIP3   OH275040   4.802   1.659   1.610 -0.1667  0.2193 -0.3539
17850TIP3    H175041   4.737   1.629   1.673  0.8021 -0.4047  0.3916
17850TIP3    H275042   4.777   1.618   1.527 -1.3752  0.9346 -0.3534
17851TIP3   OH275043   0.092   6.315  15.279  0.3411 -0.2561 -0.3859
17851TIP3    H175044   0.141   6.233  15.284 -0.5692 -0.7456  0.7305
17851TIP3    H275045   0.160   6.383  15.288  0.8688 -0.9169  0.8500
17852TIP3   OH275046   1.786   0.417  12.370  0.5231  0.0832 -0.0455
17852TIP3    H175047   1.847   0.443  12.439  0.7549  3.3899 -1.3479
17852TIP3    H275048   1.699   0.438  12.406  0.2659 -2.0729  0.7425
17853TIP3   OH275049   2.586   4.738  16.111  0.2146 -0.3684 -0.4945
17853TIP3    H175050   2.559   4.829  16.113 -0.4375 -0.4152 -3.2514
17853TIP3    H275051   2.681   4.741  16.120  0.0331  0.2783  2.3710
17854TIP3   OH275052   4.577   1.283   3.911 -0.3581  0.5916  0.6768
17854TIP3    H175053   4.620   1.357   3.954  0.4463 -0.2990  1.4700
17854TIP3    H275054   4.639   1.210   3.920 -1.6832 -0.5328  1.1496
17855TIP3   OH275055   3.180   0.270  13.104  0.3779  0.2574  0.2352
17855TIP3    H175056   3.095   0.310  13.086 -0.6228 -1.6938  0.3531
17855TIP3    H275057   3.167   0.223  13.186  2.0277  1.0838  1.0093
17856TIP3   OH275058   0.746   4.242   5.240  0.2426  0.3212  0.7141
17856TIP3    H175059   0.659   4.229   5.204 -0.1243  1.1378  1.2800
17856TIP3    H275060   0.806   4.215   5.170 -0.4378 -1.4799  0.7727
17857TIP3   OH275061   5.073   0.738   3.151  0.3851 -0.3231 -0.0500
17857TIP3    H175062   5.113   0.656   3.183 -2.4338 -1.6240  0.4070
17857TIP3    H275063   5.050   0.719   3.061 -2.6451 -1.0904  0.7870
17858TIP3   OH275064   5.173   5.061   1.285  0.3635  0.2583 -1.1212
17858TIP3    H175065   5.218   4.985   1.248 -2.4494 -2.0746 -0.2029
17858TIP3    H275066   5.198   5.134   1.229  1.0050 -1.9092 -3.8796
17859TIP3   OH275067   6.813   2.750   3.038  0.2351 -0.4920  0.0185
17859TIP3    H175068   6.834   2.657   3.049  0.1483 -0.6069 -0.7359
17859TIP3    H275069   6.782   2.757   2.948  0.3774  0.2974  0.0234
17860TIP3   OH275070   4.207   3.877   2.935 -0.0689  0.4309 -0.5968
17860TIP3    H175071   4.140   3.941   2.962  0.3581  0.6059  0.0917
17860TIP3    H275072   4.158   3.804   2.899 -0.6291  0.5989 -0.1871
17861TIP3   OH275073   1.069   2.678  10.404 -0.2655  0.7798  0.2515
17861TIP3    H175074   1.141   2.723  10.448 -0.5511  0.3017  1.2482
17861TIP3    H275075   1.042   2.737  10.334  0.2445  1.5411  0.6919
17862TIP3   OH275076   4.483   4.598  15.976  0.1208  0.4710  0.5608
17862TIP3    H175077   4.569   4.640  15.979  0.5072 -0.0152 -1.6352
17862TIP3    H275078   4.495   4.521  15.919 -2.0122  1.1333 -0.9462
17863TIP3   OH275079   6.439   2.033   0.779  0.0725  0.2169 -0.1718
17863TIP3    H175080   6.355   2.078   0.768  0.1561  0.8935  1.5442
17863TIP3    H275081   6.485   2.047   0.697  0.2286  3.6737  0.3571
17864TIP3   OH275082   0.089   3.651   5.129  0.2475 -0.2443  0.4345
17864TIP3    H175083   0.166   3.683   5.177  0.2400  1.3540 -0.5641
17864TIP3    H275084   0.016   3.664   5.189  0.6638 -1.2938  1.1952
17865TIP3   OH275085   0.601   1.503   0.585  0.3755  0.4467  0.2923
17865TIP3    H175086   0.655   1.490   0.663 -0.7303  1.6942  1.3084
17865TIP3    H275087   0.664   1.501   0.513  1.3865 -0.9820  1.1608
17866TIP3   OH275088   5.383   5.695  16.073 -0.3540  0.0723  0.3943
17866TIP3    H175089   5.361   5.631  16.006 -0.6233 -1.2295  1.6858
17866TIP3    H275090   5.334   5.774  16.048 -1.5501 -0.8200 -0.1929
17867TIP3   OH275091   5.630   3.581  17.151  0.4489  0.2057 -0.7791
17867TIP3    H175092   5.611   3.665  17.194  2.1710  0.6929 -0.9035
17867TIP3    H275093   5.723   3.566  17.168 -0.1579 -2.5738  0.7391
17868TIP3   OH275094   6.171   4.453  12.373  0.2085  0.4145  0.0638
17868TIP3    H175095   6.149   4.530  12.426 -2.2368  0.8778 -1.4522
17868TIP3    H275096   6.214   4.489  12.295 -0.9100  0.2685 -0.6354
17869TIP3   OH275097   4.358   1.301  14.121  0.1371 -0.2737  0.2169
17869TIP3    H175098   4.377   1.378  14.174  1.8141 -0.8953  0.5818
17869TIP3    H275099   4.272   1.272  14.151 -0.9234  1.8932 -0.5211
17870TIP3   OH275100   4.234   3.765  12.607 -0.2121  0.8799  0.9108
17870TIP3    H175101   4.308   3.789  12.662  0.2049 -0.8712  1.1774
17870TIP3    H275102   4.246   3.815  12.526  1.9349 -0.2320  0.4781
17871TIP3   OH275103   0.413   1.549  15.011  0.0612 -0.4315 -0.4113
17871TIP3    H175104   0.377   1.506  14.934  1.0798  0.6712 -1.5597
17871TIP3    H275105   0.336   1.582  15.058 -0.5406  0.1817 -1.7673
17872TIP3   OH275106   0.626   1.706  14.990  0.0198 -0.4253  0.1795
17872TIP3    H175107   0.713   1.666  14.986 -0.0895 -0.6592  0.1302
17872TIP3    H275108   0.565   1.632  14.993 -0.3544 -0.3402 -2.7172
17873TIP3   OH275109   4.631   1.840  14.776  0.7013 -0.4972 -0.4437
17873TIP3    H175110   4.595   1.771  14.832  1.0569 -0.2782  0.0588
17873TIP3    H275111   4.554   1.889  14.747  0.4348 -1.1453 -0.8776
17874TIP3   OH275112   6.587   0.028  14.830  0.6507 -0.7068  0.0761
17874TIP3    H175113   6.682   0.030  14.841  0.4945 -1.6557  2.2692
17874TIP3    H275114   6.566  -0.065  14.825 -0.2125 -0.5179  0.0395
17875TIP3   OH275115   3.324   6.091   3.353  0.7326  0.1300  0.4735
17875TIP3    H175116   3.314   6.041   3.272  1.8334  0.4936  0.1011
17875TIP3    H275117   3.352   6.178   3.325 -0.2724  0.6952  1.1725
17876TIP3   OH275118   4.417   0.664  16.894  0.6041 -0.1266 -0.2364
17876TIP3    H175119   4.493   0.649  16.949  0.2649  0.4244  0.3911
17876TIP3    H275120   4.437   0.619  16.812  0.1464 -2.9993  1.1107
17877TIP3   OH275121   5.198   1.326  12.990 -0.4874  0.5688 -0.0837
17877TIP3    H175122   5.220   1.252  13.046 -2.8522 -0.8563 -0.8889
17877TIP3    H275123   5.251   1.313  12.912 -0.2847  0.1846  0.1102
17878TIP3   OH275124   5.220   1.579   3.304  0.1102  0.4309 -0.5966
17878TIP3    H175125   5.249   1.598   3.393 -1.9546 -2.3786  0.7886
17878TIP3    H275126   5.154   1.646   3.285  1.8858  2.2133 -0.8759
17879TIP3   OH275127   4.201   4.183   3.581 -0.4493 -0.5158 -0.2032
17879TIP3    H175128   4.153   4.164   3.662 -1.1095  1.9398  0.0568
17879TIP3    H275129   4.278   4.126   3.586 -0.5234 -0.5384  2.1080
17880TIP3   OH275130   2.330   6.259   3.647  0.0495  0.4829 -0.9636
17880TIP3    H175131   2.408   6.206   3.663 -0.6613 -0.1172  0.7294
17880TIP3    H275132   2.265   6.197   3.615 -0.1443  0.7368 -1.0650
17881TIP3   OH275133   0.089   1.931  16.229  0.0001 -0.4340  0.3341
17881TIP3    H175134   0.099   2.017  16.189 -0.6647 -0.4802  0.0645
17881TIP3    H275135   0.013   1.939  16.286  1.4768 -0.0904  2.3675
17882TIP3   OH275136   2.754   5.074  16.583  0.1463 -0.6612  0.3335
17882TIP3    H175137   2.821   5.006  16.581  0.0889 -0.7365  0.8946
17882TIP3    H275138   2.800   5.151  16.617  0.5290 -0.0491 -1.4133
17883TIP3   OH275139   0.507   1.385   2.245  0.1167 -0.6411 -0.3244
17883TIP3    H175140   0.509   1.301   2.291 -0.3322 -1.1894 -1.2927
17883TIP3    H275141   0.585   1.385   2.190  0.9716  0.2664  0.8304
17884TIP3   OH275142   0.133   5.435   3.289  0.4639 -0.1775  0.4273
17884TIP3    H175143   0.214   5.468   3.252 -0.4695 -0.2561 -1.8084
17884TIP3    H275144   0.129   5.344   3.261 -1.9970  0.6963 -2.5914
17885TIP3   OH275145   4.117   3.157   3.552 -0.6694 -0.5987  0.1473
17885TIP3    H175146   4.170   3.108   3.616  1.3320 -0.6023 -1.3986
17885TIP3    H275147   4.139   3.118   3.468 -2.1278  0.3452 -0.7077
17886TIP3   OH275148   6.737   2.282   2.834  0.3583 -0.0409  0.0758
17886TIP3    H175149   6.693   2.266   2.750  0.8265  0.9717 -0.3786
17886TIP3    H275150   6.682   2.237   2.898 -0.1427 -0.6240 -0.7393
17887TIP3   OH275151   3.408   1.042  17.206 -0.3707 -0.1362  0.0355
17887TIP3    H175152   3.398   1.007  17.117 -1.0792  0.5103 -0.1606
17887TIP3    H275153   3.324   1.085  17.223  0.9119  2.7548 -0.3523
17888TIP3   OH275154   2.023   3.366  14.896  0.5087  0.0835  0.2921
17888TIP3    H175155   2.107   3.324  14.876  1.0156  0.3546  1.7199
17888TIP3    H275156   2.024   3.378  14.991  0.1351  2.7423  0.0565
17889TIP3   OH275157   4.165   0.831   4.079  0.7659 -0.2702  0.4514
17889TIP3    H175158   4.260   0.829   4.082  0.8213  1.1312  0.3521
17889TIP3    H275159   4.144   0.907   4.025 -0.4051  0.3125  1.6498
17890TIP3   OH275160   6.532   2.180   2.987  0.0934  0.0303  0.1083
17890TIP3    H175161   6.504   2.089   2.990  0.5114 -0.1299 -0.5917
17890TIP3    H275162   6.464   2.228   3.034 -1.2425 -0.3625 -1.3450
17891TIP3   OH275163   0.496   5.939  15.447 -0.3449 -0.0466  0.3463
17891TIP3    H175164   0.556   5.928  15.521 -2.1183  0.0115  1.8637
17891TIP3    H275165   0.483   6.034  15.440 -0.4207 -0.0690  0.1737
17892TIP3   OH275166   4.131   6.338   5.100 -0.2972  0.5089 -0.3864
17892TIP3    H175167   4.201   6.353   5.164 -1.4015 -2.5485  1.7426
17892TIP3    H275168   4.177   6.312   5.020  1.0394  2.6994 -0.4329
17893TIP3   OH275169   4.144   0.619   4.836 -0.1605 -0.0052 -0.2208
17893TIP3    H175170   4.062   0.633   4.884  0.4255  1.2988  0.4666
17893TIP3    H275171   4.122   0.639   4.745  0.0428  3.6878  0.3552
17894TIP3   OH275172   0.917   4.530   3.031 -0.0318 -0.3912  0.3767
17894TIP3    H175173   0.946   4.616   3.001 -0.1456 -0.4738  0.0199
17894TIP3    H275174   0.955   4.520   3.118  2.3071 -1.1279 -0.6637
17895TIP3   OH275175   0.444   3.833  15.761  0.2592 -0.6592 -0.3305
17895TIP3    H175176   0.362   3.876  15.783 -0.0717 -1.1284 -0.6162
17895TIP3    H275177   0.494   3.832  15.843  0.5329  0.7948 -0.4619
17896TIP3   OH275178   2.904   4.646   3.246 -0.4050 -0.3341  0.2090
17896TIP3    H175179   2.810   4.632   3.244 -0.3763 -0.6563  0.8062
17896TIP3    H275180   2.933   4.606   3.328  0.4055 -1.2555 -0.4810
17897TIP3   OH275181   0.631   2.585  14.633  0.4237 -0.1847  0.2730
17897TIP3    H175182   0.600   2.606  14.545 -2.8035 -2.7730  0.5983
17897TIP3    H275183   0.723   2.561  14.620  0.0413 -0.5574 -2.4246
17898TIP3   OH275184   1.636   4.036   4.012  0.0356  0.0058  0.2549
17898TIP3    H175185   1.631   4.119   4.059 -2.5406  0.7901 -1.2534
17898TIP3    H275186   1.603   3.972   4.075  0.6370  0.3278  0.9204
17899TIP3   OH275187   2.778   0.188  16.958  0.0503 -0.3208 -0.1638
17899TIP3    H175188   2.823   0.195  16.874  0.2224  2.2545  0.0648
17899TIP3    H275189   2.689   0.217  16.940  0.8114  3.1420  0.9874
17900TIP3   OH275190   5.310   3.103  14.199 -0.3299  0.0607  0.3652
17900TIP3    H175191   5.226   3.097  14.152 -0.7091  1.6747  0.7707
17900TIP3    H275192   5.360   3.168  14.150  0.5009 -0.5350  0.4153
17901TIP3   OH275193   3.887   1.161   0.886 -0.0381 -0.2179  0.3193
17901TIP3    H175194   3.925   1.248   0.896 -2.3076  0.9071 -0.1283
17901TIP3    H275195   3.918   1.112   0.962  1.9006  0.7202  0.1821
17902TIP3   OH275196   1.933   6.502  16.126 -0.0300  0.1217  0.4540
17902TIP3    H175197   1.965   6.416  16.097 -0.9754  0.1026 -0.6404
17902TIP3    H275198   1.932   6.555  16.046 -0.6218  0.7739  0.8786
17903TIP3   OH275199   3.644   6.289  13.610 -0.1121  0.5552 -0.0869
17903TIP3    H175200   3.651   6.206  13.561  1.5326  0.9401 -0.5561
17903TIP3    H275201   3.636   6.356  13.542  3.3927  1.2181 -0.0144
17904TIP3   OH275202   0.753   2.552  16.144 -0.8681  0.2125 -0.5734
17904TIP3    H175203   0.704   2.585  16.069 -0.8676 -1.1240 -1.2012
17904TIP3    H275204   0.702   2.579  16.221 -1.5640  0.4742 -1.1166
17905TIP3   OH275205   4.427   6.768  16.089  0.0465 -0.2675  0.1274
17905TIP3    H175206   4.474   6.740  16.010  0.4894  1.6880 -0.3489
17905TIP3    H275207   4.386   6.688  16.122 -0.1187 -1.1483 -2.0621
17906TIP3   OH275208   1.422   0.580   0.204 -0.1688 -0.1229  0.0333
17906TIP3    H175209   1.407   0.667   0.166 -1.4476 -0.6225 -0.6448
17906TIP3    H275210   1.335   0.546   0.223  0.2761 -1.5203 -0.3184
17907TIP3   OH275211   6.590   6.021  14.749 -0.8640 -0.1052 -0.4551
17907TIP3    H175212   6.667   6.040  14.694 -0.3441 -2.0927 -0.5072
17907TIP3    H275213   6.543   5.954  14.700 -0.9566 -1.1535  1.0261
17908TIP3   OH275214   0.601   0.539  11.995  0.3802 -0.8130 -0.0341
17908TIP3    H175215   0.594   0.583  11.909  0.9833  0.6983  0.6496
17908TIP3    H275216   0.694   0.546  12.017  0.2154 -1.1389  0.7657
17909TIP3   OH275217   5.903   0.718   5.627  0.2504 -0.8705 -0.0048
17909TIP3    H175218   5.991   0.723   5.591  0.9086  0.9058  1.6742
17909TIP3    H275219   5.871   0.809   5.628  0.1871 -0.7877  3.4062
17910TIP3   OH275220   5.204   3.464  15.402 -0.4079  1.1877 -0.3795
17910TIP3    H175221   5.213   3.472  15.307 -1.1192 -2.2237 -0.8445
17910TIP3    H275222   5.281   3.510  15.437  1.6674 -0.1952 -2.7926
17911TIP3   OH275223   2.857   2.363   3.609  0.7988  0.4259 -0.0607
17911TIP3    H175224   2.910   2.325   3.539  0.3880  0.4253 -0.3736
17911TIP3    H275225   2.795   2.420   3.564 -0.0574 -0.2616  0.2065
17912TIP3   OH275226   2.780   2.230  13.137  0.4950 -0.3040  0.1575
17912TIP3    H175227   2.727   2.223  13.058 -0.6119 -1.8242  0.9915
17912TIP3    H275228   2.725   2.194  13.206  1.5789  0.6465  1.5727
17913TIP3   OH275229   3.160   2.838  16.645  0.1559 -0.4193  0.4431
17913TIP3    H175230   3.069   2.820  16.622  0.7803 -0.8204 -2.0076
17913TIP3    H275231   3.155   2.897  16.720 -2.2367  2.4744 -1.7339
17914TIP3   OH275232   3.429   4.625  13.379  0.5572 -0.4616 -0.0709
17914TIP3    H175233   3.385   4.688  13.436  0.6908  0.4452 -0.9396
17914TIP3    H275234   3.376   4.546  13.387  0.0090 -0.0522  0.5485
17915TIP3   OH275235   2.750   2.834   3.589  0.7359  1.0535  0.5863
17915TIP3    H175236   2.665   2.801   3.618  0.4759  1.4354  0.2696
17915TIP3    H275237   2.813   2.774   3.628  0.3363  0.9197  1.0443
17916TIP3   OH275238   3.747   1.272   5.019  0.1221  0.0347 -0.3514
17916TIP3    H175239   3.780   1.252   5.106  1.0827 -0.6945 -0.8695
17916TIP3    H275240   3.675   1.211   5.006 -0.0713  0.1938 -0.0505
17917TIP3   OH275241   2.404   1.999   1.395 -0.0390 -0.0638  0.4267
17917TIP3    H175242   2.476   2.038   1.444 -1.3480  0.6469  1.8993
17917TIP3    H275243   2.340   2.069   1.386 -0.3084 -0.4985 -1.4067
17918TIP3   OH275244   4.125   4.627   5.871  0.3427  0.2758  0.0851
17918TIP3    H175245   4.039   4.617   5.910 -0.4094  1.8345 -1.0589
17918TIP3    H275246   4.185   4.634   5.945 -0.5535 -0.3976  0.8939
17919TIP3   OH275247   6.071   0.161  13.944  0.2982  0.0503 -0.4237
17919TIP3    H175248   6.079   0.246  13.987 -1.7446 -0.8489  2.0422
17919TIP3    H275249   6.115   0.100  14.003  0.5012 -0.7887 -1.4217
17920TIP3   OH275250   3.721   4.248  14.616  0.7975 -0.2961  0.0222
17920TIP3    H175251   3.664   4.308  14.570  1.0936 -1.0177 -1.3209
17920TIP3    H275252   3.800   4.299  14.635  0.1394  0.4035  1.0066
17921TIP3   OH275253   5.099   5.180   5.984 -0.0212  0.6364 -0.8959
17921TIP3    H175254   5.017   5.225   6.005  0.6347  1.8954 -0.9683
17921TIP3    H275255   5.123   5.136   6.066 -1.3487 -0.7623 -1.1898
17922TIP3   OH275256   4.116   5.750   2.786 -0.5464 -0.2375 -0.5521
17922TIP3    H175257   4.117   5.737   2.880 -0.1535 -1.5997 -0.7263
17922TIP3    H275258   4.141   5.665   2.749  1.2332  0.7653 -1.8320
17923TIP3   OH275259   5.764   5.635   2.807 -0.2386  0.0849  0.1723
17923TIP3    H175260   5.784   5.584   2.729  1.9172  0.2903  0.5464
17923TIP3    H275261   5.781   5.575   2.880  2.1766  1.1873  0.6139
17924TIP3   OH275262   1.347   5.844   6.009 -0.0449 -0.8336  0.2302
17924TIP3    H175263   1.411   5.781   6.041  1.2260  0.2141 -0.1983
17924TIP3    H275264   1.385   5.929   6.027 -1.1864 -0.1837 -0.3069
17925TIP3   OH275265   4.387   1.243  13.554  0.1188  0.1394  0.2692
17925TIP3    H175266   4.463   1.186  13.570 -0.2390 -0.9265 -1.5727
17925TIP3    H275267   4.362   1.224  13.464 -0.9330  2.1783  0.0876
17926TIP3   OH275268   0.600   2.821   4.917  0.0025 -0.0565  0.1865
17926TIP3    H175269   0.604   2.791   5.008  1.3616  1.3204  0.6313
17926TIP3    H275270   0.669   2.887   4.911  0.3775 -0.5769 -2.0410
17927TIP3   OH275271   1.084   2.791   2.634  0.4600  0.2046  0.1286
17927TIP3    H175272   1.007   2.843   2.611 -1.3079 -2.6382 -0.8543
17927TIP3    H275273   1.124   2.770   2.550  1.8145  0.8464  0.5844
17928TIP3   OH275274   0.490   6.494   1.443  0.4170  0.4307 -0.0316
17928TIP3    H175275   0.570   6.440   1.441  0.6983  0.8448 -0.0519
17928TIP3    H275276   0.424   6.437   1.483  0.5815 -0.1000 -0.4927
17929TIP3   OH275277   6.595   4.797   3.169 -0.0097 -0.0062  0.3489
17929TIP3    H175278   6.690   4.798   3.158  0.0195  0.5120  0.6154
17929TIP3    H275279   6.567   4.715   3.129  0.5681 -0.2450  0.4290
17930TIP3   OH275280   6.816   4.477   5.911 -0.4389  0.0009 -0.1163
17930TIP3    H175281   6.875   4.404   5.931  0.1408  0.8456  1.4783
17930TIP3    H275282   6.855   4.553   5.955 -0.8760  1.3583 -1.9519
17931TIP3   OH275283   4.241   6.301   4.862 -0.1035  0.3142 -0.0731
17931TIP3    H175284   4.300   6.226   4.872  0.4418  0.7265 -0.1138
17931TIP3    H275285   4.283   6.355   4.794 -1.3077 -0.1160 -1.1964
17932TIP3   OH275286   5.822   4.260  15.278 -0.6654  0.0134  0.1556
17932TIP3    H175287   5.754   4.288  15.217 -2.0413  0.3165  1.7665
17932TIP3    H275288   5.821   4.326  15.347  3.2281  1.6738 -1.0479
17933TIP3   OH275289   4.698   0.632  12.636  0.2450 -0.3590 -0.4687
17933TIP3    H175290   4.783   0.675  12.647 -0.5029  0.7494  1.3378
17933TIP3    H275291   4.635   0.703  12.632 -0.7607 -1.2077 -0.2727
17934TIP3   OH275292   5.395   3.720  13.566 -0.2987 -0.3162 -0.6961
17934TIP3    H175293   5.345   3.643  13.541 -0.1028 -0.6455 -0.0834
17934TIP3    H275294   5.329   3.785  13.590 -0.4870 -0.0296 -1.9239
17935TIP3   OH275295   5.015   0.492  11.090 -0.1509 -0.4528  0.0018
17935TIP3    H175296   4.980   0.476  11.002  0.8925 -0.1692 -0.4709
17935TIP3    H275297   4.998   0.585  11.106  1.1945 -0.0747 -0.6187
17936TIP3   OH275298   0.363   4.986  17.204 -0.0269  0.8390  0.4760
17936TIP3    H175299   0.409   4.949  17.280 -0.2483  0.7802  0.5803
17936TIP3    H275300   0.272   4.962  17.218 -0.3349  2.2377  1.0242
17937TIP3   OH275301   5.084   1.747   1.931 -0.4141  0.1046  0.7011
17937TIP3    H175302   5.165   1.750   1.982  1.0779 -0.1932 -1.5059
17937TIP3    H275303   5.077   1.834   1.891 -1.8311  0.5041  1.7333
17938TIP3   OH275304   1.971   4.402  12.583 -0.0391 -0.1702  0.4387
17938TIP3    H175305   2.021   4.324  12.562 -0.6298 -0.5806  0.5177
17938TIP3    H275306   1.895   4.398  12.523  1.0157  1.4776 -1.1237
17939TIP3   OH275307   3.402   1.663  15.562 -0.2725 -0.7287 -0.3128
17939TIP3    H175308   3.396   1.580  15.515 -1.5928 -0.7630 -0.1164
17939TIP3    H275309   3.451   1.642  15.641 -1.1499 -1.4826  0.0498
17940TIP3   OH275310   0.848   0.394  15.221 -0.2626 -0.2606 -0.3452
17940TIP3    H175311   0.911   0.461  15.247  3.0925 -2.6397 -1.5833
17940TIP3    H275312   0.847   0.331  15.293 -0.5869 -0.6787 -0.7047
17941TIP3   OH275313   5.333   3.790  14.803 -0.2607  0.3083  0.0907
17941TIP3    H175314   5.394   3.859  14.776 -0.2403 -0.0903 -0.9343
17941TIP3    H275315   5.246   3.829  14.791 -0.3716 -0.6811 -3.1552
17942TIP3   OH275316   4.267   3.586   4.146  0.1687 -0.2851 -0.3792
17942TIP3    H175317   4.215   3.664   4.165  0.0869 -0.7876  1.7206
17942TIP3    H275318   4.202   3.518   4.126  0.1996 -0.0620 -1.2701
17943TIP3   OH275319   6.377   4.020   4.601 -0.6529  0.3641  0.5259
17943TIP3    H175320   6.460   4.046   4.561 -0.0079 -0.6731  1.1245
17943TIP3    H275321   6.384   3.925   4.610 -1.7111  0.3172  1.0316
17944TIP3   OH275322   3.271   0.176  12.482  0.4489  0.0145 -0.1603
17944TIP3    H175323   3.228   0.261  12.486  1.1108  0.3537 -0.1586
17944TIP3    H275324   3.204   0.117  12.446  0.1478  0.6329 -0.6218
17945TIP3   OH275325   3.494   6.515   5.970  0.2517 -0.3643  0.2729
17945TIP3    H175326   3.459   6.604   5.970 -0.3844 -0.5880 -0.7460
17945TIP3    H275327   3.511   6.495   6.062 -0.3758  0.5085  0.5916
17946TIP3   OH275328   5.296   6.209  13.251 -0.2255  0.0694 -0.3351
17946TIP3    H175329   5.204   6.236  13.247 -0.1552  0.3786  0.0904
17946TIP3    H275330   5.318   6.215  13.343  0.8944  2.2797 -0.6811
17947TIP3   OH275331   6.494   6.161   3.803  0.2130 -0.6583 -0.2744
17947TIP3    H175332   6.435   6.166   3.728 -2.1609 -0.6562  1.4370
17947TIP3    H275333   6.516   6.253   3.822 -0.7169 -0.4845  0.0752
17948TIP3   OH275334   4.447   6.402  11.322 -0.6580  0.1147 -0.5581
17948TIP3    H175335   4.520   6.459  11.296 -0.0557 -0.3000  0.1996
17948TIP3    H275336   4.476   6.361  11.403 -1.6699 -0.1935 -0.3380
17949TIP3   OH275337   6.367   6.185   5.706 -0.3081 -0.0826  0.0999
17949TIP3    H175338   6.362   6.090   5.700 -1.3905 -0.0045 -0.3007
17949TIP3    H275339   6.459   6.202   5.727  0.4467 -1.1060 -2.1056
17950TIP3   OH275340   0.213   0.280   0.863  0.1689 -0.1066  0.4459
17950TIP3    H175341   0.124   0.248   0.876 -0.0772 -0.0845 -1.0479
17950TIP3    H275342   0.216   0.307   0.771  1.9201 -0.7479  0.2842
17951TIP3   OH275343   3.777   1.389   2.889  0.5240  0.4344 -0.2826
17951TIP3    H175344   3.761   1.449   2.962  1.3174 -1.7021  1.7542
17951TIP3    H275345   3.864   1.412   2.857  0.8841  0.2783  0.5748
17952TIP3   OH275346   5.245   1.685  16.683  1.4455  0.7364  0.4372
17952TIP3    H175347   5.232   1.695  16.777 -1.1755  0.4141  0.2009
17952TIP3    H275348   5.276   1.771  16.654 -0.0938  1.6284  1.3014
17953TIP3   OH275349   2.191   6.538  12.235  0.3198  0.4839 -0.1608
17953TIP3    H175350   2.255   6.494  12.178  0.8476 -1.9508  2.1183
17953TIP3    H275351   2.223   6.521  12.324 -2.7407  0.3608  1.0229
17954TIP3   OH275352   2.074   1.829  11.265  0.3088 -0.1597 -0.1260
17954TIP3    H175353   1.997   1.865  11.221 -1.2279 -2.8040  0.1680
17954TIP3    H275354   2.136   1.811  11.195 -1.1287 -2.0217 -1.0005
17955TIP3   OH275355   6.366   2.162   4.447  0.0096  0.3817 -0.3979
17955TIP3    H175356   6.351   2.100   4.376  1.0935 -0.4811  0.0957
17955TIP3    H275357   6.457   2.190   4.435 -0.4578  1.8905 -0.6087
17956TIP3   OH275358   6.482   1.322   6.653  0.5018  0.3917 -0.1818
17956TIP3    H175359   6.483   1.408   6.697 -0.6801 -0.4160  1.5518
17956TIP3    H275360   6.574   1.300   6.641  0.8528  2.2398 -1.4375
17957TIP3   OH275361   5.635   4.955  12.729 -0.2453  0.4381  0.5357
17957TIP3    H175362   5.545   4.972  12.758 -0.8819 -1.5704 -0.1238
17957TIP3    H275363   5.651   5.022  12.662 -1.3718  0.5899  0.3976
17958TIP3   OH275364   3.578   5.706  14.147 -0.0040  0.1995 -0.6426
17958TIP3    H175365   3.583   5.677  14.238  1.5490  3.0160  0.2885
17958TIP3    H275366   3.487   5.735  14.136  0.4517  2.7030  1.1207
17959TIP3   OH275367   4.393   4.376   3.666  0.4904 -0.5185 -0.6175
17959TIP3    H175368   4.394   4.336   3.752 -0.9239  0.0754 -0.2967
17959TIP3    H275369   4.321   4.333   3.620 -0.8421  1.3373 -0.3813
17960TIP3   OH275370   4.969   2.179   5.679  0.0148  0.4315  0.3797
17960TIP3    H175371   4.894   2.123   5.700  0.3949 -0.0599  0.4395
17960TIP3    H275372   4.952   2.209   5.589 -0.8920  1.3728  0.8432
17961TIP3   OH275373   3.666   1.136   1.325 -0.4964 -0.4721 -0.0978
17961TIP3    H175374   3.744   1.165   1.279  0.3308 -2.1152  0.1982
17961TIP3    H275375   3.633   1.063   1.273 -1.6156 -0.0635  0.0040
17962TIP3   OH275376   1.520   2.090   6.348  0.0358  0.1088  0.5986
17962TIP3    H175377   1.550   2.043   6.270 -2.0710 -0.3571  0.0131
17962TIP3    H275378   1.598   2.098   6.403  1.1225 -1.3236 -0.6660
17963TIP3   OH275379   3.592   2.529   6.524 -0.2659  0.6866  0.5928
17963TIP3    H175380   3.580   2.621   6.502 -4.4520  0.2560  0.2211
17963TIP3    H275381   3.538   2.515   6.602  0.3990 -1.3952  0.7471
17964TIP3   OH275382   1.002   3.142  11.571  0.1517  0.4207 -0.6746
17964TIP3    H175383   1.075   3.106  11.620  0.2148  0.5598 -0.6654
17964TIP3    H275384   1.008   3.101  11.484  0.0443  0.1824 -0.5690
17965TIP3   OH275385   2.229   3.794   3.484 -0.4337 -0.0431 -0.0222
17965TIP3    H175386   2.262   3.706   3.502  2.6832  1.0059 -0.0310
17965TIP3    H275387   2.148   3.779   3.435 -0.0784 -2.8887  0.0656
17966TIP3   OH275388   3.690   4.633  12.085  0.0127  0.4114 -0.3803
17966TIP3    H175389   3.740   4.689  12.025  1.7931  0.5331  1.1169
17966TIP3    H275390   3.756   4.575  12.123 -0.8563  0.9327  2.0653
17967TIP3   OH275391   4.679   6.703  12.027  0.4859 -0.4083  0.3701
17967TIP3    H175392   4.629   6.783  12.011  1.6494  0.7002  2.0119
17967TIP3    H275393   4.618   6.646  12.074 -0.3758 -0.5652 -0.8837
17968TIP3   OH275394   1.900   5.834   1.107  0.6949  0.3164  0.5244
17968TIP3    H175395   1.918   5.741   1.093  0.6616  0.3879 -0.0119
17968TIP3    H275396   1.832   5.835   1.175  0.3894 -0.0679  0.2316
17969TIP3   OH275397   5.849   4.740  10.859  0.5762 -0.7590 -0.1468
17969TIP3    H175398   5.899   4.659  10.865 -0.3236 -1.4367 -1.3877
17969TIP3    H275399   5.779   4.721  10.796 -0.1053  0.7464  0.1022
17970TIP3   OH275400   2.983   4.600  13.877 -0.4290  0.1017  0.4042
17970TIP3    H175401   2.914   4.583  13.941 -0.6424  0.9047  0.4019
17970TIP3    H275402   2.977   4.694  13.861 -0.7235 -0.1628 -1.1810
17971TIP3   OH275403   5.812   1.876  14.860  0.3644 -0.1124  0.6138
17971TIP3    H175404   5.807   1.790  14.817 -0.3348  1.2150 -2.1827
17971TIP3    H275405   5.740   1.875  14.924  0.4390 -1.6212  0.7101
17972TIP3   OH275406   5.942   4.218   0.297 -0.2359  0.3570 -0.2307
17972TIP3    H175407   6.031   4.236   0.267  0.0731 -0.5167  0.1313
17972TIP3    H275408   5.954   4.170   0.379 -1.0498  1.1473  0.3654
17973TIP3   OH275409   3.666   0.775   6.137  0.3888  0.5737 -0.3533
17973TIP3    H175410   3.686   0.861   6.100  1.2414  0.0042 -1.2630
17973TIP3    H275411   3.593   0.791   6.197 -0.6498  1.6217 -1.8296
17974TIP3   OH275412   4.349   0.091  12.777  0.2309 -1.0603  0.0684
17974TIP3    H175413   4.443   0.090  12.759  0.3668  2.0385  0.1021
17974TIP3    H275414   4.343   0.092  12.873  0.1990 -0.7159  0.0635
17975TIP3   OH275415   2.496   4.899   0.815 -0.1077  0.9605  0.2210
17975TIP3    H175416   2.402   4.886   0.830  0.3360 -3.1162  0.6198
17975TIP3    H275417   2.509   4.873   0.724  0.6897  1.0196  0.3103
17976TIP3   OH275418   1.140   0.120  11.964 -0.0859 -0.0447 -0.3431
17976TIP3    H175419   1.182   0.040  11.933 -1.4173 -0.1452 -2.0211
17976TIP3    H275420   1.048   0.097  11.974 -0.1418  0.7331  1.2515
17977TIP3   OH275421   3.573   5.721  12.415 -0.0149  0.1204  0.1531
17977TIP3    H175422   3.555   5.815  12.412  1.8638  0.5983  1.7811
17977TIP3    H275423   3.589   5.697  12.324 -1.5311  1.1325 -0.4224
17978TIP3   OH275424   4.127   4.504   2.818  0.1582 -0.9074  0.2065
17978TIP3    H175425   4.085   4.556   2.886  2.3549 -0.7762  1.5376
17978TIP3    H275426   4.124   4.414   2.850  2.3452 -0.6904  1.1835
17979TIP3   OH275427   0.825   6.022  16.301 -0.2109 -0.2943  0.4355
17979TIP3    H175428   0.767   5.988  16.233 -0.7013  1.9851 -0.3776
17979TIP3    H275429   0.901   5.964  16.299 -0.9042 -1.2033 -0.9740
17980TIP3   OH275430   2.659   5.016   3.594  0.8247 -0.5611 -0.2708
17980TIP3    H175431   2.728   5.063   3.546  0.3837 -1.6733 -2.0891
17980TIP3    H275432   2.704   4.940   3.631  1.0091 -0.1072  0.4532
17981TIP3   OH275433   5.555   1.252  14.871  0.1785  0.7027  0.1845
17981TIP3    H175434   5.487   1.299  14.919  0.3899  1.3228 -0.1094
17981TIP3    H275435   5.525   1.252  14.780 -0.2724 -0.5578  0.3104
17982TIP3   OH275436   0.945   2.938  15.215  0.6908 -0.5948 -0.6090
17982TIP3    H175437   0.900   3.019  15.190 -0.2087 -0.0975  2.2925
17982TIP3    H275438   0.930   2.880  15.140 -0.0416  1.3502 -2.0952
17983TIP3   OH275439   0.647   5.694   4.929 -0.4317  0.0440  0.1118
17983TIP3    H175440   0.730   5.708   4.975 -1.1552  1.8633  0.9663
17983TIP3    H275441   0.635   5.774   4.878 -1.8463  0.0004  0.3422
17984TIP3   OH275442   6.308   0.288  13.580 -0.5661  0.1932 -0.6874
17984TIP3    H175443   6.313   0.195  13.605 -1.2928  0.6612  1.4433
17984TIP3    H275444   6.239   0.324  13.636  0.2979  2.2124 -0.8269
17985TIP3   OH275445   1.707   3.292   2.956 -0.1321  0.1147 -0.5788
17985TIP3    H175446   1.639   3.303   2.890 -0.4352  0.2166 -0.2515
17985TIP3    H275447   1.684   3.354   3.025 -0.6479 -1.0154  0.2953
17986TIP3   OH275448   4.740   2.084   3.673  0.5550  0.3069 -0.0636
17986TIP3    H175449   4.678   2.128   3.731 -0.2022 -1.4064  0.4929
17986TIP3    H275450   4.699   2.000   3.654  2.5402 -0.7382  0.0308
17987TIP3   OH275451   2.121   5.193  13.166 -0.1928 -0.2338  0.2300
17987TIP3    H175452   2.134   5.287  13.180 -0.4323 -0.1004 -0.3946
17987TIP3    H275453   2.058   5.167  13.233  0.1869 -0.0317  0.6643
17988TIP3   OH275454   3.854   1.836   3.838 -0.4272 -0.0880 -0.3764
17988TIP3    H175455   3.868   1.743   3.818 -0.0721  0.0435 -0.7646
17988TIP3    H275456   3.872   1.881   3.756  1.2038  0.4831  0.2511
17989TIP3   OH275457   0.329   1.224   4.602 -0.3697 -0.1277 -0.1260
17989TIP3    H175458   0.388   1.248   4.674 -1.5751 -1.5717  1.4138
17989TIP3    H275459   0.383   1.169   4.544  0.9084  1.8899 -0.9556
17990TIP3   OH275460   2.636   2.145   1.480 -0.0732 -0.2707  0.2584
17990TIP3    H175461   2.695   2.175   1.549  1.2406 -2.1783  0.0503
17990TIP3    H275462   2.637   2.214   1.415  1.3132  0.1008  0.6473
17991TIP3   OH275463   2.469   1.514   0.963  0.1658  0.2410  0.3671
17991TIP3    H175464   2.418   1.459   1.021  1.1531 -1.8574 -0.6299
17991TIP3    H275465   2.550   1.533   1.011  0.3327 -0.2144  0.2721
17992TIP3   OH275466   4.441   2.078   0.454 -0.1364 -0.2539 -0.0627
17992TIP3    H175467   4.409   2.031   0.531  2.0030 -1.7088  0.0269
17992TIP3    H275468   4.380   2.053   0.384  0.5740 -2.7955  0.1126
17993TIP3   OH275469   3.772   4.657   0.531 -0.1662  0.3119  0.3669
17993TIP3    H175470   3.718   4.614   0.596 -0.9625 -1.8481 -1.6073
17993TIP3    H275471   3.756   4.610   0.449  4.0609  0.0059 -0.5560
17994TIP3   OH275472   2.218   2.141  15.960  0.2221  0.2958  0.2351
17994TIP3    H175473   2.235   2.063  16.013 -0.3496  1.8226  2.7907
17994TIP3    H275474   2.147   2.187  16.005 -0.1954  1.7928 -1.7879
17995TIP3   OH275475   0.058   4.420   0.359  0.8871  0.1928 -0.0417
17995TIP3    H175476   0.045   4.499   0.412  1.5267  0.4034 -0.1984
17995TIP3    H275477   0.150   4.398   0.370  0.3349 -1.6810  1.5957
17996TIP3   OH275478   0.155   0.061   2.186  0.8440 -0.1986  0.0149
17996TIP3    H175479   0.074   0.063   2.237  1.0464 -1.9757  0.4876
17996TIP3    H275480   0.126   0.046   2.096  0.4819  2.9995 -0.5127
17997TIP3   OH275481   4.411   1.946   6.921 -0.0277 -0.0629 -0.1044
17997TIP3    H175482   4.481   1.882   6.908 -2.3120 -2.7897 -0.0352
17997TIP3    H275483   4.390   1.977   6.833  0.7547  0.1915 -0.2036
17998TIP3   OH275484   2.406   3.630   1.038 -0.5043  0.1168  0.1548
17998TIP3    H175485   2.422   3.540   1.008 -3.4276 -1.0445  1.7041
17998TIP3    H275486   2.382   3.620   1.130 -3.8720  2.0898 -0.3818
17999TIP3   OH275487   5.114   1.421   5.461 -0.0406 -0.7375  0.1658
17999TIP3    H175488   5.209   1.410   5.466 -0.3175 -3.1210  1.7488
17999TIP3    H275489   5.086   1.432   5.551 -1.2066  1.2910 -0.3855
18000TIP3   OH275490   1.869   4.232   3.666  0.2434  0.4946  0.6444
18000TIP3    H175491   1.794   4.290   3.674 -0.1788 -0.2883  3.1620
18000TIP3    H275492   1.857   4.189   3.581 -2.9072 -0.5720  1.4847
18001TIP3   OH275493   5.927   2.577   4.363  0.1531  0.2699  0.0290
18001TIP3    H175494   6.007   2.599   4.314  0.5441 -0.2298  0.4362
18001TIP3    H275495   5.859   2.572   4.295  1.3516 -4.1574 -1.1764
18002TIP3   OH275496   4.928   4.842  16.132 -0.3668  0.0158  0.6251
18002TIP3    H175497   4.925   4.885  16.217 -1.0904  1.1646  0.0263
18002TIP3    H275498   4.979   4.901  16.077 -3.0428  1.2010 -0.7631
18003TIP3   OH275499   1.197   3.557  16.881 -0.5036  0.0519 -0.3191
18003TIP3    H175500   1.201   3.548  16.786  5.0365  0.9057 -0.4548
18003TIP3    H275501   1.150   3.640  16.894  2.3508  2.2799 -2.7580
18004TIP3   OH275502   3.342   4.160  15.927 -0.4744 -0.1135 -0.4384
18004TIP3    H175503   3.414   4.219  15.907  0.8847 -1.6064 -0.1700
18004TIP3    H275504   3.339   4.156  16.023 -0.7268 -0.2634 -0.4501
18005TIP3   OH275505   1.401   4.493  16.192 -0.6897 -0.4838 -0.1844
18005TIP3    H175506   1.322   4.531  16.231 -0.9526 -1.5150  0.3061
18005TIP3    H275507   1.418   4.414  16.243  1.4619  0.4137  0.6309
18006TIP3   OH275508   2.506   2.163  11.824  0.0368 -0.0524 -0.0124
18006TIP3    H175509   2.493   2.097  11.892  0.4682  0.1877  0.3106
18006TIP3    H275510   2.495   2.115  11.742 -0.8150 -0.2760  0.2206
18007TIP3   OH275511   4.748   3.667   1.405 -0.4962  0.5012  0.1559
18007TIP3    H175512   4.662   3.708   1.410 -0.1187  1.5490 -1.1796
18007TIP3    H275513   4.798   3.725   1.346  0.4393 -1.2355 -0.8270
18008TIP3   OH275514   6.191   3.587   1.845 -0.1686 -0.6713  0.3186
18008TIP3    H175515   6.118   3.528   1.824 -0.2461 -0.4389 -0.0838
18008TIP3    H275516   6.269   3.535   1.826 -0.1934 -1.3844  2.0158
18009TIP3   OH275517   0.342   1.860   5.857  0.2821 -0.5013  0.0259
18009TIP3    H175518   0.251   1.837   5.841 -0.1964  0.3694  1.3122
18009TIP3    H275519   0.366   1.811   5.935  0.1925  0.9365  0.9943
18010TIP3   OH275520   5.754   3.212   1.036  0.2648 -0.4077  0.5433
18010TIP3    H175521   5.781   3.303   1.045 -0.3957  0.1305 -2.1163
18010TIP3    H275522   5.659   3.215   1.030  0.2623 -1.2447  0.0705
18011TIP3   OH275523   3.299   4.490   5.054  0.7133 -0.4203 -0.1376
18011TIP3    H175524   3.282   4.539   5.135  0.0479 -0.9989  0.0821
18011TIP3    H275525   3.239   4.416   5.058  1.3068 -0.9411 -0.7486
18012TIP3   OH275526   4.697   4.438  16.719  0.9247 -0.0000 -0.1365
18012TIP3    H175527   4.690   4.517  16.772  0.9094  0.0539 -0.2202
18012TIP3    H275528   4.651   4.459  16.638 -0.4436 -0.6040  0.4354
18013TIP3   OH275529   1.950   6.573  14.912 -0.3620  0.2062  0.3969
18013TIP3    H175530   2.039   6.608  14.913 -0.1053 -0.2251  4.0232
18013TIP3    H275531   1.955   6.497  14.854  2.0720 -0.7683  1.7560
18014TIP3   OH275532   2.089   5.994  11.750 -0.5250 -0.4513 -0.0477
18014TIP3    H175533   2.006   5.971  11.791 -0.8660  1.8638  0.7563
18014TIP3    H275534   2.066   6.014  11.659 -1.4635  2.5872  0.7107
18015TIP3   OH275535   5.986   0.554   4.195 -0.1913  0.6113  0.5116
18015TIP3    H175536   5.923   0.624   4.176  0.2452  0.9324  0.2306
18015TIP3    H275537   5.961   0.483   4.136  1.3896  1.7368 -1.6705
18016TIP3   OH275538   4.673   3.532   6.034  0.0064 -0.0406  0.1367
18016TIP3    H175539   4.729   3.589   5.981 -0.6344 -0.6012 -1.2090
18016TIP3    H275540   4.592   3.582   6.047 -0.5515 -0.5798 -1.0343
18017TIP3   OH275541   6.440   3.534   0.795 -0.5757 -0.1908 -0.0719
18017TIP3    H175542   6.386   3.503   0.867 -1.2941  1.1145 -0.0249
18017TIP3    H275543   6.416   3.625   0.784  1.3399  0.3300 -0.3147
18018TIP3   OH275544   4.324   2.142  14.173 -0.4815  0.0130 -0.3131
18018TIP3    H175545   4.316   2.204  14.245  0.8705  1.3807 -1.2785
18018TIP3    H275546   4.400   2.087  14.196 -0.8668 -0.4319 -0.0845
18019TIP3   OH275547   4.057   4.470  15.353  0.1662 -0.4526 -0.2594
18019TIP3    H175548   4.142   4.465  15.308  0.2009 -0.2270 -0.2186
18019TIP3    H275549   3.993   4.475  15.282  0.2072 -0.3179 -0.2874
18020TIP3   OH275550   2.374   1.414  16.054 -0.7111  0.0675 -0.1222
18020TIP3    H175551   2.328   1.426  15.971  0.8631 -1.0665 -1.2185
18020TIP3    H275552   2.359   1.322  16.077 -0.0750  0.0248  0.1533
18021TIP3   OH275553   4.294   4.989   6.085 -0.6977 -0.2655  0.1720
18021TIP3    H175554   4.334   5.044   6.151 -1.3560  1.2457 -0.6443
18021TIP3    H275555   4.224   4.943   6.130  0.0688 -0.7021  0.9357
18022TIP3   OH275556   5.987   5.030   3.526  0.3452 -0.1960 -0.2790
18022TIP3    H175557   6.019   4.965   3.463  0.5363  1.0043 -1.4803
18022TIP3    H275558   6.046   5.105   3.514  0.7128 -0.1285  1.7322
18023TIP3   OH275559   2.002   4.553  14.112 -0.4809 -0.0735  0.0561
18023TIP3    H175560   1.908   4.569  14.121 -0.3581  0.0225  1.3743
18023TIP3    H275561   2.011   4.458  14.117 -0.2797  0.0107  3.0606
18024TIP3   OH275562   0.484   4.737   3.266  0.6575  0.2995 -0.4680
18024TIP3    H175563   0.452   4.824   3.243  1.3202  0.6429 -0.1304
18024TIP3    H275564   0.429   4.677   3.215  0.7071  0.9395 -1.2995
18025TIP3   OH275565   0.002   4.933  15.838  0.2840  0.1690  0.2087
18025TIP3    H175566   0.031   4.970  15.755  1.1452 -0.5802  0.1596
18025TIP3    H275567   0.082   4.928  15.891 -0.4271  1.6787  1.5018
18026TIP3   OH275568   4.555   0.980  16.429 -0.4998 -0.1138  0.0172
18026TIP3    H175569   4.498   1.034  16.484 -0.4913  1.3377 -1.2940
18026TIP3    H275570   4.636   0.972  16.479 -0.7062  0.6238  0.4960
18027TIP3   OH275571   2.613   5.919  10.913  0.7385 -0.6930 -0.2534
18027TIP3    H175572   2.555   5.879  10.848  1.1809  0.0885 -1.1471
18027TIP3    H275573   2.701   5.893  10.885  0.8500 -2.5827  1.5673
18028TIP3   OH275574   4.090   1.786  12.273 -0.3995  0.5638 -0.0683
18028TIP3    H175575   4.022   1.820  12.330  0.6860  2.6755  0.0579
18028TIP3    H275576   4.105   1.856  12.209  1.4393  0.0513 -0.2580
18029TIP3   OH275577   1.150   4.201  15.998 -0.1416  0.3257  0.2662
18029TIP3    H175578   1.236   4.197  16.041  1.1048  3.4449 -1.5793
18029TIP3    H275579   1.170   4.218  15.906 -2.6367  3.9282  0.1854
18030TIP3   OH275580   0.475   0.844  13.357 -0.4176  0.7893 -0.1182
18030TIP3    H175581   0.489   0.783  13.430 -0.1185  1.6192  0.5272
18030TIP3    H275582   0.408   0.801  13.303 -1.1217  0.4533  0.9849
18031TIP3   OH275583   5.144   2.067   1.905  0.5350  0.5451  0.2082
18031TIP3    H175584   5.148   2.112   1.821 -0.0539  0.3684  0.0743
18031TIP3    H275585   5.227   2.087   1.948 -0.3080  3.0523  0.8326
18032TIP3   OH275586   6.761   1.978  11.581 -0.6394  0.5384 -0.8403
18032TIP3    H175587   6.816   1.911  11.541  0.9862  1.7626 -0.7589
18032TIP3    H275588   6.783   2.058  11.533  0.8371  1.9242  1.9194
18033TIP3   OH275589   4.079   2.731  14.968  0.2967 -0.8119  0.0364
18033TIP3    H175590   4.119   2.644  14.964 -0.6854 -1.2521 -0.7430
18033TIP3    H275591   4.049   2.748  14.878  2.0762  1.1279 -0.2673
18034TIP3   OH275592   3.985   1.772  16.061 -0.6511 -0.6763  0.7888
18034TIP3    H175593   3.919   1.836  16.034  0.7718 -0.2499 -1.9626
18034TIP3    H275594   3.945   1.687  16.039 -1.2580 -0.5944  1.5082
18035TIP3   OH275595   2.582   0.335   6.207 -0.3792 -0.0297  0.3622
18035TIP3    H175596   2.585   0.250   6.251  1.3463 -0.2211 -0.0731
18035TIP3    H275597   2.630   0.394   6.264  0.7581  0.0155 -0.5994
18036TIP3   OH275598   1.056   1.318   1.949  0.3780 -0.2131 -0.1867
18036TIP3    H175599   1.013   1.234   1.965  1.0990 -0.4349  0.7152
18036TIP3    H275600   1.010   1.379   2.007  0.5876 -0.2345  0.0058
18037TIP3   OH275601   4.869   1.472  12.263  0.3652 -0.4785 -0.0046
18037TIP3    H175602   4.846   1.381  12.249 -1.5869  0.0337 -0.4052
18037TIP3    H275603   4.936   1.470  12.332  0.6288 -2.2026 -0.2725
18038TIP3   OH275604   4.915   4.825   5.636 -0.0922 -0.3469 -0.0086
18038TIP3    H175605   4.994   4.770   5.637 -0.7895 -1.3633  1.4720
18038TIP3    H275606   4.909   4.859   5.725 -1.5558 -0.6185  0.0083
18039TIP3   OH275607   1.093   4.844  15.410  0.1536  0.2253 -0.5800
18039TIP3    H175608   1.057   4.908  15.349 -2.3690 -2.3521 -2.0571
18039TIP3    H275609   1.022   4.831  15.474  1.0063 -0.4077  0.2665
18040TIP3   OH275610   0.430   0.746  16.830 -0.2574  0.3097 -0.3542
18040TIP3    H175611   0.355   0.757  16.772 -0.1691 -2.4011 -1.1260
18040TIP3    H275612   0.445   0.651  16.832  2.5033  0.6728  0.5972
18041TIP3   OH275613   6.697   0.485  12.568 -0.1990  0.1342 -0.1607
18041TIP3    H175614   6.669   0.546  12.500 -0.2437 -0.9174 -1.1218
18041TIP3    H275615   6.622   0.427  12.580  0.2556 -0.4432 -0.1039
18042TIP3   OH275616   5.247   6.578   2.117  0.0644 -0.4629 -0.4173
18042TIP3    H175617   5.178   6.623   2.167 -1.0033 -1.0689 -1.2887
18042TIP3    H275618   5.320   6.570   2.178 -0.9046 -0.4624  0.7818
18043TIP3   OH275619   2.669   3.274   6.299 -0.0706 -0.5160  0.2149
18043TIP3    H175620   2.640   3.266   6.389 -1.1834 -0.8155 -0.1587
18043TIP3    H275621   2.589   3.281   6.248  0.5259 -0.7328 -0.7880
18044TIP3   OH275622   4.031   4.594  13.333  0.2211 -0.1676 -0.2156
18044TIP3    H175623   3.975   4.571  13.407  2.8291 -1.0348  1.6287
18044TIP3    H275624   4.083   4.515  13.318  1.9925  1.0727 -0.8176
18045TIP3   OH275625   0.660   2.582  13.157 -0.0530  0.0615 -0.5501
18045TIP3    H175626   0.664   2.487  13.146 -0.0549 -0.1434  1.0692
18045TIP3    H275627   0.732   2.603  13.216 -1.4514  0.7424  1.0170
18046TIP3   OH275628   0.736   6.249   3.478  0.4117  0.3912  0.1616
18046TIP3    H175629   0.766   6.167   3.439  0.3278  0.5191 -0.1776
18046TIP3    H275630   0.648   6.260   3.444  0.3138  0.4774  0.4379
18047TIP3   OH275631   5.516   2.449  13.599 -0.2031 -0.8665  0.0440
18047TIP3    H175632   5.455   2.485  13.535  1.5160 -0.1920 -1.2838
18047TIP3    H275633   5.502   2.502  13.677 -0.6731 -0.1191 -0.5310
18048TIP3   OH275634   4.490   4.857   4.796  0.1428  0.0186  0.4043
18048TIP3    H175635   4.481   4.801   4.873 -0.2707  0.4185  0.6518
18048TIP3    H275636   4.574   4.902   4.809  0.4804 -0.5500  0.1971
18049TIP3   OH275637   4.305   0.803   3.490 -0.4114  0.7281 -0.1790
18049TIP3    H175638   4.270   0.723   3.451 -0.3606  1.7781 -2.5660
18049TIP3    H275639   4.376   0.773   3.547 -2.2981 -1.0945  1.3895
18050TIP3   OH275640   1.070   0.274   0.059  0.1107 -0.4032  0.5769
18050TIP3    H175641   1.013   0.329   0.113  1.0418 -0.3387  1.5118
18050TIP3    H275642   1.024   0.190   0.054 -1.6447  0.5692 -1.3975
18051TIP3   OH275643   3.720   1.565   0.502  0.5090 -0.5307  0.0347
18051TIP3    H175644   3.706   1.502   0.573 -1.1831  1.2528  1.3824
18051TIP3    H275645   3.698   1.516   0.422 -0.5127 -1.7228  1.0078
18052TIP3   OH275646   4.814   2.237  12.575  0.5208  0.2878 -0.7166
18052TIP3    H175647   4.774   2.153  12.597  1.2658  0.1842  0.3238
18052TIP3    H275648   4.858   2.221  12.492  1.4051 -0.6235 -0.0951
18053TIP3   OH275649   2.913   0.017   4.636  0.0361  0.0168  0.5021
18053TIP3    H175650   2.879   0.097   4.676 -0.9634 -0.5608  0.8404
18053TIP3    H275651   3.002   0.008   4.672  0.1853  1.0047  0.3975
18054TIP3   OH275652   5.002   5.672  16.773 -0.1333  0.0863  0.3599
18054TIP3    H175653   4.964   5.626  16.848  0.4626 -0.2526  0.4568
18054TIP3    H275654   5.071   5.726  16.810  1.1995 -1.2298 -0.0985
18055TIP3   OH275655   2.939   4.119  15.508 -0.0156 -0.1323  0.2161
18055TIP3    H175656   2.861   4.173  15.498  0.3856  0.1438 -1.7019
18055TIP3    H275657   2.988   4.131  15.427  0.5849 -2.6033  0.1272
18056TIP3   OH275658   6.023   2.680   4.611 -0.3906 -0.3611  0.1008
18056TIP3    H175659   6.106   2.642   4.582  0.1498 -0.5804  1.8336
18056TIP3    H275660   5.984   2.716   4.531 -0.4138 -3.5157 -1.4745
18057TIP3   OH275661   0.276   4.657   5.057 -0.2401  0.4164 -0.3003
18057TIP3    H175662   0.190   4.699   5.048  1.6947  4.8991 -0.3934
18057TIP3    H275663   0.305   4.681   5.145  0.7395 -1.5830 -0.0207
18058TIP3   OH275664   6.035   1.609  16.410 -0.3765 -0.4145 -0.3836
18058TIP3    H175665   5.989   1.635  16.490  0.3570 -1.8002  0.5249
18058TIP3    H275666   6.108   1.671  16.404 -0.3944 -0.3408  0.0808
18059TIP3   OH275667   5.861   3.875   2.012 -0.3680  0.2911 -0.5918
18059TIP3    H175668   5.914   3.885   2.091 -1.5222  2.6579 -0.0356
18059TIP3    H275669   5.822   3.788   2.020  1.1223 -0.3336  0.3808
18060TIP3   OH275670   0.319   4.632   3.650  0.3253 -0.4335 -0.2466
18060TIP3    H175671   0.345   4.720   3.676 -0.5185  0.2101 -1.4525
18060TIP3    H275672   0.224   4.636   3.643  0.0971 -1.9593  1.4048
18061TIP3   OH275673   3.482   2.207  10.752  0.0508 -0.8740 -0.0568
18061TIP3    H175674   3.517   2.129  10.794  0.1138  0.5565  2.7972
18061TIP3    H275675   3.393   2.215  10.786  0.1325  0.4022 -0.0849
18062TIP3   OH275676   0.270   3.395  14.750 -0.0196 -0.6210  0.0176
18062TIP3    H175677   0.363   3.416  14.740 -0.0088 -1.0101 -0.8250
18062TIP3    H275678   0.243   3.439  14.830  0.5680  0.5984 -0.4390
18063TIP3   OH275679   4.268   2.826  13.832 -0.1949  0.0197 -0.0422
18063TIP3    H175680   4.304   2.915  13.833  0.7056 -0.3392  0.5753
18063TIP3    H275681   4.185   2.835  13.786 -0.4721  1.3184  0.6424
18064TIP3   OH275682   6.633   4.236   0.303 -0.4839 -0.5901 -0.0675
18064TIP3    H175683   6.668   4.170   0.244 -0.6704 -1.9366  1.2541
18064TIP3    H275684   6.701   4.302   0.310  0.0617 -1.0726 -0.7626
18065TIP3   OH275685   6.144   1.629   6.019 -0.5439 -0.1787 -0.0228
18065TIP3    H175686   6.069   1.633   6.078 -1.5936 -2.0313 -1.1472
18065TIP3    H275687   6.139   1.709   5.968 -1.3283  0.0623  0.4151
18066TIP3   OH275688   1.032   6.045   4.448  0.1116 -0.5908 -0.3363
18066TIP3    H175689   0.999   5.962   4.411  0.5351 -0.5725 -0.7646
18066TIP3    H275690   0.958   6.080   4.496  0.3841 -1.9921  1.1883
18067TIP3   OH275691   3.118   5.113   5.501  0.2529 -0.2211 -0.2436
18067TIP3    H175692   3.213   5.125   5.492  0.3128 -0.7386 -0.2958
18067TIP3    H275693   3.108   5.070   5.586  0.3155 -3.1463 -1.6111
18068TIP3   OH275694   5.991   6.505   4.981  0.4417  0.4199 -0.2953
18068TIP3    H175695   6.003   6.518   4.887 -0.3708  1.1763 -0.3072
18068TIP3    H275696   5.968   6.591   5.015 -0.1694 -0.0218  0.4548
18069TIP3   OH275697   2.323   5.003  13.207  0.3740  0.1020  0.1658
18069TIP3    H175698   2.286   4.960  13.284 -0.9750 -0.4279 -0.7313
18069TIP3    H275699   2.279   5.088  13.202  1.8909  0.9856  1.0485
18070TIP3   OH275700   2.145   3.396   2.369  0.5915 -0.3401  0.6159
18070TIP3    H175701   2.234   3.429   2.354  1.0690 -2.1552 -0.8666
18070TIP3    H275702   2.093   3.437   2.301 -0.0947  1.8142  2.3028
18071TIP3   OH275703   6.438   5.749  13.085  0.0102 -0.8005  0.0421
18071TIP3    H175704   6.431   5.695  13.007 -1.4028 -2.3750  1.1801
18071TIP3    H275705   6.425   5.839  13.053  2.4592 -1.0448 -1.8870
18072TIP3   OH275706   1.242   1.456   1.024 -0.0019 -0.2863 -0.3911
18072TIP3    H175707   1.165   1.400   1.020 -0.9693  0.7588  1.8321
18072TIP3    H275708   1.302   1.410   1.082 -0.4835  0.5629  0.8169
18073TIP3   OH275709   5.273   5.190   3.480 -0.4141  0.0661 -0.4787
18073TIP3    H175710   5.206   5.158   3.420 -0.7006 -0.1589 -0.0426
18073TIP3    H275711   5.313   5.111   3.517 -1.6650  0.1545  1.2059
18074TIP3   OH275712   6.591   3.230  15.591 -0.4308 -0.3661  0.2557
18074TIP3    H175713   6.498   3.208  15.581  0.0605 -2.3821 -0.3023
18074TIP3    H275714   6.626   3.162  15.648  0.9182 -0.2577 -0.3996
18075TIP3   OH275715   0.926   4.741  16.534  0.2265  0.1978  0.1686
18075TIP3    H175716   1.017   4.713  16.526  1.6106  3.6800  1.6931
18075TIP3    H275717   0.875   4.667  16.501  3.5675 -1.8532 -0.8804
18076TIP3   OH275718   4.017   4.003  13.005 -0.0113 -0.4017 -0.1569
18076TIP3    H175719   4.100   3.994  13.053 -0.2522 -0.7394  0.1959
18076TIP3    H275720   4.029   4.081  12.951  0.1633  0.1306  0.6426
18077TIP3   OH275721   5.232   5.620  13.697 -0.1805 -0.1612 -0.3399
18077TIP3    H175722   5.153   5.633  13.644  0.1554  1.7577 -0.4460
18077TIP3    H275723   5.261   5.709  13.718  0.3140 -0.8407  2.1417
18078TIP3   OH275724   1.669   2.681   6.381  0.2572  0.5554  0.1438
18078TIP3    H175725   1.752   2.719   6.352  0.7954 -0.2700  0.5595
18078TIP3    H275726   1.614   2.756   6.401  1.3049  1.1346  0.9739
18079TIP3   OH275727   0.388   5.961  15.980  0.1817  0.3163  0.0310
18079TIP3    H175728   0.428   5.991  15.899  0.0905  0.7707  0.1504
18079TIP3    H275729   0.344   6.038  16.015 -0.0323  0.0481  0.3602
18080TIP3   OH275730   2.423   5.778  14.543 -0.0574 -0.4038 -0.2553
18080TIP3    H175731   2.498   5.720  14.534  0.0984 -0.4579  1.1908
18080TIP3    H275732   2.347   5.719  14.548 -0.4586 -0.3206 -3.3382
18081TIP3   OH275733   3.350   1.588  11.581 -0.3450  0.1656  1.2930
18081TIP3    H175734   3.323   1.679  11.584  1.9690  1.0115 -0.4278
18081TIP3    H275735   3.311   1.553  11.501  2.2495  1.0155 -0.4751
18082TIP3   OH275736   4.960   2.105   3.419  0.1701 -0.3573  0.6631
18082TIP3    H175737   4.985   2.189   3.380  0.0439  0.1174  1.5891
18082TIP3    H275738   4.903   2.128   3.492 -0.4624 -1.2871  0.4865
18083TIP3   OH275739   5.273   1.237   2.579  0.2366  0.0003 -0.0777
18083TIP3    H175740   5.274   1.142   2.582  1.4423  0.0188  1.1890
18083TIP3    H275741   5.182   1.259   2.559  0.1433 -1.4076 -1.3826
18084TIP3   OH275742   2.123   3.603   2.100  0.1878 -0.7467  0.3368
18084TIP3    H175743   2.028   3.588   2.095  0.2834 -1.4065  0.4077
18084TIP3    H275744   2.147   3.633   2.012  0.0849 -1.6183  0.0043
18085TIP3   OH275745   1.534   2.384  16.334 -0.2157 -0.5418  0.4124
18085TIP3    H175746   1.444   2.390  16.365 -0.1283 -0.7896  0.7284
18085TIP3    H275747   1.534   2.308  16.275 -0.8261  1.0892 -1.8125
18086TIP3   OH275748   0.216   6.502  11.347  0.2310 -0.1786  0.5694
18086TIP3    H175749   0.256   6.583  11.316  0.7445 -0.3681  0.7270
18086TIP3    H275750   0.144   6.531  11.404 -0.3810  0.1685 -0.3575
18087TIP3   OH275751   6.116   0.858   2.647  0.1574 -0.3220  0.1828
18087TIP3    H175752   6.211   0.851   2.661  0.3305 -0.5026 -0.9915
18087TIP3    H275753   6.089   0.770   2.622 -0.5693 -0.5859  1.7767
18088TIP3   OH275754   3.328   1.068   0.776 -0.4086 -0.2516 -0.8671
18088TIP3    H175755   3.241   1.110   0.772  0.6691  2.0903 -1.4121
18088TIP3    H275756   3.350   1.050   0.685 -0.4809 -1.2502 -0.6966
18089TIP3   OH275757   1.701   6.209  15.992  0.2764  0.2731  0.2848
18089TIP3    H175758   1.761   6.267  15.946  0.2775  1.3944  1.6367
18089TIP3    H275759   1.741   6.195  16.078 -2.3242  2.9059  2.1444
18090TIP3   OH275760   3.221   2.324   3.814 -0.0329 -0.5049  0.6460
18090TIP3    H175761   3.288   2.303   3.879  0.7206 -2.5806 -0.6860
18090TIP3    H275762   3.249   2.407   3.776  1.7191 -1.2227  0.2679
18091TIP3   OH275763   6.062   3.733   0.401  0.2301 -0.3497 -0.1435
18091TIP3    H175764   5.988   3.694   0.447 -0.2855 -0.8984 -1.4116
18091TIP3    H275765   6.035   3.823   0.384  0.1557 -0.3398  0.0222
18092TIP3   OH275766   4.679   6.315  15.499  0.6281  0.0082 -0.6325
18092TIP3    H175767   4.763   6.310  15.545  0.1270 -0.6195  0.2560
18092TIP3    H275768   4.626   6.246  15.538 -0.1258  0.0339 -1.5633
18093TIP3   OH275769   1.579   1.035  14.376  0.3334 -0.1345 -0.0805
18093TIP3    H175770   1.615   1.119  14.403 -1.9836  0.8877  0.0231
18093TIP3    H275771   1.622   0.971  14.433  0.8399  1.1839  1.0769
18094TIP3   OH275772   3.772   5.312   3.129 -0.3747  0.8438 -0.5757
18094TIP3    H175773   3.721   5.238   3.097  0.5614  0.8208 -2.1520
18094TIP3    H275774   3.828   5.276   3.197 -0.3487  0.2174 -0.9236
18095TIP3   OH275775   4.114   6.757   5.111  0.3730  0.0477 -0.4461
18095TIP3    H175776   4.203   6.778   5.140  0.1534  0.0454  0.2481
18095TIP3    H275777   4.081   6.696   5.177 -0.2483  0.2733 -0.5417
18096TIP3   OH275778   4.954   3.124   3.696 -0.4401 -0.0506  0.5091
18096TIP3    H175779   4.933   3.051   3.754 -0.0002 -0.1328  0.5687
18096TIP3    H275780   4.949   3.201   3.753  0.5390 -0.1887  0.7921
18097TIP3   OH275781   1.063   2.764  16.664 -0.2037 -0.0438  0.6331
18097TIP3    H175782   1.057   2.801  16.576 -0.7508 -2.8959 -0.6640
18097TIP3    H275783   1.157   2.768  16.685 -0.1939  1.5637  0.3847
18098TIP3   OH275784   2.180   2.395   1.944 -0.0877  0.3350  0.6362
18098TIP3    H175785   2.244   2.325   1.954  0.5478  1.1829  3.1723
18098TIP3    H275786   2.120   2.363   1.877  2.3420 -0.9485 -1.1097
18099TIP3   OH275787   2.923   4.047  16.895  0.0751  0.1791  0.2491
18099TIP3    H175788   2.996   4.109  16.905 -1.1387  1.4383  2.3016
18099TIP3    H275789   2.861   4.073  16.964 -1.7467 -1.6308 -0.6057
18100TIP3   OH275790   0.643   2.554  16.406 -0.2450 -0.5061  0.0728
18100TIP3    H175791   0.656   2.594  16.492 -0.7705  0.0424 -0.1020
18100TIP3    H275792   0.587   2.478  16.423 -0.5877 -0.2323  0.1788
18101TIP3   OH275793   0.103   2.763   0.137  0.2717  0.1009 -0.0719
18101TIP3    H175794   0.193   2.759   0.103 -0.0981  0.3911 -1.1071
18101TIP3    H275795   0.059   2.688   0.097  0.1942 -0.3860  0.8979
18102TIP3   OH275796   3.428   4.189  16.260  0.0967 -0.4209  0.2963
18102TIP3    H175797   3.498   4.133  16.293  1.1258  0.4147 -0.4068
18102TIP3    H275798   3.469   4.275  16.249 -0.4483 -0.4157 -2.1392
18103TIP3   OH275799   0.594   1.750  12.767  0.3892 -0.1367  0.1145
18103TIP3    H175800   0.614   1.724  12.857  1.8155  0.9528  0.1423
18103TIP3    H275801   0.653   1.823  12.749  0.2379 -0.4261 -1.7683
18104TIP3   OH275802   6.101   4.577  17.254 -0.1764 -0.5302  0.0350
18104TIP3    H175803   6.141   4.650  17.301  0.6910 -1.3674  0.6516
18104TIP3    H275804   6.017   4.563  17.299 -0.5729  0.3758 -0.3991
18105TIP3   OH275805   0.019   2.787   3.728 -0.1152 -0.1583 -0.3580
18105TIP3    H175806  -0.003   2.880   3.735 -0.7774 -0.3846  0.7249
18105TIP3    H275807  -0.063   2.741   3.745  0.0778 -0.9511 -1.4409
18106TIP3   OH275808   0.730   5.251   2.504 -0.5334  0.0710  0.5150
18106TIP3    H175809   0.756   5.282   2.417 -2.2306 -0.7763 -0.3607
18106TIP3    H275810   0.808   5.261   2.558  0.5853  0.5792 -1.1168
18107TIP3   OH275811   6.115   2.550   1.950  0.5809 -0.2702  0.7915
18107TIP3    H175812   6.071   2.518   1.871  0.1884  0.8904  0.5215
18107TIP3    H275813   6.073   2.634   1.969 -0.1794 -1.0464  2.9316
18108TIP3   OH275814   1.506   5.874   3.864  0.6946  0.3708 -0.2556
18108TIP3    H175815   1.414   5.847   3.861  0.8305 -0.0462 -1.3449
18108TIP3    H275816   1.503   5.969   3.876  0.1901  0.0659  2.7530
18109TIP3   OH275817   4.268   5.384  10.614  0.2043 -0.4243  0.1586
18109TIP3    H175818   4.269   5.430  10.530  1.4170  0.0424  0.4022
18109TIP3    H275819   4.190   5.329  10.610 -1.5937  1.9478  0.0237
18110TIP3   OH275820   6.277   6.693  11.103 -0.0103  0.1263  0.5764
18110TIP3    H175821   6.308   6.693  11.013 -0.0563 -0.7885  0.5495
18110TIP3    H275822   6.183   6.709  11.095  0.2309  1.7114  0.5851
18111TIP3   OH275823   1.175   4.530  15.417  0.0288 -0.1831  0.0899
18111TIP3    H175824   1.087   4.561  15.436 -0.4737 -0.7250 -1.1925
18111TIP3    H275825   1.216   4.602  15.370 -0.4726 -0.6877 -1.1675
18112TIP3   OH275826   3.092   2.598   6.271  0.1281  0.6371 -0.3801
18112TIP3    H175827   3.049   2.637   6.347  1.1574 -0.1552  0.6691
18112TIP3    H275828   3.069   2.505   6.276 -0.1711  0.6471 -1.3280
18113TIP3   OH275829   1.831   2.274   0.455  0.2342 -0.2495  0.3505
18113TIP3    H175830   1.764   2.323   0.406 -0.5219 -2.5200 -1.0428
18113TIP3    H275831   1.914   2.300   0.415 -0.2911 -1.2629 -1.5301
18114TIP3   OH275832   6.510   2.967  14.751  0.6610 -0.2507  0.0092
18114TIP3    H175833   6.601   2.977  14.722  0.6844  1.6594  0.6063
18114TIP3    H275834   6.482   2.883  14.714  2.8179 -1.1383  0.2434
18115TIP3   OH275835   4.807   5.242  15.244  0.6247  0.4496 -0.0690
18115TIP3    H175836   4.848   5.266  15.326 -0.7749  0.2297  0.7363
18115TIP3    H275837   4.774   5.153  15.258  0.7638  0.2325 -1.0207
18116TIP3   OH275838   0.627   0.097   1.676  0.0324 -0.7813  0.7395
18116TIP3    H175839   0.629   0.054   1.591 -2.5885  1.4968 -0.6233
18116TIP3    H275840   0.669   0.182   1.661  0.1933 -0.6349  1.9225
18117TIP3   OH275841   1.538   0.187   0.463  0.1630 -0.1411  0.2881
18117TIP3    H175842   1.535   0.195   0.367  1.2555  1.5005  0.3492
18117TIP3    H275843   1.451   0.215   0.491 -0.4208 -1.3675 -0.2511
18118TIP3   OH275844   5.235   5.479  14.023 -0.2340 -0.1397 -0.0035
18118TIP3    H175845   5.277   5.485  13.937 -1.1920 -0.1217 -0.4825
18118TIP3    H275846   5.149   5.520  14.011 -1.5332 -2.6139  0.1727
18119TIP3   OH275847   3.307   6.625  10.853  0.1555  0.1799  0.1785
18119TIP3    H175848   3.308   6.716  10.880 -0.8085 -0.2610  1.8009
18119TIP3    H275849   3.399   6.600  10.847  0.4140  1.1109  0.2211
18120TIP3   OH275850   5.895   1.057   2.692 -0.7656 -0.5484 -0.2834
18120TIP3    H175851   5.830   1.062   2.622  0.9639  0.0401 -1.9432
18120TIP3    H275852   5.925   0.966   2.691 -0.6160 -0.4975 -0.4254
18121TIP3   OH275853   3.743   4.012  14.393  0.0377  0.0249 -1.0180
18121TIP3    H175854   3.787   4.097  14.390  0.9603 -0.4578 -1.6879
18121TIP3    H275855   3.744   3.988  14.485  2.1715 -0.4553 -1.1140
18122TIP3   OH275856   1.178   1.827   6.234  0.2114  0.3814 -0.0575
18122TIP3    H175857   1.118   1.753   6.233  0.5882  0.0592 -1.9395
18122TIP3    H275858   1.218   1.825   6.322 -0.1995 -1.2785  0.1127
18123TIP3   OH275859   2.100   0.534  15.972  0.1071 -0.7677 -0.5322
18123TIP3    H175860   2.128   0.595  15.903  2.5199 -1.6024 -0.3761
18123TIP3    H275861   2.007   0.521  15.955 -0.3481  2.2819 -1.0650
18124TIP3   OH275862   4.443   4.636  13.458  0.1222  0.1309  0.6159
18124TIP3    H175863   4.494   4.560  13.488  1.8060 -0.1601 -2.5272
18124TIP3    H275864   4.402   4.607  13.377 -0.4429  2.1104  0.1370
18125TIP3   OH275865   6.060   2.915  15.232 -0.0042  0.4079 -0.1421
18125TIP3    H175866   5.967   2.910  15.253 -0.2225  0.3896 -1.0947
18125TIP3    H275867   6.064   2.966  15.151  0.7747 -0.0096 -0.3764
18126TIP3   OH275868   6.050   5.914   0.057  0.1855  0.5062 -0.7501
18126TIP3    H175869   6.086   5.986   0.109 -0.0710  0.0224  0.0964
18126TIP3    H275870   6.125   5.858   0.039  0.5145  1.2755 -1.9408
18127TIP3   OH275871   6.115   1.033  13.712 -0.0412 -0.6659 -0.7044
18127TIP3    H175872   6.060   1.074  13.779  2.1827 -1.1263  1.6029
18127TIP3    H275873   6.108   1.089  13.636 -1.9092  0.4900  0.2648
18128TIP3   OH275874   4.304   5.541   3.198  0.0259 -1.3067 -0.0576
18128TIP3    H175875   4.262   5.543   3.112 -2.1846  2.8306  0.8546
18128TIP3    H275876   4.236   5.510   3.257  0.2284 -0.4096  0.6698
18129TIP3   OH275877   3.948   6.268   5.424 -0.6237  0.1588 -0.1750
18129TIP3    H175878   3.960   6.187   5.474 -1.4332 -0.3400 -0.7623
18129TIP3    H275879   4.014   6.265   5.355 -0.5179  0.1008 -0.0714
18130TIP3   OH275880   4.620   4.695  11.793 -0.2897 -0.4151  0.0489
18130TIP3    H175881   4.534   4.697  11.835  0.1592  2.2736  1.0288
18130TIP3    H275882   4.622   4.774  11.739  1.8133  0.0016  0.6491
18131TIP3   OH275883   0.966   6.356   4.887 -0.1311  0.3387  0.2304
18131TIP3    H175884   0.917   6.426   4.931  0.5460  0.3393  1.0070
18131TIP3    H275885   0.934   6.276   4.928  0.2681  0.3155  0.5002
18132TIP3   OH275886   2.349   1.334   3.210  0.7071 -0.7154  0.3768
18132TIP3    H175887   2.336   1.423   3.179 -1.0487 -0.5635  1.4416
18132TIP3    H275888   2.399   1.343   3.291 -1.2151 -0.4816  1.5946
18133TIP3   OH275889   4.737   6.201   1.186 -0.6746  0.5981  0.1228
18133TIP3    H175890   4.777   6.137   1.127  0.4845  1.0298  0.4190
18133TIP3    H275891   4.687   6.149   1.249 -1.7859  0.1167 -1.1066
18134TIP3   OH275892   6.505   3.800  13.945 -0.4471  0.0004  0.2484
18134TIP3    H175893   6.559   3.878  13.952 -1.6398  0.9245 -0.3056
18134TIP3    H275894   6.481   3.778  14.035  0.7306 -0.3542  0.4836
18135TIP3   OH275895   0.424   1.535   4.873  0.0037  0.5424  0.4123
18135TIP3    H175896   0.406   1.543   4.779  0.1195 -0.4158  0.2887
18135TIP3    H275897   0.447   1.442   4.884 -0.5566  0.5162  1.4802
18136TIP3   OH275898   4.056   2.646   1.580  0.1615 -1.1494  0.3983
18136TIP3    H175899   4.060   2.554   1.607  2.0125 -0.8394  1.3416
18136TIP3    H275900   4.018   2.692   1.655  1.5544 -0.8341  0.9379
18137TIP3   OH275901   0.813   1.618  15.822  0.4128  0.0170 -0.0323
18137TIP3    H175902   0.828   1.574  15.738 -1.0586 -0.0977 -0.2564
18137TIP3    H275903   0.725   1.653  15.816  1.4686  2.9891  0.1887
18138TIP3   OH275904   1.253   5.742  16.963  0.2621 -0.6047 -0.4806
18138TIP3    H175905   1.336   5.752  16.916 -0.4040 -0.8158 -1.7508
18138TIP3    H275906   1.186   5.760  16.897 -0.7556  3.3578  1.3389
18139TIP3   OH275907   5.037   4.732   1.641  0.2045 -0.0752 -0.0711
18139TIP3    H175908   5.113   4.768   1.688  1.0128 -0.4151 -1.0681
18139TIP3    H275909   5.024   4.793   1.568 -2.3161  1.6007  1.6283
18140TIP3   OH275910   6.742   1.316  14.651  0.2485  0.5719 -0.2763
18140TIP3    H175911   6.790   1.310  14.568  0.4493 -0.7555 -0.0946
18140TIP3    H275912   6.780   1.391  14.695  1.5516  0.0960 -0.5336
18141TIP3   OH275913   3.978   1.150  17.288 -0.6412 -0.3373  0.0938
18141TIP3    H175914   3.966   1.059  17.260 -0.3516 -1.4683  3.2895
18141TIP3    H275915   3.927   1.157  17.369 -0.4491  2.3015  0.0565
18142TIP3   OH275916   6.416   6.560  11.504 -0.2450 -0.4423  0.4221
18142TIP3    H175917   6.445   6.474  11.537 -0.1634 -0.4312  0.3789
18142TIP3    H275918   6.497   6.609  11.491 -0.3436  0.0473  1.5405
18143TIP3   OH275919   6.637   1.104  16.721 -0.6361  0.3238  0.0263
18143TIP3    H175920   6.667   1.032  16.665 -0.4181 -1.3022  2.0734
18143TIP3    H275921   6.559   1.138  16.677 -1.2438 -1.7482 -0.6255
18144TIP3   OH275922   3.792   4.653  10.823  0.1024 -0.3379 -0.2870
18144TIP3    H175923   3.706   4.694  10.839 -0.5731 -2.3638  1.8764
18144TIP3    H275924   3.797   4.645  10.728 -1.1595  1.7124 -0.5915
18145TIP3   OH275925   1.940   1.277  15.870  0.0662 -0.0005  0.1216
18145TIP3    H175926   1.932   1.311  15.781  0.5477 -1.7213 -0.6128
18145TIP3    H275927   1.857   1.301  15.912 -0.6873 -0.2558 -1.1675
18146TIP3   OH275928   4.222   2.263  11.058 -0.4034 -0.5146  0.0823
18146TIP3    H175929   4.141   2.311  11.072  0.2854  0.8087 -0.2476
18146TIP3    H275930   4.214   2.228  10.969  0.7849  2.6753 -1.4444
18147TIP3   OH275931   2.230   3.257   4.232  0.0254  0.3864 -0.0128
18147TIP3    H175932   2.152   3.279   4.284 -0.0580  1.8170 -0.6846
18147TIP3    H275933   2.218   3.165   4.209 -2.2663  0.9456 -1.4053
18148TIP3   OH275934   2.081   0.153   4.186 -0.5340  0.2705  0.5028
18148TIP3    H175935   1.988   0.139   4.164 -0.5823 -2.4416  1.9764
18148TIP3    H275936   2.129   0.100   4.123 -0.3452 -2.1190  2.4663
18149TIP3   OH275937   3.882   3.282  12.846  0.3194  0.6789  0.2141
18149TIP3    H175938   3.858   3.257  12.756 -0.5538 -1.1443  0.9067
18149TIP3    H275939   3.867   3.376  12.850  1.0834  0.9374 -1.7567
18150TIP3   OH275940   5.459   3.209   2.278 -0.7977 -0.0347  0.0195
18150TIP3    H175941   5.388   3.170   2.328  0.1250 -0.1403  1.3273
18150TIP3    H275942   5.436   3.301   2.271 -2.3877 -0.5276 -2.0093
18151TIP3   OH275943   3.135   0.650  16.852 -0.2825 -0.0659  0.2339
18151TIP3    H175944   3.190   0.592  16.799  0.1616 -0.8296  1.5024
18151TIP3    H275945   3.196   0.695  16.910 -0.9459 -0.9291  1.6713
18152TIP3   OH275946   3.897   6.195   5.110  0.0652  0.1128 -0.5750
18152TIP3    H175947   3.867   6.219   5.197  0.1369  0.6392 -0.6921
18152TIP3    H275948   3.982   6.237   5.101  0.1061 -0.0266 -0.8576
18153TIP3   OH275949   0.818   1.387  10.470  0.0962  0.3930  0.5183
18153TIP3    H175950   0.876   1.317  10.502  0.4749  0.7447  0.6151
18153TIP3    H275951   0.730   1.357  10.492  0.3655  0.9176  2.5059
18154TIP3   OH275952   0.290   2.800  12.375  0.1970  0.1217 -0.2587
18154TIP3    H175953   0.256   2.762  12.294  3.0114 -1.1146 -0.9983
18154TIP3    H275954   0.278   2.894  12.365  0.2412 -0.0293 -2.0170
18155TIP3   OH275955   0.737   2.575  10.283 -0.2324  0.2271 -0.6837
18155TIP3    H175956   0.660   2.568  10.227  1.2844  0.4651 -2.9386
18155TIP3    H275957   0.710   2.630  10.356 -2.1479  0.3919 -1.4761
18156TIP3   OH275958   5.163   5.274   3.900  0.1403 -0.5967  0.3590
18156TIP3    H175959   5.233   5.289   3.964  0.8358  2.5869 -0.9386
18156TIP3    H275960   5.208   5.234   3.825 -0.1034 -1.6071  0.7426
18157TIP3   OH275961   0.008   0.429   1.075  0.3098 -0.1409  0.1882
18157TIP3    H175962   0.072   0.358   1.083  0.6021 -0.3253 -2.7378
18157TIP3    H275963  -0.075   0.384   1.061  0.1099  0.1129  0.5397
18158TIP3   OH275964   4.088   1.321   0.496 -0.6837  0.4044 -0.1234
18158TIP3    H175965   3.994   1.299   0.494 -0.5514 -0.3152  0.7527
18158TIP3    H275966   4.102   1.372   0.417 -1.8015  0.4352 -0.3234
18159TIP3   OH275967   2.153   1.165   5.504 -0.4637  0.2021 -0.0231
18159TIP3    H175968   2.158   1.208   5.419 -0.4181  0.0779 -0.0841
18159TIP3    H275969   2.117   1.078   5.484 -3.0881  1.0941  0.3886
18160TIP3   OH275970   1.817   2.534   5.019  0.4596  0.1544 -0.2889
18160TIP3    H175971   1.731   2.529   5.061  0.7147 -2.4519  0.1026
18160TIP3    H275972   1.874   2.576   5.084 -0.1491  0.4114  0.0817
18161TIP3   OH275973   0.169   3.323   5.337  0.0367  0.8659  0.2302
18161TIP3    H175974   0.181   3.289   5.248  0.3970 -1.1421  1.0039
18161TIP3    H275975   0.074   3.332   5.346  0.0556  3.4883 -1.1439
18162TIP3   OH275976   1.608   3.633   3.926 -0.5322  0.5691  0.1945
18162TIP3    H175977   1.571   3.646   3.838 -0.9877  1.7912  0.5434
18162TIP3    H275978   1.703   3.635   3.912 -0.6019  0.5217 -0.3049
18163TIP3   OH275979   3.705   2.198  16.940  0.7140  0.3413 -0.0407
18163TIP3    H175980   3.782   2.171  16.889  0.4243  1.6782 -1.2383
18163TIP3    H275981   3.649   2.120  16.942  0.4325  0.4123 -2.3962
18164TIP3   OH275982   1.485   5.611   6.116 -0.4637 -0.1557 -0.0691
18164TIP3    H175983   1.539   5.690   6.123 -1.2191  0.4062 -0.4763
18164TIP3    H275984   1.475   5.581   6.206 -3.0309  2.1915  0.5866
18165TIP3   OH275985   0.005   3.590  15.488 -0.3529 -0.0232  0.4727
18165TIP3    H175986  -0.008   3.500  15.459 -0.6812  0.2445 -0.2483
18165TIP3    H275987   0.100   3.598  15.498 -0.1675  0.0111 -1.0832
18166TIP3   OH275988   2.037   0.311   2.064 -0.0742  0.6195 -0.0650
18166TIP3    H175989   1.969   0.377   2.047 -0.8889 -0.4208 -0.9669
18166TIP3    H275990   2.082   0.344   2.141 -2.3013  0.8292  1.2424
18167TIP3   OH275991   4.487   6.730  13.370  0.4616 -0.2843 -0.6393
18167TIP3    H175992   4.410   6.674  13.366  1.5290 -1.8283 -0.5420
18167TIP3    H275993   4.529   6.719  13.284  1.5357 -0.9573 -0.0576
18168TIP3   OH275994   3.347   0.243   5.138  0.5135  0.1325 -0.6489
18168TIP3    H175995   3.420   0.203   5.092  1.3863  0.2742  0.5696
18168TIP3    H275996   3.327   0.322   5.088  1.5844  0.3978 -0.6850
18169TIP3   OH275997   2.928   2.235  12.500 -0.1423  0.3091 -0.1279
18169TIP3    H175998   2.931   2.320  12.455 -0.5285 -0.0223 -0.7904
18169TIP3    H275999   2.939   2.257  12.592  3.0811  0.8044 -0.5217
18170TIP3   OH276000   4.848   4.113  14.750 -0.7458 -0.0530 -0.0879
18170TIP3    H176001   4.801   4.055  14.810 -0.7750 -1.5892 -1.5279
18170TIP3    H276002   4.836   4.073  14.664  0.0843  1.5750 -1.0010
18171TIP3   OH276003   2.826   2.335  14.383  0.8027 -0.0911  0.0735
18171TIP3    H176004   2.845   2.385  14.463 -2.4591  1.2614  0.1322
18171TIP3    H276005   2.868   2.386  14.314  1.3277  0.2399  0.6178
18172TIP3   OH276006   2.146   6.535  12.809  0.2072 -0.7246  0.6672
18172TIP3    H176007   2.218   6.590  12.840 -0.5934  0.5260  0.3665
18172TIP3    H276008   2.158   6.530  12.715 -0.9818  0.8378  0.4013
18173TIP3   OH276009   6.775   3.271   2.810  0.1032 -0.1068  0.2981
18173TIP3    H176010   6.776   3.279   2.714  2.2122 -0.7617  0.2107
18173TIP3    H276011   6.696   3.221   2.829 -0.2405 -0.1606 -1.1192
18174TIP3   OH276012   1.854   0.002  13.754  0.7213  0.0838  0.0049
18174TIP3    H176013   1.871  -0.044  13.672  0.7662  0.1009  0.0048
18174TIP3    H276014   1.878   0.093  13.736  0.8339  0.0683  0.0683
18175TIP3   OH276015   2.661   3.482   5.344  0.1491  0.1205  0.4752
18175TIP3    H176016   2.719   3.429   5.290  2.2585  2.8656 -0.1657
18175TIP3    H276017   2.703   3.482   5.431  0.3807  1.0176  0.3685
18176TIP3   OH276018   1.710   6.016  11.454 -0.1152 -0.2607 -0.7126
18176TIP3    H176019   1.803   6.004  11.434  0.7612  0.1718  2.5384
18176TIP3    H276020   1.689   5.944  11.513 -1.7065 -0.0192 -0.9550
18177TIP3   OH276021   1.461   5.140   0.384  0.2929  0.0675  0.0037
18177TIP3    H176022   1.418   5.222   0.409  0.7392  0.1732  0.4364
18177TIP3    H276023   1.457   5.086   0.463 -1.4891 -0.9933 -0.7298
18178TIP3   OH276024   0.570   3.942   6.122 -0.1260  0.4568 -0.0815
18178TIP3    H176025   0.507   3.950   6.194 -0.6922  0.0695 -0.5272
18178TIP3    H276026   0.648   3.987   6.154 -0.2557  0.0060  0.9072
18179TIP3   OH276027   2.098   4.830  17.208  0.2164 -0.3884  0.6341
18179TIP3    H176028   2.158   4.766  17.247 -0.2502 -1.4659 -0.3422
18179TIP3    H276029   2.048   4.779  17.144  0.4704  1.1575 -0.8551
18180TIP3   OH276030   2.385   5.077   5.705  0.2015  0.0986  0.0197
18180TIP3    H176031   2.392   5.162   5.661  1.4666  0.8242  1.5076
18180TIP3    H276032   2.465   5.031   5.681  1.5006  0.9595  2.3204
18181TIP3   OH276033   0.124   3.694  11.776 -0.0269 -0.7225 -0.0941
18181TIP3    H176034   0.065   3.715  11.704  2.3640  2.9035 -1.2575
18181TIP3    H276035   0.069   3.697  11.854 -2.0477 -1.4597 -1.4049
18182TIP3   OH276036   2.497   0.640  15.724 -0.1524  0.4929  0.6056
18182TIP3    H176037   2.586   0.612  15.744  1.5929  1.3560 -4.4993
18182TIP3    H276038   2.453   0.560  15.695  0.0394  0.5690  0.0905
18183TIP3   OH276039   2.478   4.723  11.384 -0.0801  0.6769 -0.2337
18183TIP3    H176040   2.439   4.641  11.352 -0.7769 -0.2838  2.8123
18183TIP3    H276041   2.570   4.701  11.398 -0.4133  0.1508  1.2617
18184TIP3   OH276042   5.552   0.215   5.365 -0.2107  0.4726  0.2515
18184TIP3    H176043   5.464   0.239   5.395  0.0970  0.4038  1.2357
18184TIP3    H276044   5.601   0.296   5.369  0.0327  0.3059  0.6684
18185TIP3   OH276045   5.829   2.444   0.214  0.2701  0.4692 -0.0174
18185TIP3    H176046   5.821   2.407   0.302  0.4504 -0.2103 -0.2764
18185TIP3    H276047   5.745   2.489   0.200  0.7970  1.8536  1.0484
18186TIP3   OH276048   2.396   1.162   2.888 -0.2246  0.0220  0.4038
18186TIP3    H176049   2.332   1.224   2.921 -0.6321 -0.0435 -0.2486
18186TIP3    H276050   2.479   1.209   2.890 -0.4264  0.3726  0.4985
18187TIP3   OH276051   3.527   4.833  14.987 -0.3705 -0.0277 -0.5765
18187TIP3    H176052   3.439   4.870  14.979 -1.0389 -1.2733  0.5643
18187TIP3    H276053   3.514   4.749  15.031  1.5798  0.5829  1.3628
18188TIP3   OH276054   1.761   0.696   5.239 -0.3805 -0.2961 -0.1283
18188TIP3    H176055   1.796   0.669   5.324 -0.5535 -4.6648 -1.2297
18188TIP3    H276056   1.666   0.691   5.249 -0.4828  1.0594 -0.1439
18189TIP3   OH276057   6.149   6.404  13.841 -0.6052  0.8921  0.4211
18189TIP3    H176058   6.057   6.431  13.848 -0.6170  1.0601 -0.2568
18189TIP3    H276059   6.146   6.309  13.834 -0.6564  0.8116  1.4228
18190TIP3   OH276060   0.032   0.172   3.308  0.3969 -0.2240 -0.3146
18190TIP3    H176061  -0.011   0.092   3.280  2.7663 -1.3622 -0.9527
18190TIP3    H276062  -0.038   0.227   3.342 -1.2340 -2.7622  0.6572
18191TIP3   OH276063   4.661   0.956  13.788  0.2938  0.3810 -0.0741
18191TIP3    H176064   4.661   1.020  13.717  1.3653 -0.6774 -1.0670
18191TIP3    H276065   4.654   0.872  13.744  1.6045 -0.3317  1.0293
18192TIP3   OH276066   0.802   3.014   4.946  0.0927  0.2001  1.0042
18192TIP3    H176067   0.891   3.029   4.914 -0.8078 -0.3778 -2.1050
18192TIP3    H276068   0.761   3.100   4.943  0.2267  0.2818  1.4172
18193TIP3   OH276069   2.334   4.801  15.890 -0.1220  0.6086 -0.5921
18193TIP3    H176070   2.391   4.844  15.826  1.3368 -1.2302 -0.6003
18193TIP3    H276071   2.349   4.849  15.971  2.2709 -0.4082 -0.3447
18194TIP3   OH276072   1.525   2.384  11.803 -0.1493 -0.1174 -0.0823
18194TIP3    H176073   1.479   2.393  11.719  0.1491  0.7638 -0.1642
18194TIP3    H276074   1.585   2.459  11.805 -0.6538  0.2640  1.2433
18195TIP3   OH276075   3.133   2.547  12.850 -0.0358 -0.2417 -0.3215
18195TIP3    H176076   3.057   2.595  12.884  0.0035 -1.2450  1.3061
18195TIP3    H276077   3.116   2.538  12.757 -1.7068 -0.0637 -0.0665
18196TIP3   OH276078   2.290   4.166  13.387 -0.3207  0.1142  0.0941
18196TIP3    H176079   2.316   4.074  13.377 -0.3004  0.2175 -0.9895
18196TIP3    H276080   2.369   4.210  13.418 -0.1686 -0.1501  0.0872
18197TIP3   OH276081   3.503   2.535   3.868  0.0056  0.4474  0.4230
18197TIP3    H176082   3.554   2.529   3.787 -2.5186  0.6515 -1.3026
18197TIP3    H276083   3.415   2.558   3.839 -1.1802 -0.1772  3.2056
18198TIP3   OH276084   0.224   1.977  15.272  0.1599  0.6743  0.2218
18198TIP3    H176085   0.300   1.981  15.214 -0.3072  1.8302 -0.3450
18198TIP3    H276086   0.148   1.979  15.213 -0.3479 -1.1369  0.7345
18199TIP3   OH276087   5.441   6.074   0.504  0.2148  0.5617 -0.1368
18199TIP3    H176088   5.441   6.169   0.514  1.5105  0.6447 -0.6722
18199TIP3    H276089   5.435   6.040   0.593  0.5937  1.1558  0.1204
18200TIP3   OH276090   4.605   4.077   3.363  0.1338  0.0320  0.1346
18200TIP3    H176091   4.677   4.018   3.387  0.3600  0.6579  1.0531
18200TIP3    H276092   4.632   4.114   3.279  2.8972  3.2613  2.1674
18201TIP3   OH276093   3.522   0.320   5.426 -0.3048 -0.1399  0.2085
18201TIP3    H176094   3.516   0.227   5.405 -0.8137 -0.0669  0.0034
18201TIP3    H276095   3.612   0.333   5.455  0.4848 -0.2382 -2.0134
18202TIP3   OH276096   0.385   5.340  11.986 -0.2574  0.0827 -0.2368
18202TIP3    H176097   0.325   5.405  11.950 -0.1364  2.0181  2.7333
18202TIP3    H276098   0.460   5.391  12.018  0.8657 -1.7757  0.2887
18203TIP3   OH276099   6.623   2.486   4.628  0.1007 -0.6078 -0.0151
18203TIP3    H176100   6.564   2.499   4.554  1.0789 -1.0014 -0.8917
18203TIP3    H276101   6.566   2.474   4.703 -0.9540 -1.7857 -0.9693
18204TIP3   OH276102   5.664   0.550   0.041  0.1153 -0.2757  0.5188
18204TIP3    H176103   5.631   0.624   0.090  1.1374 -0.0937  0.9697
18204TIP3    H276104   5.622   0.473   0.080 -0.6911  0.0256  0.2657
18205TIP3   OH276105   1.383   3.977   6.482 -0.0523 -0.4188 -0.1403
18205TIP3    H176106   1.341   3.982   6.568  0.2764 -0.8242  0.0428
18205TIP3    H276107   1.383   4.068   6.450  0.5909 -0.1302  0.6468
18206TIP3   OH276108   3.485   4.873   2.368  0.1507  0.1118 -0.4700
18206TIP3    H176109   3.406   4.926   2.368  0.1985  0.1890 -1.0988
18206TIP3    H276110   3.546   4.919   2.310  1.7549  1.6250  2.2284
18207TIP3   OH276111   5.849   5.444   0.918 -0.1792 -0.1731  0.0466
18207TIP3    H176112   5.876   5.526   0.878  0.6808 -0.1383  0.6671
18207TIP3    H276113   5.758   5.458   0.943 -0.2335  0.3615 -0.4391
18208TIP3   OH276114   0.717   2.900  14.030 -0.4598 -0.2245 -0.6010
18208TIP3    H176115   0.759   2.832  14.083 -2.6325 -0.9001  0.3694
18208TIP3    H276116   0.710   2.975  14.088  0.4888  0.3154 -1.1606
18209TIP3   OH276117   2.970   4.177   2.738  0.2661  0.2369 -0.2826
18209TIP3    H176118   2.885   4.215   2.715  0.0626  0.6897  1.1693
18209TIP3    H276119   2.949   4.106   2.798  0.7671 -1.2097 -1.7276
18210TIP3   OH276120   0.527   0.819  14.659 -0.5140  0.2274  0.2703
18210TIP3    H176121   0.572   0.800  14.741 -0.4875 -0.8299  0.0202
18210TIP3    H276122   0.460   0.750  14.652  0.9224 -1.0718 -1.6736
18211TIP3   OH276123   3.972   5.602  15.689  0.7780 -0.8260  0.2252
18211TIP3    H176124   3.882   5.578  15.667  1.1738 -2.2200  0.0488
18211TIP3    H276125   3.963   5.665  15.760 -0.3181 -1.6145  0.8115
18212TIP3   OH276126   0.592   4.700  16.130  0.4123 -0.0885 -0.3985
18212TIP3    H176127   0.682   4.702  16.162 -0.1473 -0.5468  1.3606
18212TIP3    H276128   0.553   4.624  16.172 -1.3187  1.1897  0.4888
18213TIP3   OH276129   3.514   5.987  15.188  0.1224  0.5784  0.7661
18213TIP3    H176130   3.585   6.018  15.132 -2.0930  0.8606 -2.1930
18213TIP3    H276131   3.524   5.892  15.189  0.0008  0.5375 -0.4890
18214TIP3   OH276132   6.200   3.357  12.833 -0.4062 -0.3028  0.1780
18214TIP3    H176133   6.135   3.358  12.903 -1.1869 -0.0253 -0.5309
18214TIP3    H276134   6.187   3.273  12.789  0.0688 -0.4710  0.3608
18215TIP3   OH276135   5.499   6.249   1.650 -0.2199  0.1201 -0.3590
18215TIP3    H176136   5.520   6.287   1.735 -0.1240 -0.7234  0.0034
18215TIP3    H276137   5.504   6.322   1.589 -0.1143  0.6991  0.3338
18216TIP3   OH276138   6.771   0.294  12.344 -0.3253  0.7900 -0.1696
18216TIP3    H176139   6.801   0.328  12.428  0.8374 -0.0747 -0.2156
18216TIP3    H276140   6.702   0.231  12.366  0.4608  0.0409  0.1992
18217TIP3   OH276141   4.291   2.678   6.073  0.2060  0.0920 -0.4610
18217TIP3    H176142   4.353   2.625   6.122  0.1896  1.0291  0.6307
18217TIP3    H276143   4.234   2.615   6.030 -0.8277 -0.8314  2.0707
18218TIP3   OH276144   0.554   3.060  11.414  0.4671  0.3239 -0.3165
18218TIP3    H176145   0.648   3.048  11.427  0.4781  1.5678  1.0190
18218TIP3    H276146   0.526   3.111  11.489 -0.9875  1.3881 -1.5204
18219TIP3   OH276147   5.703   3.183   2.457 -0.2616  0.1668 -1.1120
18219TIP3    H176148   5.633   3.163   2.394 -1.3945  0.5974 -0.0305
18219TIP3    H276149   5.707   3.278   2.458 -0.4742  0.1735 -0.3144
18220TIP3   OH276150   3.121   5.625   4.607 -1.0429  0.0584 -0.4274
18220TIP3    H176151   3.030   5.624   4.637 -1.3152 -0.7284 -1.2635
18220TIP3    H276152   3.152   5.536   4.619 -0.5002  0.2271 -0.5337
18221TIP3   OH276153   0.801   6.289  16.299 -0.1245 -0.4808  0.3132
18221TIP3    H176154   0.741   6.265  16.229 -1.0180  0.5581  0.6992
18221TIP3    H276155   0.848   6.208  16.319  1.7070 -0.3736 -2.9139
18222TIP3   OH276156   1.125   6.357   1.173  0.4276  0.4205 -0.1535
18222TIP3    H176157   1.220   6.361   1.164  0.3136 -1.3727 -3.2602
18222TIP3    H276158   1.097   6.448   1.165  1.7440  0.7144 -1.9046
18223TIP3   OH276159   2.564   4.509  15.953  0.2956 -0.0653  0.4273
18223TIP3    H176160   2.631   4.525  16.020 -0.4992 -1.2411  1.5492
18223TIP3    H276161   2.515   4.591  15.949  0.1116 -0.0923  1.6002
18224TIP3   OH276162   4.485   2.281   4.097 -0.5439  0.3805 -0.0707
18224TIP3    H176163   4.402   2.301   4.141 -0.6242 -0.8779  0.3850
18224TIP3    H276164   4.552   2.306   4.161 -0.6318 -0.3515  0.3202
18225TIP3   OH276165   0.437   0.335   3.887 -0.2533 -0.1402 -0.1371
18225TIP3    H176166   0.437   0.307   3.796 -1.5766  1.6409 -0.7301
18225TIP3    H276167   0.427   0.254   3.937 -0.1381 -1.0786 -1.5935
18226TIP3   OH276168   2.878   3.399  11.315 -0.5702 -0.1749  0.6953
18226TIP3    H176169   2.926   3.402  11.398  1.9382 -0.8835 -0.6272
18226TIP3    H276170   2.864   3.491  11.292  2.0249  0.1871  0.2016
18227TIP3   OH276171   2.851   4.309   3.226 -0.4825  0.0436  0.6207
18227TIP3    H176172   2.830   4.399   3.202 -0.2033 -0.4723 -1.7573
18227TIP3    H276173   2.772   4.259   3.202  0.0981 -0.6138  0.0440
18228TIP3   OH276174   2.824   5.470   5.906  0.3897 -0.2085 -0.0218
18228TIP3    H176175   2.732   5.494   5.895  0.8454  1.7442  0.0150
18228TIP3    H276176   2.839   5.479   6.000  1.1023  1.5780 -0.2688
18229TIP3   OH276177   2.480   1.942   4.771  0.0091 -0.0197 -0.1157
18229TIP3    H176178   2.440   1.861   4.803  0.5725 -0.3819 -0.3181
18229TIP3    H276179   2.573   1.931   4.788 -0.1029  1.4081  1.6182
18230TIP3   OH276180   2.369   2.204   1.985 -0.4201  0.1817  0.1151
18230TIP3    H176181   2.452   2.251   1.995 -0.0151 -0.0610 -1.7287
18230TIP3    H276182   2.391   2.128   1.932 -2.0329  0.7986 -1.5238
18231TIP3   OH276183   4.835   2.307   1.001  0.4069  0.2681 -0.6633
18231TIP3    H176184   4.772   2.334   1.068 -1.1149 -1.2819 -1.3856
18231TIP3    H276185   4.872   2.225   1.035  0.1976 -0.1193 -1.3626
18232TIP3   OH276186   1.400   3.109   1.656 -0.2033  0.1424 -0.8605
18232TIP3    H176187   1.334   3.169   1.688 -0.1772 -0.8492  1.1652
18232TIP3    H276188   1.426   3.058   1.732  0.7254 -1.5472 -2.2324
18233TIP3   OH276189   5.961   5.337   0.479 -0.0312 -0.3141  0.2182
18233TIP3    H176190   5.952   5.428   0.453  0.4695  0.1774  1.6982
18233TIP3    H276191   5.871   5.307   0.494 -0.3192 -0.5492 -1.7555
18234TIP3   OH276192   3.636   1.853  11.493  0.3312  0.3449  0.3763
18234TIP3    H176193   3.713   1.853  11.435 -0.7297  0.1677 -1.0882
18234TIP3    H276194   3.665   1.806  11.571  1.7162  0.3086 -0.1242
18235TIP3   OH276195   0.741   0.402  13.765  0.1134  0.6105  0.4770
18235TIP3    H176196   0.794   0.480  13.785  1.2459 -0.7459  3.4469
18235TIP3    H276197   0.691   0.387  13.845 -1.5103 -0.6621 -0.7263
18236TIP3   OH276198   2.767   1.620   1.508 -0.1753 -0.0580  0.1075
18236TIP3    H176199   2.729   1.599   1.422 -1.7510 -0.4417  0.8526
18236TIP3    H276200   2.710   1.575   1.570  2.1813 -1.6146  1.2980
18237TIP3   OH276201   5.781   3.748  11.766  0.3963  0.3185 -0.2921
18237TIP3    H176202   5.760   3.819  11.826  0.8503 -0.1747  0.4727
18237TIP3    H276203   5.806   3.675  11.823 -0.1028 -0.4721 -1.0546
18238TIP3   OH276204   4.291   0.349  17.115 -0.3113  0.6894  0.2242
18238TIP3    H176205   4.377   0.315  17.141  0.5046  1.4065 -1.3582
18238TIP3    H276206   4.242   0.272  17.088 -0.3629  0.2107  1.6284
18239TIP3   OH276207   0.849   3.971  12.242 -0.1202 -0.3265  0.2742
18239TIP3    H176208   0.852   4.051  12.294  0.3131  0.8808 -1.5453
18239TIP3    H276209   0.919   3.980  12.178  0.3338 -2.4549  0.3756
18240TIP3   OH276210   0.902   5.926   3.390  0.2746 -0.5264  0.3660
18240TIP3    H176211   0.922   5.891   3.477 -0.5522 -0.5890  0.5392
18240TIP3    H276212   0.806   5.935   3.390  0.1643 -1.4568 -0.8826
18241TIP3   OH276213   0.661   3.743  12.626  0.3254 -0.2669  0.2306
18241TIP3    H176214   0.677   3.695  12.544  1.9883 -0.1360  0.4494
18241TIP3    H276215   0.717   3.820  12.621 -2.1123  1.6319  0.0019
18242TIP3   OH276216   3.135   0.101  11.837 -0.2668 -0.4464  0.5854
18242TIP3    H176217   3.230   0.099  11.821  0.0999 -0.1767  2.5028
18242TIP3    H276218   3.110   0.191  11.817 -0.0372 -0.3981  0.5053
18243TIP3   OH276219   1.388   2.558   4.145 -0.0577  0.8172 -0.4680
18243TIP3    H176220   1.332   2.497   4.097  0.3595 -0.1545  0.2355
18243TIP3    H276221   1.454   2.585   4.081  0.4734 -0.4346 -0.4902
18244TIP3   OH276222   4.744   5.683   6.203  0.3839  0.2023  0.7440
18244TIP3    H176223   4.807   5.644   6.143  0.3277 -1.9883  2.0119
18244TIP3    H276224   4.792   5.693   6.285 -0.5630 -0.3489  1.3854
18245TIP3   OH276225   5.514   5.323   5.453 -0.1953  0.1385  0.6106
18245TIP3    H176226   5.597   5.369   5.462 -0.6233  1.1833 -0.5512
18245TIP3    H276227   5.526   5.241   5.502  2.6630 -1.2403 -2.0519
18246TIP3   OH276228   3.736   2.383   0.948 -0.3039 -0.6429 -0.4299
18246TIP3    H176229   3.724   2.322   0.876 -2.4627  0.1191 -0.8029
18246TIP3    H276230   3.719   2.469   0.909 -0.2385 -0.0996  0.7010
18247TIP3   OH276231   3.093   2.862  15.582 -0.2388  0.3224  0.5325
18247TIP3    H176232   3.137   2.806  15.518  0.5620  1.3406  0.1544
18247TIP3    H276233   3.047   2.927  15.529  0.6655  1.3471  0.9663
18248TIP3   OH276234   5.318   6.178   4.000 -0.0735  0.2715 -0.5408
18248TIP3    H176235   5.401   6.226   3.998  1.7147 -2.5667 -2.9943
18248TIP3    H276236   5.306   6.155   4.092  1.5807  1.2241 -0.0470
18249TIP3   OH276237   2.904   0.380  17.138  0.4785  0.5353 -0.1266
18249TIP3    H176238   2.864   0.328  17.069  3.6694 -0.6543 -1.2465
18249TIP3    H276239   2.889   0.471  17.112 -0.1674  0.1142 -1.2731
18250TIP3   OH276240   5.254   6.304  13.643  0.5277 -0.0275  0.0995
18250TIP3    H176241   5.300   6.220  13.649  0.5703 -0.0114  0.0061
18250TIP3    H276242   5.163   6.284  13.665  0.2939 -0.3146 -1.0570
18251TIP3   OH276243   4.837   1.047  15.222  0.0682  0.2514 -0.3209
18251TIP3    H176244   4.931   1.055  15.205 -0.4429  3.3757 -2.4154
18251TIP3    H276245   4.818   1.116  15.285 -1.0848  0.9433 -1.3804
18252TIP3   OH276246   1.648   5.633  12.155  0.3421 -0.1361 -0.4643
18252TIP3    H176247   1.660   5.550  12.108  0.0692  0.8549 -2.3831
18252TIP3    H276248   1.669   5.700  12.091  0.3668  1.3141  0.9952
18253TIP3   OH276249   5.433   5.616  12.342 -0.6070  0.3947  0.0532
18253TIP3    H176250   5.455   5.705  12.315 -1.4169  0.7007  0.3878
18253TIP3    H276251   5.341   5.606  12.319 -0.8170  0.0253  1.0159
18254TIP3   OH276252   6.444   3.341  11.728  0.1529  0.2730 -0.0110
18254TIP3    H176253   6.494   3.381  11.799  0.7137 -1.1888  0.4490
18254TIP3    H276254   6.456   3.401  11.654 -2.0078  2.8755  1.5317
18255TIP3   OH276255   1.134   0.576  11.387  0.1923  0.1929  0.3075
18255TIP3    H176256   1.130   0.537  11.474  2.2458  0.1937  0.4659
18255TIP3    H276257   1.190   0.516  11.337  0.6750  1.2190 -0.4226
18256TIP3   OH276258   6.269   0.271  14.445 -0.1124 -0.5367  0.4021
18256TIP3    H176259   6.316   0.298  14.366 -0.8725 -1.0568 -0.2521
18256TIP3    H276260   6.334   0.222  14.495  0.2874 -0.5026 -0.0641
18257TIP3   OH276261   0.247   0.112   5.067 -0.1015 -0.1797  0.2086
18257TIP3    H176262   0.295   0.121   5.150  0.8377 -1.7709 -0.1209
18257TIP3    H276263   0.157   0.137   5.089  0.8001  2.8576  0.8501
18258TIP3   OH276264   0.703   2.192   1.966 -0.1851 -0.4420  0.0662
18258TIP3    H176265   0.753   2.273   1.977  1.2621 -1.2892 -0.0669
18258TIP3    H276266   0.626   2.204   2.022  0.4688  0.6556  0.7637
18259TIP3   OH276267   6.060   3.681   4.225 -0.3502  0.3048  0.1299
18259TIP3    H176268   6.051   3.725   4.309 -0.6349 -2.1927  1.5145
18259TIP3    H276269   6.106   3.599   4.246 -0.0408 -0.1905 -2.2142
18260TIP3   OH276270   3.328   5.245  16.818 -0.1570  0.1039  0.3040
18260TIP3    H176271   3.396   5.311  16.803  0.5365 -0.7530 -0.4695
18260TIP3    H276272   3.366   5.187  16.884  0.4905 -1.1942 -1.1640
18261TIP3   OH276273   5.367   1.245   0.894 -0.5507  0.1758  0.2286
18261TIP3    H176274   5.452   1.243   0.938 -0.4207  2.3414  0.1764
18261TIP3    H276275   5.310   1.194   0.951 -0.3064  2.5710  2.8558
18262TIP3   OH276276   1.884   0.616  14.416  0.5446 -0.1685 -0.1437
18262TIP3    H176277   1.877   0.561  14.339  0.7501 -0.6137  0.1519
18262TIP3    H276278   1.898   0.554  14.488 -0.7095  0.1461  0.3994
18263TIP3   OH276279   1.374   3.088   2.819 -1.0384  0.3936 -0.2899
18263TIP3    H176280   1.304   3.023   2.808 -0.5073 -0.6570  1.9402
18263TIP3    H276281   1.446   3.055   2.765 -1.2236 -0.1768 -0.1928
18264TIP3   OH276282   4.926   6.567   2.482  0.2687 -0.5234  0.1842
18264TIP3    H176283   5.001   6.573   2.542 -0.5734 -0.3070  1.2447
18264TIP3    H276284   4.855   6.613   2.528 -0.2588  0.1224 -1.2261
18265TIP3   OH276285   0.783   1.603   4.863  0.7890  0.4333 -0.3200
18265TIP3    H176286   0.855   1.665   4.861  1.9198 -0.7339  1.3730
18265TIP3    H276287   0.776   1.571   4.773  2.4638  0.5263 -0.5144
18266TIP3   OH276288   6.446   4.193   1.911 -0.4814  0.4330 -0.1519
18266TIP3    H176289   6.532   4.234   1.905 -1.2215  1.9754 -0.8367
18266TIP3    H276290   6.458   4.106   1.871  0.3361  1.3571 -2.0521
18267TIP3   OH276291   1.102   6.448  14.841  0.5051  0.1121  0.3611
18267TIP3    H176292   1.039   6.519  14.831 -0.2347 -0.2804  1.8606
18267TIP3    H276293   1.093   6.396  14.762 -1.3040 -0.1049  0.6627
18268TIP3   OH276294   4.477   4.338   0.287 -0.1427 -0.2349  0.0432
18268TIP3    H176295   4.527   4.395   0.346 -0.7600  0.5216 -0.1612
18268TIP3    H276296   4.485   4.379   0.201  1.5220 -1.8102 -0.6401
18269TIP3   OH276297   2.593   1.675  13.770 -0.1263  0.2397  0.2088
18269TIP3    H176298   2.575   1.738  13.700  0.3120 -1.6053 -1.6715
18269TIP3    H276299   2.625   1.728  13.843 -2.5562  2.4446 -0.1991
18270TIP3   OH276300   4.287   5.989  12.783 -0.3064  0.4223 -0.2608
18270TIP3    H176301   4.374   6.029  12.780  0.5871 -1.2778  1.1203
18270TIP3    H276302   4.234   6.052  12.831  1.3670 -0.3940  2.9507
18271TIP3   OH276303   0.507   2.846  10.721  0.4999 -0.1675 -0.4492
18271TIP3    H176304   0.457   2.863  10.801  2.4632  0.0550  0.7913
18271TIP3    H276305   0.491   2.754  10.701 -0.5928 -0.0338 -0.2639
18272TIP3   OH276306   0.951   1.306   4.883 -0.1918 -0.5231 -0.0684
18272TIP3    H176307   0.978   1.381   4.830 -1.1671 -1.7561 -2.4941
18272TIP3    H276308   0.856   1.316   4.892 -0.1841 -0.9186  0.5179
18273TIP3   OH276309   0.581   5.215  14.375 -0.2007  0.3312  0.3582
18273TIP3    H176310   0.504   5.159  14.384  0.3853 -0.5422  0.0238
18273TIP3    H276311   0.586   5.234  14.281  1.4642 -1.7919 -0.0612
18274TIP3   OH276312   0.047   5.329  11.340 -0.4219 -0.1464 -0.3491
18274TIP3    H176313   0.086   5.284  11.266  1.3588 -0.0082  0.4583
18274TIP3    H276314   0.095   5.298  11.416  1.7614  3.7690  0.1798
18275TIP3   OH276315   5.949   5.689  17.210 -0.2185 -0.0406  0.3510
18275TIP3    H176316   5.864   5.705  17.250 -0.1972 -1.4466  0.9890
18275TIP3    H276317   5.997   5.771  17.223 -1.5363  0.8767 -0.2583
18276TIP3   OH276318   3.650   5.560   0.943 -0.7587  0.2786  0.6004
18276TIP3    H176319   3.686   5.644   0.972 -0.3388  1.1201 -2.0113
18276TIP3    H276320   3.726   5.502   0.940 -0.4823  0.6580 -0.2565
18277TIP3   OH276321   0.455   5.406   3.009  0.0788  0.6257 -0.0525
18277TIP3    H176322   0.411   5.459   2.942  0.4984  2.0278  0.7360
18277TIP3    H276323   0.497   5.335   2.960 -1.1736  0.5381 -1.0555
18278TIP3   OH276324   6.374   5.920   5.580 -0.4327 -0.6308  0.1844
18278TIP3    H176325   6.399   5.828   5.570 -1.9076 -1.1080  0.6417
18278TIP3    H276326   6.455   5.969   5.563  0.3869 -2.0049 -0.0169
18279TIP3   OH276327   0.515   3.294  13.411 -0.1818  0.1100  0.2565
18279TIP3    H176328   0.596   3.338  13.436  0.5620 -0.7731 -0.5166
18279TIP3    H276329   0.543   3.217  13.361 -1.5080  0.1064 -0.5553
18280TIP3   OH276330   2.022   4.766  16.732  0.0415 -0.1440 -0.1510
18280TIP3    H176331   2.077   4.781  16.655 -1.7835  1.7973 -1.2018
18280TIP3    H276332   1.970   4.688  16.710 -0.1192  0.1116 -0.7065
18281TIP3   OH276333   5.169   0.816  11.150  0.2727  0.2417  0.1680
18281TIP3    H176334   5.191   0.856  11.066 -0.1490  0.5923  0.2196
18281TIP3    H276335   5.078   0.789  11.141 -0.5043  2.2815  1.2464
18282TIP3   OH276336   4.431   6.784  11.251  0.0343 -0.1717  0.5530
18282TIP3    H176337   4.370   6.815  11.184 -0.1446  1.2941  1.3621
18282TIP3    H276338   4.518   6.807  11.218  0.0012 -0.2089  0.4409
18283TIP3   OH276339   3.966   0.988  13.170  0.4830 -0.7571  0.5002
18283TIP3    H176340   3.913   0.908  13.174  0.2997 -0.6818 -0.1823
18283TIP3    H276341   4.033   0.968  13.103  1.2053 -0.7849  1.2153
18284TIP3   OH276342   3.976   0.559  11.895 -0.3439 -0.3139  0.2864
18284TIP3    H176343   4.055   0.518  11.930 -1.0898 -3.9444 -1.8040
18284TIP3    H276344   3.970   0.526  11.805 -2.4697  2.5847 -0.7903
18285TIP3   OH276345   2.631   0.874  13.247  0.8399 -0.4847 -0.0973
18285TIP3    H176346   2.685   0.952  13.235  1.9276 -1.0844  0.8003
18285TIP3    H276347   2.588   0.862  13.162  2.8092 -0.5044 -1.1511
18286TIP3   OH276348   0.160   0.542  14.263 -0.3340 -0.2870 -0.0180
18286TIP3    H176349   0.111   0.564  14.342 -0.7815 -1.3738  0.0318
18286TIP3    H276350   0.098   0.556  14.192 -0.7115 -1.5775  0.0375
18287TIP3   OH276351   0.691   0.750  16.376  0.4493 -0.5806 -0.1404
18287TIP3    H176352   0.651   0.665  16.392 -0.0796 -0.2267  0.5033
18287TIP3    H276353   0.698   0.790  16.463  0.8418 -0.0394 -0.4141
18288TIP3   OH276354   4.610   2.873  12.302  0.0820 -0.3418  0.2302
18288TIP3    H176355   4.699   2.850  12.329  0.8656  1.5353 -0.5864
18288TIP3    H276356   4.571   2.790  12.274  1.4640 -1.2468  0.8817
18289TIP3   OH276357   1.346   5.002  14.476  0.2251  0.3911  0.3392
18289TIP3    H176358   1.297   4.946  14.537  0.4660  0.9065  1.0154
18289TIP3    H276359   1.299   4.993  14.393 -1.0750  0.9198  0.9792
18290TIP3   OH276360   2.890   4.553  13.136  0.7513  0.8272 -0.0681
18290TIP3    H176361   2.845   4.506  13.206 -0.6153  2.0956 -0.0379
18290TIP3    H276362   2.982   4.552  13.161  0.3791  0.6230  1.3680
18291TIP3   OH276363   0.212   0.297   5.942  0.3788 -0.6575 -0.1166
18291TIP3    H176364   0.133   0.264   5.985  0.0939  0.8790  0.6291
18291TIP3    H276365   0.284   0.264   5.995  0.0107  1.7103  2.0588
18292TIP3   OH276366   4.479   4.308  16.852  0.2818 -0.5836  0.3388
18292TIP3    H176367   4.569   4.332  16.828  0.2490 -0.0181  0.7830
18292TIP3    H276368   4.430   4.390  16.847  0.0672 -0.6391  1.3940
18293TIP3   OH276369   4.246   3.666  10.764 -0.0987 -0.6434 -0.1869
18293TIP3    H176370   4.226   3.576  10.738  0.8180 -1.0331  0.4145
18293TIP3    H276371   4.246   3.715  10.681 -1.0861 -1.0870 -0.4681
18294TIP3   OH276372   3.717   6.228   5.922  0.4696  0.6741  0.2986
18294TIP3    H176373   3.628   6.203   5.950  0.5949 -0.3815 -0.2183
18294TIP3    H276374   3.710   6.242   5.828  0.5859  1.8349  0.4518
18295TIP3   OH276375   5.871   6.643  14.055 -0.5072 -0.3849  0.5948
18295TIP3    H176376   5.830   6.723  14.089 -0.3938 -0.3186  0.5751
18295TIP3    H276377   5.836   6.634  13.967  1.0291  0.7732 -0.1844
18296TIP3   OH276378   5.780   3.624   5.821  0.0935 -0.1524  0.1351
18296TIP3    H176379   5.744   3.567   5.889 -2.5197  0.5440 -0.5381
18296TIP3    H276380   5.764   3.713   5.854 -1.4852  0.2084 -1.4054
18297TIP3   OH276381   1.523   0.816   2.008 -0.3395  0.0367 -0.3279
18297TIP3    H176382   1.522   0.863   2.092 -1.5004  1.3998 -1.0612
18297TIP3    H276383   1.434   0.782   1.998 -0.9644  1.9592 -2.0686
18298TIP3   OH276384   4.263   4.369  13.054  1.0558  0.1592  0.1686
18298TIP3    H176385   4.301   4.287  13.023  1.0836 -0.0722  0.7899
18298TIP3    H276386   4.223   4.408  12.977  0.6656 -0.6441 -0.0484
18299TIP3   OH276387   0.948   0.110  15.964  0.1750  0.6517 -0.3443
18299TIP3    H176388   0.886   0.075  16.028  1.4118  0.7293  0.9396
18299TIP3    H276389   0.893   0.141  15.892 -1.3146  1.1663  0.9567
18300TIP3   OH276390   6.453   2.254  16.831  0.1552  0.2422  0.3010
18300TIP3    H176391   6.522   2.312  16.864  0.2940 -0.3468  1.0834
18300TIP3    H276392   6.381   2.267  16.893 -1.5957  3.0167 -2.0739
18301TIP3   OH276393   6.446   2.566   4.202 -0.0308  0.4129  0.3019
18301TIP3    H176394   6.480   2.629   4.138  3.0245 -1.9221 -0.5831
18301TIP3    H276395   6.428   2.487   4.151 -3.3249  0.2710  1.4562
18302TIP3   OH276396   3.676   5.537  12.614 -0.1840  0.5052  1.1876
18302TIP3    H176397   3.669   5.598  12.541  0.3092 -0.9681 -0.1564
18302TIP3    H276398   3.591   5.492  12.616  0.8901 -1.8717 -0.8094
18303TIP3   OH276399   1.323   2.784  10.518 -0.4183 -0.1221 -0.2955
18303TIP3    H176400   1.370   2.726  10.578 -0.3025 -0.0138 -0.2817
18303TIP3    H276401   1.369   2.868  10.525 -2.0073  0.6915  1.5053
18304TIP3   OH276402   6.087   4.640  12.543  0.5990 -0.8630 -0.1275
18304TIP3    H176403   6.054   4.662  12.630 -0.4242 -1.4854 -0.3387
18304TIP3    H276404   6.179   4.666  12.545  1.1864 -2.7766  1.8661
18305TIP3   OH276405   6.013   1.762  15.181  0.5515  0.4427  0.2787
18305TIP3    H176406   5.988   1.686  15.129 -0.4026  1.4253 -0.7755
18305TIP3    H276407   5.984   1.837  15.129  0.8883  1.5148  1.5697
18306TIP3   OH276408   4.330   1.790   2.555  0.0554  0.1297  0.1228
18306TIP3    H176409   4.334   1.831   2.469 -3.3821  2.4708  0.9195
18306TIP3    H276410   4.416   1.806   2.593  0.7939  1.3040 -1.8917
18307TIP3   OH276411   1.408   4.161  14.367 -0.0241 -1.2354  0.1469
18307TIP3    H176412   1.473   4.099  14.402 -0.6472 -1.6766  0.5480
18307TIP3    H276413   1.385   4.215  14.442 -0.8988 -1.7726  0.2791
18308TIP3   OH276414   1.595   3.778  11.519  0.4050 -0.2157  0.5061
18308TIP3    H176415   1.526   3.775  11.586  0.1166 -0.8641  0.1820
18308TIP3    H276416   1.595   3.691  11.481 -1.0113  0.7581 -1.9373
18309TIP3   OH276417   1.998   1.358   2.607  0.2866 -0.3365  0.1887
18309TIP3    H176418   2.072   1.304   2.580 -0.9994 -2.3631  0.4820
18309TIP3    H276419   1.996   1.430   2.545  2.9248  0.1938  0.6279
18310TIP3   OH276420   4.701   5.765  15.100 -0.2131  0.2018 -0.5711
18310TIP3    H176421   4.787   5.766  15.059  0.1662 -0.5245  0.1731
18310TIP3    H276422   4.716   5.801  15.188 -0.6780  0.1159 -0.4505
18311TIP3   OH276423   2.798   5.387  12.744 -0.4133 -0.0043 -0.3234
18311TIP3    H176424   2.759   5.306  12.711 -0.5801  0.3020 -0.8785
18311TIP3    H276425   2.749   5.457  12.702  0.1369  0.3880 -0.3268
18312TIP3   OH276426   0.984   4.284  13.182 -0.1317 -0.1494 -0.3874
18312TIP3    H176427   0.955   4.198  13.151 -1.7047  1.2678 -3.2924
18312TIP3    H276428   1.037   4.318  13.111  0.6395  1.2166  0.7978
18313TIP3   OH276429   2.794   6.213  11.221  0.0548 -1.0537 -0.3965
18313TIP3    H176430   2.795   6.124  11.186 -1.6830 -1.1410 -0.3241
18313TIP3    H276431   2.702   6.240  11.213  0.5081  0.6332 -0.1678
18314TIP3   OH276432   4.654   2.698   1.767 -0.4218  0.0280 -0.1868
18314TIP3    H176433   4.721   2.637   1.737 -1.0589 -0.8548  0.1090
18314TIP3    H276434   4.574   2.667   1.724 -1.0479 -0.3034  1.1806
18315TIP3   OH276435   0.153   5.621   2.973 -0.1663 -0.5582  0.4932
18315TIP3    H176436   0.184   5.582   2.891 -0.4880 -3.7092  1.7069
18315TIP3    H276437   0.065   5.653   2.953 -0.4112 -1.6665 -0.3411
18316TIP3   OH276438   4.508   1.608  16.546  0.0841  0.4631 -0.2205
18316TIP3    H176439   4.573   1.593  16.615  0.4770  2.2749 -0.1295
18316TIP3    H276440   4.489   1.521  16.511  4.7701 -0.0712 -2.2414
18317TIP3   OH276441   2.856   5.148  15.638 -0.6379 -0.2840 -0.3005
18317TIP3    H176442   2.881   5.235  15.605  0.6733 -0.1135  1.0637
18317TIP3    H276443   2.769   5.161  15.676 -1.3526 -0.0671 -1.8912
18318TIP3   OH276444   5.032   5.004   0.457 -0.1103  0.0546 -0.0564
18318TIP3    H176445   5.117   4.999   0.413 -0.0883  1.8862 -0.3169
18318TIP3    H276446   4.981   4.933   0.418  2.2371 -3.3512  2.4658
18319TIP3   OH276447   0.679   6.466   2.685 -0.1585 -0.7530 -0.5851
18319TIP3    H176448   0.689   6.420   2.768  0.0558 -2.2956 -1.4326
18319TIP3    H276449   0.622   6.540   2.705  0.1504 -0.9006  0.9915
18320TIP3   OH276450   3.445   3.771   4.128 -0.1867 -0.2474 -0.1959
18320TIP3    H176451   3.366   3.791   4.177 -0.7486  0.3154 -1.2976
18320TIP3    H276452   3.451   3.676   4.129  1.0750 -0.2565  2.8660
18321TIP3   OH276453   4.135   6.678  17.082 -0.6126 -0.2216 -0.4386
18321TIP3    H176454   4.180   6.637  17.156 -0.0584 -1.2797 -1.3353
18321TIP3    H276455   4.054   6.711  17.120  0.0807  0.1136  0.8403
18322TIP3   OH276456   3.725   6.766   1.454 -0.0725 -0.6091  0.2442
18322TIP3    H176457   3.746   6.709   1.528 -0.9024 -2.9658 -1.2216
18322TIP3    H276458   3.674   6.837   1.492  0.1149 -1.3699  2.0223
18323TIP3   OH276459   4.851   5.811  10.737  0.6081 -0.1127 -0.1582
18323TIP3    H176460   4.768   5.857  10.744  0.2686 -0.8310  0.6767
18323TIP3    H276461   4.917   5.877  10.758  0.1095 -0.0670  1.3867
18324TIP3   OH276462   6.015   2.450   1.707 -0.5339  0.1197  0.0778
18324TIP3    H176463   6.086   2.388   1.725 -1.2638 -0.2434  1.9654
18324TIP3    H276464   6.034   2.484   1.620 -0.3757 -3.1580 -1.3209
18325TIP3   OH276465   3.023   3.625  14.502  0.0107 -0.4032 -0.3638
18325TIP3    H176466   3.104   3.658  14.465  0.5237 -0.2813  0.8367
18325TIP3    H276467   2.962   3.621  14.428  1.3870 -1.4552 -1.4796
18326TIP3   OH276468   4.929   5.256   0.417 -0.4326  0.2979 -0.6241
18326TIP3    H176469   4.837   5.243   0.441 -0.2038 -1.8967 -0.7447
18326TIP3    H276470   4.975   5.183   0.459  1.1593  0.9702 -1.1361
18327TIP3   OH276471   0.760   5.362  17.061  0.2725 -0.0076 -0.2704
18327TIP3    H176472   0.673   5.359  17.022  0.1255 -1.9969  0.0869
18327TIP3    H276473   0.816   5.315  16.999  0.6307 -0.6428  0.5210
18328TIP3   OH276474   4.062   4.090   0.808  0.1825  0.3717  0.5193
18328TIP3    H176475   4.013   4.147   0.749 -0.4676 -0.8598 -0.1703
18328TIP3    H276476   4.147   4.079   0.766  0.3604  0.9210  0.7235
18329TIP3   OH276477   2.991   3.377  16.454 -0.3694  0.2958  0.2792
18329TIP3    H176478   3.015   3.415  16.539  2.0901 -1.4336  0.4452
18329TIP3    H276479   2.978   3.284  16.472 -1.1700  0.1251 -1.0345
18330TIP3   OH276480   3.951   1.568   3.770  0.2189 -0.2852 -0.1720
18330TIP3    H176481   3.974   1.547   3.680  1.0966 -0.3112  0.0439
18330TIP3    H276482   3.909   1.490   3.804  0.8356 -0.6573 -0.2483
18331TIP3   OH276483   5.901   2.990  11.935 -0.1308  0.7072 -0.5593
18331TIP3    H176484   5.980   2.936  11.928  0.4157  1.5126 -0.7477
18331TIP3    H276485   5.917   3.046  12.011 -1.0517  0.0480  0.1462
18332TIP3   OH276486   1.061   3.299   0.033 -0.4051 -0.8662  0.0399
18332TIP3    H176487   1.016   3.217   0.056 -1.4668 -0.6187 -1.0207
18332TIP3    H276488   1.052   3.305  -0.062  1.6490 -0.6257 -0.1870
18333TIP3   OH276489   5.370   5.015  11.044 -0.0971  0.5514 -0.7798
18333TIP3    H176490   5.303   4.982  10.984  0.4422 -0.4796 -0.8486
18333TIP3    H276491   5.446   4.959  11.026  0.6962  1.5395 -0.5331
18334TIP3   OH276492   5.824   2.552  15.136 -0.0567  0.3342 -0.4330
18334TIP3    H176493   5.800   2.629  15.187  0.5866  0.0337  0.3457
18334TIP3    H276494   5.917   2.565  15.114  0.1345 -0.3329 -0.0594
18335TIP3   OH276495   0.509   4.136  11.938  0.2359 -0.5205  0.2349
18335TIP3    H176496   0.421   4.134  11.900  0.5311  1.7837 -0.7227
18335TIP3    H276497   0.507   4.068  12.006 -2.1469 -0.7923 -0.0123
18336TIP3   OH276498   1.620   1.333  14.735 -0.5736 -0.2109 -0.2670
18336TIP3    H176499   1.530   1.301  14.739 -0.9011  0.8521  1.4352
18336TIP3    H276500   1.628   1.394  14.807  0.5499  2.2604 -2.3189
18337TIP3   OH276501   0.124   2.913   3.306  0.0412  0.0060  0.6283
18337TIP3    H176502   0.047   2.910   3.249  1.4048  4.0377 -1.7859
18337TIP3    H276503   0.194   2.874   3.253  0.4780 -0.0567  1.2480
18338TIP3   OH276504   6.087   1.245  14.541  0.0717  0.1803 -0.4746
18338TIP3    H176505   6.101   1.339  14.554 -0.6458  0.4008 -1.2219
18338TIP3    H276506   6.139   1.204  14.610  2.5391  1.0132 -1.7120
18339TIP3   OH276507   0.434   6.605   0.355 -0.2965 -0.5886 -0.8224
18339TIP3    H176508   0.388   6.678   0.397  0.1985  0.3828 -1.9185
18339TIP3    H276509   0.364   6.547   0.325 -0.7072 -0.4388 -0.1847
18340TIP3   OH276510   4.770   5.171   0.175 -0.7299  0.5437  0.2660
18340TIP3    H176511   4.811   5.088   0.150 -0.8602  0.3857  0.5685
18340TIP3    H276512   4.824   5.204   0.247  0.8367  1.9937 -1.4860
18341TIP3   OH276513   6.074   0.308   5.020  0.8800  0.8004  0.6318
18341TIP3    H176514   6.098   0.384   4.967 -0.3666 -0.3402 -1.7059
18341TIP3    H276515   5.982   0.323   5.042 -0.2291 -1.1369 -2.1307
18342TIP3   OH276516   3.043   5.270   4.358 -0.3304 -0.0357 -0.2345
18342TIP3    H176517   3.031   5.365   4.358  0.7648  0.1352 -1.9236
18342TIP3    H276518   3.090   5.252   4.277  1.3396 -1.7980  1.0582
18343TIP3   OH276519   5.809   5.157  13.002 -0.0534  0.0551 -0.1724
18343TIP3    H176520   5.902   5.136  12.999 -0.2065 -0.7353  0.3650
18343TIP3    H276521   5.802   5.241  12.956  1.0029  0.4158  0.3002
18344TIP3   OH276522   1.355   5.371   0.465 -0.5179 -0.4064 -0.3508
18344TIP3    H176523   1.384   5.401   0.552 -1.4986  0.4936 -0.3152
18344TIP3    H276524   1.267   5.336   0.480 -0.7467 -0.1254 -0.9914
18345TIP3   OH276525   1.913   0.152  16.762  0.1750 -0.0868 -0.5191
18345TIP3    H176526   1.890   0.176  16.672 -0.2513  0.8685 -0.1679
18345TIP3    H276527   1.829   0.136  16.804  0.4159 -1.3605 -0.5064
18346TIP3   OH276528   0.280   2.818  15.026 -0.0299  0.0704 -0.1243
18346TIP3    H176529   0.265   2.910  15.048  1.7692 -0.5149  4.8645
18346TIP3    H276530   0.360   2.819  14.973  0.2804  1.3765  0.3188
18347TIP3   OH276531   1.703   5.307  13.461 -0.2329 -0.2239  0.1035
18347TIP3    H176532   1.693   5.374  13.529 -2.1948 -0.9152  0.5591
18347TIP3    H276533   1.643   5.237  13.487 -1.0456 -0.5282 -2.3022
18348TIP3   OH276534   0.077   5.057  15.594  0.4129  0.8869 -0.1570
18348TIP3    H176535   0.114   4.972  15.571  0.6470  1.0482 -0.3866
18348TIP3    H276536   0.012   5.074  15.525  1.5797  1.6698 -1.0913
18349TIP3   OH276537   3.857   5.655  16.498  0.1866 -0.5524  0.1317
18349TIP3    H176538   3.783   5.597  16.480  0.5732 -0.9374 -0.2416
18349TIP3    H276539   3.932   5.612  16.457  0.6181 -0.1634  0.4984
18350TIP3   OH276540   4.518   4.870  10.842  0.2790 -0.6188 -0.1367
18350TIP3    H176541   4.505   4.938  10.908  0.3943  0.7730 -1.4984
18350TIP3    H276542   4.466   4.796  10.874  0.6918 -0.1673  1.7273
18351TIP3   OH276543   1.349   5.026   4.844 -0.1101  0.5473  0.0488
18351TIP3    H176544   1.297   5.102   4.870 -0.3944  0.3109  0.1825
18351TIP3    H276545   1.336   5.019   4.750  2.0377  2.2487 -0.4611
18352TIP3   OH276546   2.259   0.006   3.539  0.0210 -0.0544  0.3865
18352TIP3    H176547   2.308  -0.076   3.529  0.6800  0.1453  1.7302
18352TIP3    H276548   2.314   0.072   3.497 -0.6137 -0.3031 -0.8948
18353TIP3   OH276549   2.760   0.454   6.368 -0.5525  0.1048 -0.3213
18353TIP3    H176550   2.827   0.412   6.422 -0.0034 -1.4457 -2.0998
18353TIP3    H276551   2.763   0.546   6.395  2.2795  0.0962 -0.2622
18354TIP3   OH276552   6.087   2.653  15.126  0.1461  0.1261 -0.4692
18354TIP3    H176553   6.139   2.689  15.054 -0.8271 -0.5403 -1.5393
18354TIP3    H276554   6.074   2.727  15.185 -0.4569  1.1544 -1.8197
18355TIP3   OH276555   1.818   4.460  16.329  0.9611  0.4428  1.1677
18355TIP3    H176556   1.885   4.527  16.317  0.3364  0.7634 -0.9856
18355TIP3    H276557   1.737   4.502  16.300  0.2958 -0.7589  1.2175
18356TIP3   OH276558   1.107   0.237   4.710 -0.1575  0.6842  0.0098
18356TIP3    H176559   1.101   0.290   4.630 -2.9100 -0.5606 -0.7421
18356TIP3    H276560   1.045   0.278   4.771 -0.3725 -0.1495  0.3635
18357TIP3   OH276561   0.732   0.819  16.637  0.0275 -0.2277 -0.2048
18357TIP3    H176562   0.822   0.843  16.614 -0.0579 -0.2256 -0.5422
18357TIP3    H276563   0.689   0.902  16.656 -0.4197 -0.0348 -1.9126
18358TIP3   OH276564   4.334   0.154   6.009  0.3135 -0.0680  0.0416
18358TIP3    H176565   4.301   0.140   6.098 -0.9628 -0.6157 -0.4951
18358TIP3    H276566   4.396   0.227   6.017  0.2742 -0.1692  1.3874
18359TIP3   OH276567   3.855   0.825   0.208  0.5328 -0.5944  0.0361
18359TIP3    H176568   3.835   0.738   0.241 -0.1326  0.0094  1.2904
18359TIP3    H276569   3.889   0.873   0.283  1.2626  0.1236 -0.7290
18360TIP3   OH276570   5.727   4.644  15.994  0.5666 -0.2919  0.1303
18360TIP3    H176571   5.798   4.702  15.967  0.8770  0.0191  1.5773
18360TIP3    H276572   5.737   4.567  15.938  2.6044 -0.6362  0.8945
18361TIP3   OH276573   3.423   5.135   4.436 -0.3446  0.1801 -0.2264
18361TIP3    H176574   3.335   5.158   4.464 -0.2013  1.1863 -0.5542
18361TIP3    H276575   3.472   5.217   4.443  0.5586 -0.3638 -0.0672
18362TIP3   OH276576   4.588   3.282   4.335 -0.4543 -0.1780  0.1830
18362TIP3    H176577   4.639   3.220   4.388 -0.3671  0.4323  0.8240
18362TIP3    H276578   4.551   3.228   4.265  1.4742 -0.5651 -0.6084
18363TIP3   OH276579   6.184   4.859   3.906  0.6821 -0.3304  0.1969
18363TIP3    H176580   6.230   4.869   3.990  0.4562 -0.4101  0.3294
18363TIP3    H276581   6.209   4.772   3.875  2.2342  0.3806 -0.7081
18364TIP3   OH276582   5.727   6.312  15.406 -0.5288  0.3005 -0.1157
18364TIP3    H176583   5.727   6.392  15.352  0.7872 -0.2774 -1.0437
18364TIP3    H276584   5.769   6.246  15.350  0.9273 -0.3278  1.6242
18365TIP3   OH276585   1.061   3.719  13.300  0.1515 -0.1383  0.0339
18365TIP3    H176586   0.993   3.713  13.368  1.4132  2.1428  1.6337
18365TIP3    H276587   1.017   3.759  13.225 -0.5560  0.2127  0.6259
18366TIP3   OH276588   2.210   4.958  13.684  0.0750  0.5172 -0.1448
18366TIP3    H176589   2.293   5.006  13.684  0.9572 -0.9165  0.7087
18366TIP3    H276590   2.166   4.986  13.604  1.1223  1.7380 -0.3348
18367TIP3   OH276591   0.634   2.583  16.693  0.1402  0.1536  0.1264
18367TIP3    H176592   0.631   2.501  16.741  0.1226 -0.2342 -0.5217
18367TIP3    H276593   0.708   2.631  16.731 -0.3474  0.1946  1.0514
18368TIP3   OH276594   4.592   2.293   5.073  0.5835 -0.0835 -0.4847
18368TIP3    H176595   4.553   2.234   5.008  1.7628 -0.5486 -0.7948
18368TIP3    H276596   4.530   2.365   5.080 -0.6985 -1.1599 -0.3912
18369TIP3   OH276597   6.736   2.532  11.229 -0.4766 -0.6724  0.2112
18369TIP3    H176598   6.686   2.509  11.308  0.2708 -2.4481  0.2236
18369TIP3    H276599   6.822   2.557  11.262 -0.1946 -1.3203 -0.0268
18370TIP3   OH276600   0.894   6.446   3.950 -0.4455  0.3388 -0.3970
18370TIP3    H176601   0.839   6.492   3.886  0.1539  2.2475  0.3917
18370TIP3    H276602   0.917   6.513   4.015  3.3232 -0.1289 -0.9913
18371TIP3   OH276603   1.119   4.932   5.782 -0.1832  0.2919 -0.4128
18371TIP3    H176604   1.068   4.972   5.712 -1.3390  0.6129  0.5803
18371TIP3    H276605   1.155   5.006   5.831 -1.4182  0.1646  0.7709
18372TIP3   OH276606   4.495   6.747  14.009  0.0324  0.2105  0.0195
18372TIP3    H176607   4.462   6.833  14.034  1.5190  0.7152  0.3047
18372TIP3    H276608   4.512   6.754  13.915 -2.8619 -0.8143 -0.6999
18373TIP3   OH276609   1.156   3.114   4.806 -0.0823  0.2800  0.9877
18373TIP3    H176610   1.118   3.150   4.886  0.6803  1.3461  0.9014
18373TIP3    H276611   1.248   3.098   4.828 -0.4519 -1.9795  1.1133
18374TIP3   OH276612   1.797   1.039   3.694  0.4153 -0.1972 -0.0420
18374TIP3    H176613   1.828   1.124   3.664  3.7244 -0.8759  1.0408
18374TIP3    H276614   1.750   1.058   3.776  1.1502  0.6081  0.2084
18375TIP3   OH276615   6.104   5.593  13.987 -0.3547 -0.4730 -0.0042
18375TIP3    H176616   6.088   5.519  13.928  0.6375  0.6636 -1.7747
18375TIP3    H276617   6.097   5.555  14.074  2.4488 -3.2185 -0.8083
18376TIP3   OH276618   1.579   6.636  12.929  0.1274 -0.3307  0.1109
18376TIP3    H176619   1.638   6.666  12.860  3.4480 -1.2258  2.3363
18376TIP3    H276620   1.545   6.716  12.968 -1.1469  0.1903 -1.8719
18377TIP3   OH276621   2.841   0.261  11.815 -0.4128  0.7426  0.1146
18377TIP3    H176622   2.793   0.236  11.737 -1.1136  1.7321  0.2105
18377TIP3    H276623   2.918   0.309  11.782 -0.6291  1.0298  0.0251
18378TIP3   OH276624   3.086   4.448   1.696  0.3713 -0.0419 -0.4197
18378TIP3    H176625   3.125   4.474   1.780  0.4429  0.1684 -0.5160
18378TIP3    H276626   3.045   4.363   1.713 -0.6684  0.5506  0.1439
18379TIP3   OH276627   4.366   4.972  12.813  0.5836  0.6814 -0.1681
18379TIP3    H176628   4.318   4.896  12.846  0.7014  1.0928  0.9831
18379TIP3    H276629   4.304   5.045  12.822 -0.3651  0.4514 -3.2827
18380TIP3   OH276630   3.208   4.661  11.611  0.1937 -0.4891  0.7783
18380TIP3    H176631   3.194   4.568  11.596  1.7893 -1.0396  2.3479
18380TIP3    H276632   3.271   4.665  11.683  0.1320  1.8100  0.7947
18381TIP3   OH276633   3.449   1.279   3.221  0.0469  0.5956 -0.4470
18381TIP3    H176634   3.430   1.209   3.158 -1.4435  0.5579  0.0085
18381TIP3    H276635   3.450   1.235   3.306 -0.4226  1.0431 -0.2052
18382TIP3   OH276636   1.704   0.539   2.613  0.9656  0.2793  0.5308
18382TIP3    H176637   1.675   0.576   2.697  0.1990 -0.6475  0.6851
18382TIP3    H276638   1.631   0.485   2.584  1.4173  0.2097 -0.5105
18383TIP3   OH276639   0.071   0.251   1.691  0.0044 -0.8134  0.1190
18383TIP3    H176640   0.050   0.293   1.608  1.0369 -1.2087 -0.3680
18383TIP3    H276641   0.120   0.173   1.667 -3.3040 -3.3671  0.8866
18384TIP3   OH276642   3.019   3.428   6.142  1.3800  0.3228 -0.3251
18384TIP3    H176643   3.046   3.340   6.115  3.2510  1.8761 -4.5057
18384TIP3    H276644   3.053   3.438   6.230  1.1996 -3.0164  0.2660
18385TIP3   OH276645   4.468   3.069   5.653 -0.8418 -0.0334 -0.9634
18385TIP3    H176646   4.437   2.989   5.695 -0.7530 -1.4501 -3.4307
18385TIP3    H276647   4.564   3.060   5.653 -0.7187  0.9433  0.2677
18386TIP3   OH276648   2.950   3.297   2.925 -0.8200 -0.2085  0.0783
18386TIP3    H176649   2.953   3.360   2.853  1.7263 -1.6683 -1.2497
18386TIP3    H276650   3.018   3.327   2.986 -2.5371  0.6660  1.6588
18387TIP3   OH276651   6.000   6.285  16.987  0.0212  0.6119  0.2434
18387TIP3    H176652   5.919   6.324  17.019 -0.0333 -0.7092  1.8522
18387TIP3    H276653   6.002   6.198  17.027 -0.0349 -1.2493 -3.3886
18388TIP3   OH276654   2.337   3.098   0.443 -0.1700 -0.1649 -0.1819
18388TIP3    H176655   2.329   3.023   0.502 -0.3766 -0.9440 -1.1701
18388TIP3    H276656   2.425   3.090   0.407  0.2967  0.8323  0.6842
18389TIP3   OH276657   3.110   3.860   4.535 -0.0344  0.0579  0.2320
18389TIP3    H176658   3.027   3.895   4.567 -1.2016 -2.5874  0.3426
18389TIP3    H276659   3.132   3.790   4.596  1.7200 -0.0364 -0.4475
18390TIP3   OH276660   4.955   4.046  17.240  0.2818  0.3878 -0.0686
18390TIP3    H176661   4.961   4.014  17.330 -1.8595  0.7444  0.2424
18390TIP3    H276662   4.916   3.974  17.191  1.7987  0.0431 -0.8459
18391TIP3   OH276663   2.292   0.889   6.203 -0.0859  0.2674 -0.2857
18391TIP3    H176664   2.314   0.937   6.283  2.3970 -1.1219 -0.0343
18391TIP3    H276665   2.205   0.851   6.221 -1.0725  2.6551  0.3810
18392TIP3   OH276666   3.196   5.359   2.889  0.0590  0.0873 -0.6083
18392TIP3    H176667   3.255   5.285   2.905  0.3224  0.7506  2.0588
18392TIP3    H276668   3.111   5.329   2.920  0.4829  1.2853  2.0780
18393TIP3   OH276669   3.134   4.227  16.903 -0.1549 -0.3421  0.0992
18393TIP3    H176670   3.131   4.287  16.828  1.8114 -1.5939 -1.0864
18393TIP3    H276671   3.169   4.279  16.975 -1.5894  0.7525  0.0351
18394TIP3   OH276672   0.990   2.256  15.944  0.5017  0.0338  0.4178
18394TIP3    H176673   0.905   2.215  15.961 -1.4406  2.9180 -1.3556
18394TIP3    H276674   1.019   2.217  15.862 -0.6085  1.0390 -0.4932
18395TIP3   OH276675   3.263   4.016   2.971 -0.5187 -0.8347  0.1679
18395TIP3    H176676   3.225   4.101   2.947  2.6780  1.0495  1.1837
18395TIP3    H276677   3.207   3.983   3.041 -1.1011  1.0827  0.6594
18396TIP3   OH276678   6.310   2.565  15.759 -0.5916 -0.0543  0.8807
18396TIP3    H176679   6.280   2.574  15.669 -2.0972  1.1640  1.4698
18396TIP3    H276680   6.386   2.506  15.753  1.4141  2.4930 -1.5775
18397TIP3   OH276681   4.561   4.565   2.284  0.7937 -0.3681 -0.5466
18397TIP3    H176682   4.467   4.567   2.302  0.8915  0.3918 -0.0497
18397TIP3    H276683   4.601   4.567   2.371  1.2737  1.7359 -0.7538
18398TIP3   OH276684   2.307   4.389   6.072  0.3756  0.1040  0.4079
18398TIP3    H176685   2.398   4.416   6.063  0.3459  0.0155 -0.1787
18398TIP3    H276686   2.310   4.293   6.067 -0.0379  0.1663 -2.5375
18399TIP3   OH276687   6.427   2.233   3.632  0.0632 -0.3524 -0.1501
18399TIP3    H176688   6.357   2.237   3.696 -0.1069  0.8057 -0.3910
18399TIP3    H276689   6.503   2.203   3.681  0.3380  2.0393  0.9858
18400TIP3   OH276690   5.138   6.387   2.659 -0.1622  0.3713 -0.2399
18400TIP3    H176691   5.196   6.349   2.592 -1.9827  2.1835 -3.0865
18400TIP3    H276692   5.063   6.327   2.662 -0.1983  0.4296  0.0355
18401TIP3   OH276693   5.291   6.128   0.253 -0.4080 -0.0040  0.1771
18401TIP3    H176694   5.366   6.150   0.197  1.2300 -0.2738  2.1204
18401TIP3    H276695   5.329   6.122   0.341 -2.0493 -3.5899  0.8024
18402TIP3   OH276696   5.205   4.523   1.047  0.1511 -0.3797  0.4175
18402TIP3    H176697   5.264   4.486   1.113 -1.1084 -0.2874  1.6332
18402TIP3    H276698   5.167   4.600   1.089 -0.9053 -0.4931 -0.2977
18403TIP3   OH276699   6.168   1.565   3.840 -0.1753 -0.1916  0.8288
18403TIP3    H176700   6.106   1.636   3.828  1.1594  0.6164 -2.8073
18403TIP3    H276701   6.228   1.596   3.907 -0.5501  1.4561  0.4451
18404TIP3   OH276702   2.193   5.645   4.623 -0.0852 -0.6244  0.5390
18404TIP3    H176703   2.115   5.615   4.576  0.8864 -1.8432 -0.3556
18404TIP3    H276704   2.215   5.572   4.681  1.5103 -1.1687 -0.6644
18405TIP3   OH276705   2.364   1.359   5.567  0.6289  0.5587 -0.2545
18405TIP3    H176706   2.282   1.310   5.556  0.9804 -0.2740  0.7275
18405TIP3    H276707   2.341   1.429   5.629  0.2887  1.2993 -1.1779
18406TIP3   OH276708   1.787   2.485  16.458 -0.0557 -0.0805  0.2897
18406TIP3    H176709   1.831   2.495  16.373  0.4385  0.6373  0.6215
18406TIP3    H276710   1.709   2.433  16.438 -1.1023  1.8258 -1.0066
18407TIP3   OH276711   6.388   5.030  14.238  0.4133 -0.2143  0.1006
18407TIP3    H176712   6.303   5.001  14.205  0.6576 -0.0157 -0.7252
18407TIP3    H276713   6.446   5.027  14.161  0.6154  1.7505  0.1410
18408TIP3   OH276714   3.051   0.532  13.237  0.5008 -0.2219  0.6774
18408TIP3    H176715   3.141   0.540  13.268  1.6056 -2.7874 -1.5001
18408TIP3    H276716   3.012   0.617  13.255  2.8526  0.4625  3.1387
18409TIP3   OH276717   1.630   6.079  15.669 -0.0481 -0.8837 -0.2436
18409TIP3    H176718   1.677   6.039  15.596  0.8657  2.3260 -1.6009
18409TIP3    H276719   1.687   6.151  15.697 -2.4520  0.8118  0.5519
18410TIP3   OH276720   0.426   1.986  11.859 -0.1211 -0.0277 -0.1942
18410TIP3    H176721   0.482   2.061  11.840 -1.2152  0.5740 -1.1552
18410TIP3    H276722   0.356   1.991  11.794 -2.2607  0.2589  1.9746
18411TIP3   OH276723   3.184   4.786   4.179 -0.0079  0.0671  0.0619
18411TIP3    H176724   3.136   4.845   4.237 -2.3342 -1.9854  0.3865
18411TIP3    H276725   3.209   4.712   4.235  1.1750 -0.1724 -0.7380
18412TIP3   OH276726   0.679   6.810  15.292  0.3900 -0.8043  0.1771
18412TIP3    H176727   0.733   6.885  15.320 -1.5150  0.6053  0.2813
18412TIP3    H276728   0.666   6.759  15.372 -0.5742  0.2879  0.7507
18413TIP3   OH276729   0.419   3.023   1.411 -0.4564  0.0691  0.1439
18413TIP3    H176730   0.446   2.931   1.401  0.6234  0.2413  1.2694
18413TIP3    H276731   0.470   3.055   1.485 -1.3359  1.3970  0.2047
18414TIP3   OH276732   5.271   4.153   1.413  0.2917 -0.3514  0.0395
18414TIP3    H176733   5.313   4.075   1.377 -1.3623 -0.5820 -1.6088
18414TIP3    H276734   5.238   4.199   1.336 -0.8107  0.7445  1.1230
18415TIP3   OH276735   6.003   4.108  17.029 -0.1510 -0.1295  0.4835
18415TIP3    H176736   6.080   4.057  17.004  2.0457  3.1010  0.0828
18415TIP3    H276737   6.014   4.124  17.123 -1.4950 -1.3458  0.8839
18416TIP3   OH276738   4.959   4.293  14.196  0.4815  0.1031 -0.0202
18416TIP3    H176739   5.000   4.321  14.114  1.0799  2.5326  1.0380
18416TIP3    H276740   4.894   4.360  14.215 -0.3394 -0.9447  1.0454
18417TIP3   OH276741   3.655   5.826   5.288  0.1701 -0.2318  0.0093
18417TIP3    H176742   3.746   5.810   5.313 -0.1175  0.0474  1.3410
18417TIP3    H276743   3.604   5.772   5.349 -0.5456 -0.9534 -1.2000
18418TIP3   OH276744   0.564   0.305  16.038 -0.3520 -0.3759  0.3665
18418TIP3    H176745   0.591   0.305  15.946  1.4056  2.8193  0.7266
18418TIP3    H276746   0.488   0.363  16.040 -0.8899 -1.0756  0.8705
18419TIP3   OH276747   6.795   4.261   4.429  0.2950 -0.1604 -0.3999
18419TIP3    H176748   6.888   4.275   4.411  0.5824  0.5771  1.4450
18419TIP3    H276749   6.759   4.349   4.438 -0.6933 -0.4275 -1.4259
18420TIP3   OH276750   5.631   3.629   4.714  1.0610  0.7937 -0.1755
18420TIP3    H176751   5.703   3.583   4.672  2.8229  3.0311  0.2022
18420TIP3    H276752   5.652   3.626   4.808 -0.4304 -0.2481  0.1599
18421TIP3   OH276753   1.842   1.496  17.008 -0.7552 -0.2262 -0.1186
18421TIP3    H176754   1.777   1.522  17.073  0.9177 -0.5400  1.7873
18421TIP3    H276755   1.851   1.402  17.020 -0.5023 -0.3053 -0.9040
18422TIP3   OH276756   0.460   5.809  12.992 -0.3525 -0.1973  0.0185
18422TIP3    H176757   0.444   5.724  13.032 -1.8831 -0.1544 -0.4260
18422TIP3    H276758   0.497   5.788  12.906  1.3245 -0.3284  0.7356
18423TIP3   OH276759   5.228   1.153   4.021 -0.2825  0.0722  0.1753
18423TIP3    H176760   5.188   1.221   3.967 -1.7210 -1.0032 -0.1989
18423TIP3    H276761   5.211   1.180   4.111 -0.5581  0.3824  0.0325
18424TIP3   OH276762   2.767   4.536   5.578  0.0550 -0.2994  0.4384
18424TIP3    H176763   2.775   4.502   5.667 -1.2407  0.1920  0.7580
18424TIP3    H276764   2.747   4.459   5.525 -0.9218 -0.3489  0.8562
18425TIP3   OH276765   1.605   5.683   1.538  0.9643 -0.4443  0.2169
18425TIP3    H176766   1.562   5.763   1.567  1.3172 -0.8443  1.9360
18425TIP3    H276767   1.545   5.646   1.473 -0.1301  0.2096  0.8268
18426TIP3   OH276768   1.219   6.545  15.566  0.1782  0.3936 -0.1094
18426TIP3    H176769   1.162   6.620  15.548 -3.0734 -1.7819  0.3257
18426TIP3    H276770   1.199   6.482  15.497  1.7557 -0.6716  0.3481
18427TIP3   OH276771   2.436   4.550   5.392 -0.4014  0.2321 -0.0660
18427TIP3    H176772   2.375   4.606   5.345  0.4686 -0.1753 -1.7687
18427TIP3    H276773   2.410   4.460   5.369 -0.1063  0.0173  0.4108
18428TIP3   OH276774   4.245   1.216   6.228 -0.9742 -0.0830 -0.0907
18428TIP3    H176775   4.272   1.129   6.259  1.5135  1.1955  1.7111
18428TIP3    H276776   4.224   1.265   6.307 -3.0904  0.8105 -1.1217
18429TIP3   OH276777   2.434   0.165   4.612  0.4565  0.2070 -0.1866
18429TIP3    H176778   2.360   0.226   4.619 -0.2139 -0.7418  2.2349
18429TIP3    H276779   2.487   0.183   4.689  0.7207 -1.6198  0.1073
18430TIP3   OH276780   0.690   0.319   0.076  0.4075  0.5191 -0.0643
18430TIP3    H176781   0.726   0.319  -0.013  1.4353  0.0518  0.3353
18430TIP3    H276782   0.766   0.334   0.133 -0.0909 -0.0754  0.7874
18431TIP3   OH276783   2.250   5.122  10.729 -0.7480  0.7294 -0.1126
18431TIP3    H176784   2.247   5.035  10.689 -0.3442 -0.6086  2.5112
18431TIP3    H276785   2.340   5.151  10.718 -0.0739 -0.5759  1.5644
18432TIP3   OH276786   5.537   6.355  11.298 -0.4168 -0.0532 -0.3118
18432TIP3    H176787   5.492   6.427  11.342 -0.1711  0.5437 -1.0144
18432TIP3    H276788   5.542   6.383  11.206 -2.9628 -2.2170 -1.2458
18433TIP3   OH276789   0.338   6.509  14.931 -0.1438 -0.1636 -0.5106
18433TIP3    H176790   0.395   6.433  14.941  1.0436  0.9369  1.7677
18433TIP3    H276791   0.250   6.475  14.942  0.3459 -1.2534  0.1941
18434TIP3   OH276792   5.126   6.735   4.610 -0.2790  0.5103  0.1036
18434TIP3    H176793   5.077   6.777   4.540 -1.7543 -0.9351  0.2099
18434TIP3    H276794   5.217   6.742   4.583 -0.6458  1.8580 -0.8891
18435TIP3   OH276795   0.284   5.541   1.857 -0.5615  0.3047 -0.1868
18435TIP3    H176796   0.373   5.514   1.878 -0.6722 -0.4713 -0.6692
18435TIP3    H276797   0.276   5.528   1.762 -1.0074  0.9096 -0.2404
18436TIP3   OH276798   0.252   5.889  12.112 -0.1805  0.4638  0.1997
18436TIP3    H176799   0.336   5.848  12.088 -0.2055 -0.3187  1.3097
18436TIP3    H276800   0.200   5.816  12.147 -0.3605  1.3635  1.9228
18437TIP3   OH276801   2.775   3.356   4.660 -0.6938 -0.3663  0.4419
18437TIP3    H176802   2.707   3.423   4.663 -0.0650  0.3376 -0.4403
18437TIP3    H276803   2.741   3.291   4.598 -1.4434 -1.0405  1.5350
18438TIP3   OH276804   4.957   5.207   4.438  0.5073  0.2375  0.2122
18438TIP3    H176805   4.876   5.218   4.388  1.3069 -0.2390 -1.2556
18438TIP3    H276806   4.935   5.143   4.505 -0.1880 -0.3662 -0.5710
18439TIP3   OH276807   2.862   1.149   3.938  0.4246  0.1331 -0.2593
18439TIP3    H176808   2.777   1.115   3.909  0.0889 -1.3238  2.1855
18439TIP3    H276809   2.843   1.236   3.973 -0.1189 -0.2599  0.4438
18440TIP3   OH276810   2.331   5.345   1.458  0.3018 -0.7710  0.1999
18440TIP3    H176811   2.314   5.262   1.502 -1.1132 -0.5251  0.1675
18440TIP3    H276812   2.278   5.341   1.378  0.2298  0.1518  0.1916
18441TIP3   OH276813   2.118   0.548   6.202  0.0789  0.3343  0.2870
18441TIP3    H176814   2.087   0.623   6.253 -0.5919 -0.9685  1.8638
18441TIP3    H276815   2.213   0.559   6.200 -0.0282  1.3822  0.2271
18442TIP3   OH276816   3.143   4.147  13.224  0.2384  0.2303  0.2802
18442TIP3    H176817   3.114   4.230  13.263 -0.4033  0.3790 -0.4987
18442TIP3    H276818   3.212   4.117  13.283 -0.7272  0.4342  1.5727
18443TIP3   OH276819   2.622   0.417  16.338 -1.0012 -0.2560 -0.5435
18443TIP3    H176820   2.663   0.369  16.410  0.9481  0.9756 -0.7673
18443TIP3    H276821   2.695   0.446  16.284 -2.3998 -0.9427 -2.9344
18444TIP3   OH276822   2.061   5.808   1.923  0.5296 -0.2956  0.0611
18444TIP3    H176823   1.984   5.784   1.975  0.1392  1.7775  0.5098
18444TIP3    H276824   2.135   5.771   1.972 -0.0513 -0.9655  0.4602
18445TIP3   OH276825   5.875   6.117   0.679 -0.3494 -0.5627 -0.1127
18445TIP3    H176826   5.970   6.116   0.693 -0.4237  0.1158  0.5424
18445TIP3    H276827   5.849   6.025   0.684  0.3824 -0.8560 -1.1984
18446TIP3   OH276828   5.796   1.924   1.364 -0.4255 -0.1139  0.3551
18446TIP3    H176829   5.798   1.896   1.273 -0.7542  2.0993 -0.3989
18446TIP3    H276830   5.746   1.856   1.409 -0.4241 -1.1527 -1.1419
18447TIP3   OH276831   2.318   5.354   0.099 -0.0759 -0.1652 -0.1677
18447TIP3    H176832   2.384   5.295   0.062  0.6852  1.3453 -1.2958
18447TIP3    H276833   2.239   5.336   0.048  0.1139 -0.3226 -0.4119
18448TIP3   OH276834   1.931   2.403  16.206  0.6064 -0.1754 -0.4041
18448TIP3    H176835   2.020   2.389  16.174  0.8188  0.6686 -0.2004
18448TIP3    H276836   1.910   2.324  16.256  0.9199 -0.7453 -1.1565
18449TIP3   OH276837   4.481   1.793  16.196 -0.3187 -0.2711 -0.3402
18449TIP3    H176838   4.448   1.716  16.151  0.5154 -0.8388 -0.0145
18449TIP3    H276839   4.572   1.772  16.216 -1.0686 -0.8480  3.1961
18450TIP3   OH276840   0.040   1.087   2.292  0.1849  0.5292 -0.4225
18450TIP3    H176841   0.098   1.020   2.329 -1.5962 -0.6575  0.3231
18450TIP3    H276842   0.066   1.094   2.200  1.1184 -0.3865 -0.2446
18451TIP3   OH276843   4.588   2.572  14.492  0.1642 -0.0791 -0.2118
18451TIP3    H176844   4.530   2.612  14.427 -0.4463 -0.2970  0.1851
18451TIP3    H276845   4.540   2.578  14.574  1.0299  0.4068  0.2731
18452TIP3   OH276846   1.015   6.351  12.477 -0.0963  0.0766  0.3632
18452TIP3    H176847   0.973   6.271  12.508  0.6131 -0.8733 -0.9912
18452TIP3    H276848   1.097   6.321  12.438  0.6258  1.5860  0.6437
18453TIP3   OH276849   2.480   5.926   2.182  0.2412  0.6492 -0.1901
18453TIP3    H176850   2.507   5.856   2.123 -0.3553 -0.2210  0.5377
18453TIP3    H276851   2.528   6.003   2.152 -2.4210  1.1193 -3.9055
18454TIP3   OH276852   4.169   6.484   5.996 -0.0721  0.2432 -0.2265
18454TIP3    H176853   4.202   6.568   5.963 -3.9713  1.1055 -2.6106
18454TIP3    H276854   4.188   6.422   5.925  0.7568 -0.3825  0.5308
18455TIP3   OH276855   2.776   0.682   0.542 -0.0295  0.0384 -0.3432
18455TIP3    H176856   2.787   0.658   0.634 -0.5000  1.5946  0.1472
18455TIP3    H276857   2.700   0.740   0.541 -0.9769 -1.1583 -1.9608
18456TIP3   OH276858   6.714   2.625  12.209 -0.1166 -0.1532  0.0683
18456TIP3    H176859   6.787   2.637  12.148  0.0121 -0.5533  0.1393
18456TIP3    H276860   6.744   2.666  12.290 -0.0666 -0.1004  0.0226
18457TIP3   OH276861   0.453   4.386   1.036 -0.0530 -0.3913 -0.2877
18457TIP3    H176862   0.427   4.325   1.105  0.9306 -0.1939  0.2825
18457TIP3    H276863   0.540   4.356   1.009  0.1460  0.3416 -0.4856
18458TIP3   OH276864   1.205   5.195  12.635 -0.0358  0.4453  0.5406
18458TIP3    H176865   1.141   5.225  12.570 -1.0508  0.1478  1.3798
18458TIP3    H276866   1.180   5.105  12.654  1.0498  0.0905  0.4064
18459TIP3   OH276867   3.717   2.045  14.712  0.6196 -0.4166  0.4360
18459TIP3    H176868   3.678   2.129  14.687 -0.3348 -0.9692  0.0224
18459TIP3    H276869   3.811   2.060  14.707  0.5274 -0.1349 -2.4014
18460TIP3   OH276870   5.990   1.502   1.683  0.0498 -0.2263  0.3960
18460TIP3    H176871   6.066   1.444   1.681  1.2921  1.2858  1.4091
18460TIP3    H276872   5.935   1.467   1.754  0.4291 -0.5826  0.5192
18461TIP3   OH276873   3.091   6.212  12.295 -0.0586 -0.2957  0.1678
18461TIP3    H176874   3.108   6.250  12.381  1.4224 -1.7324  0.5534
18461TIP3    H276875   3.105   6.118  12.307  0.0013 -0.5405 -1.6029
18462TIP3   OH276876   3.020   1.978   1.696  0.0326 -0.4678 -0.1832
18462TIP3    H176877   3.001   1.976   1.790 -0.7393  0.3273 -0.3103
18462TIP3    H276878   3.077   1.903   1.682 -1.3721 -1.7596  0.6089
18463TIP3   OH276879   1.315   3.831  11.541 -0.1150 -0.2671  0.0801
18463TIP3    H176880   1.301   3.913  11.495  1.9998 -0.3141 -0.7051
18463TIP3    H276881   1.275   3.765  11.484 -0.6073  0.0399  0.0559
18464TIP3   OH276882   4.636   5.671  16.179 -0.2447  0.1107  0.4110
18464TIP3    H176883   4.714   5.702  16.224 -0.3300 -2.3149  2.4713
18464TIP3    H276884   4.670   5.612  16.111 -0.2203  1.8353 -1.1452
18465TIP3   OH276885   2.072   5.120  14.483 -0.6807  0.1683  0.0566
18465TIP3    H176886   2.030   5.133  14.568 -1.6678 -0.4830 -0.3215
18465TIP3    H276887   2.130   5.045  14.496 -0.1496  0.6296  0.3888
18466TIP3   OH276888   1.672   3.311   6.285 -0.1029  0.3810 -0.3362
18466TIP3    H176889   1.697   3.219   6.298 -1.8174 -0.0348  0.2268
18466TIP3    H276890   1.746   3.360   6.320  0.5130 -0.7871  0.0712
18467TIP3   OH276891   5.556   3.977   5.678 -0.6280  0.3764  0.6238
18467TIP3    H176892   5.616   3.975   5.752  0.9649 -2.5127 -0.5889
18467TIP3    H276893   5.611   3.995   5.602 -1.4828 -0.8778 -0.3511
18468TIP3   OH276894   1.880   3.038   2.990 -0.7210 -0.3744  0.7516
18468TIP3    H176895   1.937   3.027   2.914  0.7943 -1.1544  1.9495
18468TIP3    H276896   1.816   3.104   2.962  0.4144  0.1202 -0.8468
18469TIP3   OH276897   0.087   4.668   5.516 -0.8634  0.0230  0.4043
18469TIP3    H176898   0.060   4.688   5.427 -1.5498  1.6858  0.9483
18469TIP3    H276899   0.006   4.642   5.560 -0.4768 -1.0953  0.4780
18470TIP3   OH276900   4.878   6.634  15.386 -0.1147 -0.0111 -0.1949
18470TIP3    H176901   4.807   6.570  15.372 -0.6232  1.0297 -3.0718
18470TIP3    H276902   4.841   6.717  15.358  0.7328  1.5797  2.9112
18471TIP3   OH276903   5.428   3.631   3.720 -0.1963 -0.3302 -0.8119
18471TIP3    H176904   5.416   3.698   3.652 -0.1080  0.8019  0.2527
18471TIP3    H276905   5.522   3.624   3.730 -0.2040 -0.6647 -0.9506
18472TIP3   OH276906   4.582   1.734  12.468 -0.5013  0.3962  0.8216
18472TIP3    H176907   4.538   1.684  12.537 -0.2660  0.5655  1.0957
18472TIP3    H276908   4.515   1.748  12.402 -0.6550 -0.0112  0.8883
18473TIP3   OH276909   1.673   2.317  15.924 -0.0057  0.4612  0.3162
18473TIP3    H176910   1.739   2.252  15.900 -0.6882 -0.2571  0.3625
18473TIP3    H276911   1.708   2.400  15.890  0.5273 -0.0357 -0.3787
18474TIP3   OH276912   4.462   0.126  17.212 -0.3365  0.4157 -0.1012
18474TIP3    H176913   4.400   0.135  17.285 -2.2826 -1.1144 -1.4467
18474TIP3    H276914   4.503   0.041  17.225 -0.0683  0.5062 -0.3437
18475TIP3   OH276915   2.045   1.664  13.080 -0.4557 -0.3262 -0.3044
18475TIP3    H176916   2.117   1.620  13.126  1.3450  0.7481 -1.9390
18475TIP3    H276917   2.009   1.725  13.144  2.4371  1.6467 -0.3354
18476TIP3   OH276918   6.814   1.021   2.741  0.1348 -0.4362  0.0190
18476TIP3    H176919   6.893   1.053   2.786 -0.2528  1.4761 -0.5667
18476TIP3    H276920   6.847   0.956   2.679  1.1497 -0.2820  0.3715
18477TIP3   OH276921   3.425   6.157   7.008 -0.0962 -0.0097 -0.5733
18477TIP3    H176922   3.511   6.199   7.004 -0.2980  0.4416 -0.2735
18477TIP3    H276923   3.433   6.093   7.080 -0.3516  0.8285  0.2149
18478TIP3   OH276924   3.794   2.927  13.496 -0.1405 -0.0913 -0.0602
18478TIP3    H176925   3.769   2.839  13.525  1.6582  0.0395  2.1878
18478TIP3    H276926   3.878   2.915  13.453 -1.0040  0.2754 -1.9572
18479TIP3   OH276927   2.003   4.602  17.022 -0.0323 -0.8047 -0.0236
18479TIP3    H176928   2.014   4.536  17.090  1.8986 -2.4479 -1.7915
18479TIP3    H276929   2.054   4.569  16.948  0.4479  2.3511 -1.2638
18480TIP3   OH276930   2.044   6.721   6.146 -0.2162  0.4462 -0.1095
18480TIP3    H176931   2.139   6.732   6.144 -0.0824 -0.1450  1.7685
18480TIP3    H276932   2.022   6.711   6.238 -2.2148  1.3252 -0.4248
18481TIP3   OH276933   3.577   5.494   3.082 -0.0977 -0.4073  0.4098
18481TIP3    H176934   3.603   5.532   2.998 -1.7554  0.6469  0.3264
18481TIP3    H276935   3.649   5.435   3.105  0.3596 -0.7903 -1.7738
18482TIP3   OH276936   3.025   5.155  12.194  0.4319  0.0447 -0.9000
18482TIP3    H176937   3.101   5.109  12.159  0.0714 -1.7609  0.5527
18482TIP3    H276938   2.951   5.124  12.143  0.4920  0.9568 -1.5708
18483TIP3   OH276939   5.853   5.831   0.671  0.0933 -0.4805 -0.6598
18483TIP3    H176940   5.926   5.778   0.640 -0.0440 -2.1035  1.5842
18483TIP3    H276941   5.842   5.807   0.763 -2.2227  0.9268 -0.4717
18484TIP3   OH276942   3.241   1.992  15.051  0.0340 -0.2345  0.3862
18484TIP3    H176943   3.307   1.997  15.120  1.1401 -0.8936 -0.6055
18484TIP3    H276944   3.274   2.049  14.982 -1.4455  1.0418  0.6604
18485TIP3   OH276945   0.618   0.540  11.067  0.2809 -0.0945  0.3116
18485TIP3    H176946   0.678   0.597  11.018 -0.4745  1.6224  1.2660
18485TIP3    H276947   0.561   0.502  11.000  1.1984 -0.2381 -0.4132
18486TIP3   OH276948   6.634   1.568  11.849 -0.1509 -0.0698 -0.4541
18486TIP3    H176949   6.630   1.638  11.914 -0.8285 -0.4656 -0.0601
18486TIP3    H276950   6.543   1.538  11.841 -0.0785 -0.0396 -1.5692
18487TIP3   OH276951   0.647   1.499  12.174  0.1088 -0.0580  0.2860
18487TIP3    H176952   0.583   1.433  12.200 -0.2698 -0.0656 -0.6193
18487TIP3    H276953   0.603   1.583  12.186  0.4819  0.0201  1.1432
18488TIP3   OH276954   4.673   1.258  12.808 -0.1848 -0.2878 -0.1881
18488TIP3    H176955   4.764   1.271  12.833  0.3731 -0.8659 -1.8111
18488TIP3    H276956   4.624   1.320  12.862  1.1538  0.0367  0.7025
18489TIP3   OH276957   5.158   0.953   0.586 -0.2575  0.2245 -0.4907
18489TIP3    H176958   5.253   0.965   0.590 -0.5234  3.6449 -1.3941
18489TIP3    H276959   5.124   1.008   0.657 -1.5850 -1.6323  0.3845
18490TIP3   OH276960   4.290   3.159   0.003 -0.0576  0.4081  0.1614
18490TIP3    H176961   4.256   3.071  -0.007  0.4489  0.4577 -2.8724
18490TIP3    H276962   4.223   3.216  -0.034  1.0147  0.9592 -1.0176
18491TIP3   OH276963   6.811   6.581  11.775 -0.1539  0.1999 -0.2009
18491TIP3    H176964   6.773   6.494  11.766  0.7421 -0.0019 -3.0194
18491TIP3    H276965   6.735   6.639  11.784 -1.2008 -0.3852 -3.7539
18492TIP3   OH276966   6.749   6.348  12.937 -1.0404  0.4250 -0.5503
18492TIP3    H176967   6.821   6.398  12.900  0.8505 -1.1924  0.7498
18492TIP3    H276968   6.707   6.307  12.862 -0.4794  1.2208 -1.3140
18493TIP3   OH276969   0.112   0.187  16.872  0.8288  0.3394 -0.0567
18493TIP3    H176970   0.163   0.223  16.799 -2.0054  0.0879 -2.3125
18493TIP3    H276971   0.021   0.191  16.843 -0.4029 -0.5188  3.1954
18494TIP3   OH276972   4.834   6.456   4.598  0.0448 -0.7375  0.2356
18494TIP3    H176973   4.782   6.530   4.568  0.5477 -0.5089 -0.0756
18494TIP3    H276974   4.771   6.383   4.601 -0.3810 -0.3773  0.2501
18495TIP3   OH276975   3.114   0.421  16.238  0.0216 -0.0130 -0.1101
18495TIP3    H176976   3.149   0.366  16.168 -1.2565  0.4741 -1.1789
18495TIP3    H276977   3.191   0.448  16.288  0.8917 -0.9565 -0.8850
18496TIP3   OH276978   3.859   4.251  14.253 -0.3287 -0.2820  0.3037
18496TIP3    H176979   3.789   4.315  14.267 -2.1816 -2.5022  2.1688
18496TIP3    H276980   3.933   4.285  14.304 -0.5106  1.3329 -0.4287
18497TIP3   OH276981   6.192   0.839   0.300  0.2236 -0.4445 -0.0915
18497TIP3    H176982   6.177   0.932   0.311 -0.5826 -0.5604 -0.1716
18497TIP3    H276983   6.270   0.834   0.244 -1.3757  0.2266 -2.4926
18498TIP3   OH276984   0.780   2.868   1.604  0.1352  0.0868 -0.1573
18498TIP3    H176985   0.781   2.908   1.691  0.7263 -0.7611  0.2319
18498TIP3    H276986   0.871   2.849   1.585 -0.0833 -0.5300 -0.5974
18499TIP3   OH276987   5.879   2.729  13.700 -0.4022 -0.0301  0.4399
18499TIP3    H176988   5.891   2.732  13.795  0.6232  0.6298  0.3042
18499TIP3    H276989   5.788   2.757  13.687 -0.2360  0.9365  1.1746
18500TIP3   OH276990   4.762   0.015   5.637  0.5140 -0.2258 -0.2086
18500TIP3    H176991   4.709  -0.007   5.561  1.3416 -1.2510 -0.5148
18500TIP3    H276992   4.700   0.029   5.708 -0.3478  1.7346 -1.2704
18501TIP3   OH276993   1.755   6.402   0.991 -0.3581  0.6810  0.2846
18501TIP3    H176994   1.786   6.403   1.082  1.2070 -0.2587 -0.2079
18501TIP3    H276995   1.790   6.482   0.953  2.7164 -0.9338 -0.6004
18502TIP3   OH276996   1.888   6.371   1.507  0.3283 -0.2142  0.3492
18502TIP3    H176997   1.970   6.322   1.503 -0.8306 -2.2208 -0.5244
18502TIP3    H276998   1.897   6.427   1.583  1.4191 -2.4798  2.0158
18503TIP3   OH276999   2.926   5.152   1.899 -0.1616 -0.0998 -1.0216
18503TIP3    H177000   2.940   5.107   1.815 -1.7548  0.3430 -1.5597
18503TIP3    H277001   2.881   5.233   1.875 -0.4468  0.1353  0.2519
18504TIP3   OH277002   5.994   5.589   0.183  0.2601 -0.2686 -0.4922
18504TIP3    H177003   5.955   5.505   0.160 -1.6081  0.3091  0.3311
18504TIP3    H277004   5.985   5.642   0.104  1.0912 -0.7143 -0.8910
18505TIP3   OH277005   0.523   1.255  15.255 -0.0916  0.4430 -0.3908
18505TIP3    H177006   0.549   1.193  15.187 -0.3498  1.1307 -1.1372
18505TIP3    H277007   0.428   1.261  15.247 -0.5126 -1.5459  1.8731
18506TIP3   OH277008   1.155   1.849   0.795  0.2084 -0.4199  0.3302
18506TIP3    H177009   1.249   1.866   0.804  0.6525 -2.0620 -0.8224
18506TIP3    H277010   1.120   1.865   0.883  1.1542  2.2852  0.3232
18507TIP3   OH277011   3.903   3.933   2.057  0.2485  0.6570 -0.1455
18507TIP3    H177012   3.932   4.022   2.035 -2.7912  2.0085  0.7749
18507TIP3    H277013   3.888   3.936   2.152  2.7478 -1.7805  0.4611
18508TIP3   OH277014   1.373   5.058   4.148  0.2903 -0.0716  0.3059
18508TIP3    H177015   1.283   5.028   4.161  0.4555  0.0977  2.0857
18508TIP3    H277016   1.396   5.027   4.061 -1.8207  0.7561 -0.6126
18509TIP3   OH277017   5.310   0.541   5.313  0.2440  0.5391  0.2491
18509TIP3    H177018   5.366   0.472   5.278  1.3523  1.3189  0.4478
18509TIP3    H277019   5.365   0.619   5.313 -1.5170  1.9177 -1.7458
18510TIP3   OH277020   4.491   3.100  13.363  0.2677 -0.6621 -0.3011
18510TIP3    H177021   4.396   3.101  13.356  0.2343 -1.2253 -0.0443
18510TIP3    H277022   4.521   3.067  13.279  0.1594 -1.7672  0.0697
18511TIP3   OH277023   3.837   6.761  14.266 -0.8739 -0.5072 -0.3438
18511TIP3    H177024   3.777   6.776  14.193 -0.7903  1.4087 -0.0742
18511TIP3    H277025   3.921   6.793  14.234 -0.2266 -2.0418 -0.2793
18512TIP3   OH277026   3.497   6.653  15.852 -0.1811  0.8083 -0.4303
18512TIP3    H177027   3.553   6.657  15.929  1.4722 -3.5565 -1.1073
18512TIP3    H277028   3.429   6.590  15.876  0.2949 -0.5432 -2.3756
18513TIP3   OH277029   0.935   4.321   1.845  0.2765  0.3424  0.5026
18513TIP3    H177030   0.902   4.304   1.933 -0.8350 -1.4211 -0.1987
18513TIP3    H277031   1.022   4.280   1.844  0.9607  1.6879  1.1897
18514TIP3   OH277032   6.608   5.935  15.312 -0.5614 -0.7130 -0.4392
18514TIP3    H177033   6.607   6.026  15.284  0.0166 -0.2378  0.9833
18514TIP3    H277034   6.678   5.894  15.260  0.3996  0.1042  0.1843
18515TIP3   OH277035   6.748   0.387  13.805 -0.0286  0.2881 -0.1594
18515TIP3    H177036   6.824   0.407  13.750 -0.3704 -2.2090 -1.7120
18515TIP3    H277037   6.710   0.309  13.765 -4.1267  2.0580 -0.1834
18516TIP3   OH277038   1.430   3.929  13.130 -0.0612 -0.7689  0.2561
18516TIP3    H177039   1.454   3.843  13.097 -1.4000 -2.0229  2.2845
18516TIP3    H277040   1.510   3.981  13.124  1.0510 -2.4523 -0.1132
18517TIP3   OH277041   6.480   5.616  11.073  0.4549  0.1078 -0.5534
18517TIP3    H177042   6.415   5.594  11.007 -1.0638 -0.0382  0.9283
18517TIP3    H277043   6.431   5.663  11.140  1.9276  0.1652  0.5286
18518TIP3   OH277044   5.145   1.871   0.494 -0.4773  0.1857 -0.9676
18518TIP3    H177045   5.060   1.830   0.477  0.0272 -1.2097 -0.3040
18518TIP3    H277046   5.192   1.863   0.411 -0.5787 -0.1228 -0.9992
18519TIP3   OH277047   6.518   5.479   1.358  0.3055 -0.0221  0.3850
18519TIP3    H177048   6.556   5.391   1.367 -1.0176 -0.7515 -0.7647
18519TIP3    H277049   6.491   5.502   1.447  0.1328 -1.0401  0.6072
18520TIP3   OH277050   1.684   2.364  15.096 -0.2023 -0.4876  0.3374
18520TIP3    H177051   1.775   2.395  15.093 -0.6293  0.8145 -0.0102
18520TIP3    H277052   1.680   2.309  15.174  1.8415 -3.9025 -1.7018
18521TIP3   OH277053   5.665   5.346   0.497 -0.0205  0.0377 -0.0137
18521TIP3    H177054   5.646   5.374   0.407  0.7139  0.2716 -0.0975
18521TIP3    H277055   5.637   5.420   0.551 -1.5971 -0.5809  0.0537
18522TIP3   OH277056   3.221   3.597  13.379 -0.8164 -0.9971 -0.4287
18522TIP3    H177057   3.217   3.642  13.294 -0.7418 -1.7519 -0.8365
18522TIP3    H277058   3.148   3.633  13.428  0.4615  1.1464  0.0422
18523TIP3   OH277059   3.343   4.308  14.688 -0.3058 -0.8169 -0.4136
18523TIP3    H177060   3.271   4.264  14.644 -0.8486  0.4453 -0.8300
18523TIP3    H277061   3.309   4.330  14.775 -1.1777  1.5381 -1.2736
18524TIP3   OH277062   0.158   2.964   2.920  0.2187  0.3077  0.3250
18524TIP3    H177063   0.176   2.908   2.995  0.5929 -0.1295 -0.0823
18524TIP3    H277064   0.196   3.049   2.944  1.9303 -0.3038 -0.0740
18525TIP3   OH277065   3.607   4.763  13.824 -0.0544  0.0849  0.6271
18525TIP3    H177066   3.558   4.699  13.773 -0.2401 -0.3099  1.2956
18525TIP3    H277067   3.647   4.713  13.895 -2.1193  0.9884  2.5873
18526TIP3   OH277068   4.014   4.683   2.425 -0.0854 -0.0627  0.2235
18526TIP3    H177069   4.039   4.761   2.375  1.1001 -1.1274 -0.9437
18526TIP3    H277070   3.918   4.687   2.429 -0.1057  0.9611 -0.6582
18527TIP3   OH277071   3.149   2.562   4.216  0.2716  0.1598 -0.3664
18527TIP3    H177072   3.213   2.592   4.152 -0.5532  1.0373 -0.8158
18527TIP3    H277073   3.189   2.579   4.301  0.7638  0.4028 -0.6434
18528TIP3   OH277074   5.264   2.133   0.554  0.3193 -0.0482  0.5849
18528TIP3    H177075   5.304   2.164   0.473 -1.3695  1.2508  0.1949
18528TIP3    H277076   5.261   2.038   0.544  0.5716  0.0517 -0.6649
18529TIP3   OH277077   3.987   5.571  12.551  0.0755 -0.1591 -0.6221
18529TIP3    H177078   3.919   5.536  12.609  1.3493 -0.3359  0.8308
18529TIP3    H277079   3.939   5.617  12.482 -1.4941  0.1066  0.6009
18530TIP3   OH277080   5.727   5.740  13.593  0.0245  0.2790  0.7357
18530TIP3    H177081   5.771   5.735  13.678 -0.1233 -0.2826  0.7853
18530TIP3    H277082   5.772   5.810  13.546  0.1461  0.5535  1.2559
18531TIP3   OH277083   0.505   0.832   3.954  0.4752  0.2075 -0.1906
18531TIP3    H177084   0.550   0.764   3.904 -0.7939  0.6104 -1.9791
18531TIP3    H277085   0.418   0.795   3.972  0.5464  0.4942  0.8188
18532TIP3   OH277086   5.875   3.763   2.526 -0.1148  0.7000  0.2572
18532TIP3    H177087   5.929   3.837   2.498  1.9422 -0.0769  1.8901
18532TIP3    H277088   5.926   3.721   2.595 -2.0542 -1.1742  0.6582
18533TIP3   OH277089   5.047   3.227   3.461 -0.9401  0.9516 -0.3332
18533TIP3    H177090   5.012   3.168   3.528 -0.5882 -0.2033 -1.1348
18533TIP3    H277091   5.113   3.279   3.507  1.0316 -1.4511 -0.2084
18534TIP3   OH277092   3.568   5.894  14.612 -0.1758 -0.2433 -0.2184
18534TIP3    H177093   3.618   5.862  14.537  1.5415  1.4550  0.1156
18534TIP3    H277094   3.616   5.861  14.688 -1.8751 -1.9120  0.2152
18535TIP3   OH277095   3.000   5.453   2.498  1.0457  0.0682 -0.5765
18535TIP3    H177096   3.089   5.430   2.524  1.2690  0.5252 -0.9303
18535TIP3    H277097   2.944   5.407   2.560  1.5070 -0.8251 -0.8030
18536TIP3   OH277098   6.289   3.225   5.526  0.0028  0.1907  1.1706
18536TIP3    H177099   6.359   3.173   5.487 -1.2696 -0.2994 -0.5536
18536TIP3    H277100   6.222   3.161   5.551 -1.4405  0.8689 -0.6641
18537TIP3   OH277101   5.731   5.134   5.770  0.1831 -0.0451 -0.1851
18537TIP3    H177102   5.700   5.096   5.852 -1.4438 -0.2166 -0.8343
18537TIP3    H277103   5.758   5.059   5.717 -1.1272 -0.1719 -0.7123
18538TIP3   OH277104   3.834   0.241   4.291 -0.1079  0.1171  0.2263
18538TIP3    H177105   3.833   0.293   4.371  0.7968 -1.2361  1.1580
18538TIP3    H277106   3.926   0.225   4.274 -0.2523  0.8789 -1.4466
18539TIP3   OH277107   0.294   3.407  13.524  0.2990  0.5386 -0.0656
18539TIP3    H177108   0.372   3.379  13.476  0.0233  1.2461 -0.9528
18539TIP3    H277109   0.226   3.417  13.457 -0.5208  0.0977  0.6692
18540TIP3   OH277110   6.535   5.674  16.615 -0.3132 -0.1978  0.1660
18540TIP3    H177111   6.462   5.704  16.561  0.8083 -1.6652 -2.3024
18540TIP3    H277112   6.593   5.750  16.622  1.0131 -0.7017 -3.4323
18541TIP3   OH277113   1.857   6.127  16.596  0.5134 -0.1382  0.4323
18541TIP3    H177114   1.907   6.046  16.589  0.4476 -0.3890  2.2989
18541TIP3    H277115   1.894   6.172  16.672 -1.3059  0.2053  1.1736
18542TIP3   OH277116   5.511   2.019   4.508  0.3259 -0.6959 -0.1515
18542TIP3    H177117   5.420   2.034   4.534  0.7524  0.6339  0.6646
18542TIP3    H277118   5.561   2.029   4.589  1.2944 -0.4977 -0.7584
18543TIP3   OH277119   3.668   5.784  13.764  0.2286  0.2788  0.0024
18543TIP3    H177120   3.741   5.743  13.810 -0.3848 -0.5777  0.2214
18543TIP3    H277121   3.589   5.748  13.805 -0.3302  0.2181 -1.0695
18544TIP3   OH277122   5.065   0.682   1.645  0.3240  0.5731 -0.4287
18544TIP3    H177123   5.015   0.722   1.716 -1.1776 -0.0384 -1.1055
18544TIP3    H277124   5.090   0.596   1.679  0.4635  0.6650 -0.2935
18545TIP3   OH277125   4.238   1.005  11.910  0.5970 -0.0648  0.2590
18545TIP3    H177126   4.263   0.935  11.970 -0.0721 -1.3469 -0.9052
18545TIP3    H277127   4.190   0.961  11.841 -0.0446  1.5963 -0.3970
18546TIP3   OH277128   2.558   0.817  17.181  0.6288 -0.2724  0.2467
18546TIP3    H177129   2.487   0.759  17.212  1.2410 -0.9590  0.3997
18546TIP3    H277130   2.535   0.836  17.090  1.2274 -2.0796 -0.3287
18547TIP3   OH277131   1.826   0.620   2.362  0.2939 -0.4606  0.2433
18547TIP3    H177132   1.779   0.601   2.442  0.7204  0.2526  0.6781
18547TIP3    H277133   1.902   0.671   2.390  1.3298 -1.5713 -0.4326
18548TIP3   OH277134   3.823   5.883   3.060  0.3894 -0.6371  0.0816
18548TIP3    H177135   3.789   5.899   2.972  1.4212  0.4408 -0.1522
18548TIP3    H277136   3.747   5.889   3.117  0.2279  2.9550 -0.2625
18549TIP3   OH277137   1.424   3.629  12.467 -0.3391 -0.4702 -0.1115
18549TIP3    H177138   1.335   3.636  12.503 -0.1782  1.6513  0.0462
18549TIP3    H277139   1.452   3.720  12.457  0.9164 -1.0447 -2.4917
18550TIP3   OH277140   2.524   3.254   1.756  0.6506 -0.2170  0.0516
18550TIP3    H177141   2.557   3.288   1.839  0.6493  0.5063 -0.2367
18550TIP3    H277142   2.445   3.304   1.739  2.2235  1.8448 -1.8648
18551TIP3   OH277143   2.088   3.483  14.065 -0.2377 -0.2457  0.2487
18551TIP3    H177144   2.030   3.419  14.105  0.1190 -1.3422 -0.8943
18551TIP3    H277145   2.066   3.566  14.107 -0.1560 -1.2329  2.3646
18552TIP3   OH277146   1.399   4.730  13.149 -0.5546  0.2965 -0.2146
18552TIP3    H177147   1.409   4.675  13.071  2.9890  1.6473 -0.9126
18552TIP3    H277148   1.395   4.819  13.114 -0.1472  0.8498  1.1164
18553TIP3   OH277149   1.837   0.952  16.741  0.2326  0.2953  0.0422
18553TIP3    H177150   1.855   1.010  16.667  1.0957 -0.3578 -0.2679
18553TIP3    H277151   1.765   0.897  16.711  0.1757  0.4385 -0.0869
18554TIP3   OH277152   5.425   0.544  12.203 -0.0962 -0.2140  0.2128
18554TIP3    H177153   5.442   0.632  12.168  1.0591 -0.3580  0.3769
18554TIP3    H277154   5.502   0.524  12.257 -0.0851 -1.5344 -0.2463
18555TIP3   OH277155   2.000   4.315  16.147  0.1185  0.0051 -0.4251
18555TIP3    H177156   1.994   4.332  16.053 -0.1588  0.2318 -0.3672
18555TIP3    H277157   1.942   4.379  16.187  0.6049  0.2296 -0.0619
18556TIP3   OH277158   2.943   2.436  14.105 -0.5771 -0.0621  0.6423
18556TIP3    H177159   2.976   2.464  14.019 -0.7484  0.5578  0.7702
18556TIP3    H277160   2.979   2.348  14.117  1.0695  0.5782  0.7807
18557TIP3   OH277161   2.721   4.771   1.807  0.3511  0.0712  0.5933
18557TIP3    H177162   2.687   4.695   1.854 -0.0577  0.1974  0.5079
18557TIP3    H277163   2.813   4.751   1.791 -0.2077 -1.3353 -1.2249
18558TIP3   OH277164   0.160   0.168   0.079 -0.2674  0.0087 -0.4983
18558TIP3    H177165   0.183   0.200  -0.008 -1.1294  0.3639 -0.6116
18558TIP3    H277166   0.064   0.169   0.080 -0.2804  1.2814  0.9184
18559TIP3   OH277167   0.257   2.168   5.374  0.1054  0.0081 -0.5423
18559TIP3    H177168   0.221   2.114   5.304  1.9727  0.7310 -2.1620
18559TIP3    H277169   0.300   2.106   5.433 -0.3954 -0.5034 -0.7050
18560TIP3   OH277170   5.191   3.457  17.252 -0.0278  0.2459  0.5319
18560TIP3    H177171   5.277   3.473  17.289  0.8922  0.8324 -1.6830
18560TIP3    H277172   5.204   3.382  17.193 -0.8749  0.7130 -0.2761
18561TIP3   OH277173   3.190   1.228  17.199  0.0592 -0.2345 -0.2383
18561TIP3    H177174   3.174   1.296  17.265  0.0662  1.2357 -1.6861
18561TIP3    H277175   3.116   1.168  17.208 -1.1042  1.1266 -0.3056
18562TIP3   OH277176   2.217   1.893  15.503  0.2672  0.4427  0.3471
18562TIP3    H177177   2.299   1.893  15.552  1.0653  1.7759 -0.8948
18562TIP3    H277178   2.160   1.951  15.553  0.3253  0.0955  0.8246
18563TIP3   OH277179   4.431   0.414  13.574 -0.5494 -0.4147 -0.0152
18563TIP3    H177180   4.466   0.363  13.501 -0.1841 -0.5254  0.2326
18563TIP3    H277181   4.417   0.502  13.539 -0.0096 -0.3699 -0.1132
18564TIP3   OH277182   3.993   4.752   3.483 -0.3420  0.1215  0.2069
18564TIP3    H177183   3.982   4.814   3.410 -2.8728 -0.6956 -0.2375
18564TIP3    H277184   3.939   4.788   3.553  2.3709  1.0907  1.9102
18565TIP3   OH277185   0.209   0.700   5.089  0.4998 -0.2449  0.6266
18565TIP3    H177186   0.144   0.640   5.125  1.2191 -0.0791  2.3023
18565TIP3    H277187   0.233   0.756   5.162 -0.8269  2.7794 -1.0759
18566TIP3   OH277188   3.562   1.875  12.137  0.2700  0.8717  0.5117
18566TIP3    H177189   3.476   1.916  12.134 -0.1371  0.2998  2.5644
18566TIP3    H277190   3.544   1.781  12.133  0.7109  0.7225  1.5000
18567TIP3   OH277191   3.732   0.092  12.253 -0.3153  0.2181 -0.4929
18567TIP3    H177192   3.699   0.181  12.238  0.3281  0.5392 -0.0806
18567TIP3    H277193   3.655   0.041  12.277 -0.5157  0.9577  0.5092
18568TIP3   OH277194   2.804   0.903   2.601 -0.0776 -0.2380  0.1610
18568TIP3    H177195   2.799   0.831   2.539  0.7564 -0.5288  0.4225
18568TIP3    H277196   2.801   0.982   2.546 -3.8891 -0.3039  0.0099
18569TIP3   OH277197   6.332   3.887   3.391  0.0742 -0.2050  0.3080
18569TIP3    H177198   6.401   3.865   3.330 -1.4051  0.5233 -1.7212
18569TIP3    H277199   6.274   3.811   3.390 -0.4281  0.1797  0.1145
18570TIP3   OH277200   5.177   4.336  16.511 -0.2712  0.7552 -0.2430
18570TIP3    H177201   5.245   4.292  16.561  0.1468  1.6529  0.0039
18570TIP3    H277202   5.116   4.368  16.577 -0.3629  0.8750 -0.3862
18571TIP3   OH277203   3.912   2.107   4.481  0.7466 -0.2524 -0.0702
18571TIP3    H177204   3.826   2.100   4.522 -1.0186  1.8034 -3.0811
18571TIP3    H277205   3.953   2.022   4.498 -0.9039 -0.5633  3.2699
18572TIP3   OH277206   2.486   3.189  12.413 -0.0130 -0.2467 -0.2606
18572TIP3    H177207   2.468   3.102  12.449 -1.0819 -0.2202 -0.6909
18572TIP3    H277208   2.565   3.177  12.361  0.0362 -0.8884 -0.0434
18573TIP3   OH277209   1.383   2.699   5.082 -0.7669  0.2933  0.2014
18573TIP3    H177210   1.344   2.621   5.042 -0.3618 -1.4360  2.9769
18573TIP3    H277211   1.312   2.738   5.134  0.1027 -0.7373  2.2572
18574TIP3   OH277212   1.555   4.015  16.894 -0.3480 -0.1746 -0.1590
18574TIP3    H177213   1.577   3.996  16.986 -0.0158  0.3921 -0.1157
18574TIP3    H277214   1.495   4.089  16.899 -1.6961 -1.2186 -0.3223
18575TIP3   OH277215   2.449   4.576  16.342 -0.0299  0.0954  0.0492
18575TIP3    H177216   2.452   4.606  16.251 -1.4677 -0.2913 -0.1449
18575TIP3    H277217   2.432   4.482  16.336 -2.4490  0.4337  0.7049
18576TIP3   OH277218   2.564   4.595   1.172 -0.6076 -0.6061  0.6074
18576TIP3    H177219   2.600   4.510   1.145  1.2997 -0.2314  1.7975
18576TIP3    H277220   2.613   4.659   1.120 -2.3909 -0.1790 -0.6677
18577TIP3   OH277221   3.678   6.556   1.280 -0.8295  0.5963  0.3460
18577TIP3    H177222   3.707   6.623   1.341 -0.3715  0.1294  0.6465
18577TIP3    H277223   3.660   6.479   1.334 -1.3118  0.4627  0.0021
18578TIP3   OH277224   0.757   4.715   3.194  0.1813  0.3402  0.6600
18578TIP3    H177225   0.664   4.723   3.213  0.2943  1.5661  0.7750
18578TIP3    H277226   0.774   4.621   3.197 -0.5897  0.2309  2.8359
18579TIP3   OH277227   0.926   0.833   2.093 -0.5646  0.3501 -0.8552
18579TIP3    H177228   0.929   0.742   2.123  0.6160  0.1183 -1.5987
18579TIP3    H277229   0.862   0.875   2.150  0.5959 -0.3861  1.1095
18580TIP3   OH277230   2.862   0.040   5.151 -0.1504 -0.1988 -0.2043
18580TIP3    H177231   2.858   0.005   5.240  1.9024 -1.8821 -0.6808
18580TIP3    H277232   2.899  -0.031   5.099  2.0232  1.8775 -1.7253
18581TIP3   OH277233   0.492   1.314  16.105 -0.4322 -0.7519 -0.0128
18581TIP3    H177234   0.468   1.269  16.024  1.8877 -0.7153 -0.7825
18581TIP3    H277235   0.512   1.403  16.078  0.8134 -0.8646  0.5117
18582TIP3   OH277236   4.336   4.813   5.625  0.0113  0.6220 -0.3103
18582TIP3    H177237   4.326   4.909   5.622 -1.1438  0.5139 -0.5044
18582TIP3    H277238   4.348   4.793   5.718  1.3057  1.0348 -0.3720
18583TIP3   OH277239   1.320   5.551   3.319  0.2033 -0.6723 -0.3527
18583TIP3    H177240   1.308   5.480   3.382  1.3550 -1.3684 -0.8838
18583TIP3    H277241   1.233   5.589   3.309  0.1526  0.1274  2.3931
18584TIP3   OH277242   3.721   2.491  12.948  0.0239 -0.0220  0.1335
18584TIP3    H177243   3.639   2.538  12.958  1.0807  1.7138  1.1312
18584TIP3    H277244   3.775   2.547  12.892  0.6165 -1.0330 -0.3339
18585TIP3   OH277245   0.883   6.362   0.574  0.2049 -0.0686 -0.4331
18585TIP3    H177246   0.836   6.358   0.491 -0.8713 -1.1220  0.1980
18585TIP3    H277247   0.840   6.297   0.630  1.3279  0.1425  0.7386
18586TIP3   OH277248   0.717   5.089  12.623  0.1466  0.2503  0.3385
18586TIP3    H177249   0.677   5.004  12.605  0.5141 -0.1428  1.2953
18586TIP3    H277250   0.788   5.069  12.684  0.6659  1.1611  0.0525
18587TIP3   OH277251   1.059   0.030   2.987 -0.0573 -0.8325 -0.4652
18587TIP3    H177252   0.965   0.039   2.970 -0.3748  0.0131  1.4947
18587TIP3    H277253   1.090   0.120   2.998  0.3472 -1.1863  1.8287
18588TIP3   OH277254   1.101   0.897  14.543 -0.1849  0.1378  0.0475
18588TIP3    H177255   1.049   0.845  14.482 -1.2197  0.5586  0.5459
18588TIP3    H277256   1.187   0.904  14.502 -0.5415 -0.5101 -0.8322
18589TIP3   OH277257   0.722   3.126  14.456 -0.5510  0.0342  0.4276
18589TIP3    H177258   0.789   3.185  14.491 -0.4747 -0.6787  1.5512
18589TIP3    H277259   0.724   3.141  14.361  1.3324 -0.0752  0.4004
18590TIP3   OH277260   4.716   4.980   3.093  0.2069  0.1455  0.0738
18590TIP3    H177261   4.744   4.898   3.133 -0.3307  0.4276  1.0652
18590TIP3    H277262   4.646   4.954   3.032  0.3167 -0.1750  0.0813
18591TIP3   OH277263   2.083   5.509  12.837 -0.0660  0.2962  0.0052
18591TIP3    H177264   2.035   5.551  12.765  1.4486  0.4225 -0.9776
18591TIP3    H277265   2.015   5.469  12.891 -1.2490 -0.1541 -1.7233
18592TIP3   OH277266   3.182   5.632  12.131 -0.1542 -0.4760 -0.9044
18592TIP3    H177267   3.148   5.584  12.055  0.0754 -2.1750 -0.0041
18592TIP3    H277268   3.231   5.566  12.180 -0.8972  0.3761  1.0989
18593TIP3   OH277269   2.704   1.736   2.669 -0.2492  0.7943 -0.3334
18593TIP3    H177270   2.758   1.808   2.703  0.6741  0.9837 -2.0771
18593TIP3    H277271   2.768   1.674   2.632 -1.1171 -0.2471 -0.1352
18594TIP3   OH277272   1.739   0.348   3.619  0.0664 -0.0709  0.0461
18594TIP3    H177273   1.723   0.431   3.575 -3.9381 -1.0676 -0.8125
18594TIP3    H277274   1.814   0.310   3.574 -0.1830  1.6016 -1.8829
18595TIP3   OH277275   1.111   3.943   5.212 -0.5185  0.3999 -0.0086
18595TIP3    H177276   1.116   4.035   5.235  1.2588  0.4406 -0.4301
18595TIP3    H277277   1.019   3.929   5.190 -1.6883  1.1034  3.8166
18596TIP3   OH277278   2.469   0.823   4.923 -0.0566 -0.6843  0.2408
18596TIP3    H177279   2.537   0.759   4.902 -0.3955 -0.7013 -0.8988
18596TIP3    H277280   2.387   0.780   4.898 -0.3214  0.0022 -0.1075
18597TIP3   OH277281   6.354   0.041   3.736 -0.4944 -0.7118 -0.3098
18597TIP3    H177282   6.279   0.024   3.793 -1.4670  0.0917 -1.3032
18597TIP3    H277283   6.316   0.078   3.656  0.9778 -0.1041 -0.7701
18598TIP3   OH277284   4.038   0.099   4.872  0.4330  0.2332  0.1803
18598TIP3    H177285   4.069   0.174   4.922  0.0035  0.3405  0.2901
18598TIP3    H277286   4.057   0.023   4.927 -0.9134  0.4215  0.9676
18599TIP3   OH277287   6.354   6.225  12.845 -0.3889 -0.4570  0.5403
18599TIP3    H177288   6.326   6.248  12.756  1.0922 -0.7235 -0.0335
18599TIP3    H277289   6.374   6.309  12.886 -2.1897 -0.2349  1.0655
18600TIP3   OH277290   6.516   1.422  14.158 -0.0972  0.2377 -0.1795
18600TIP3    H177291   6.440   1.393  14.107 -0.1655  0.8439 -0.4200
18600TIP3    H277292   6.500   1.514  14.175  0.1088  0.1323  0.6239
18601TIP3   OH277293   2.706   1.986  16.471 -0.0057 -0.0240 -0.0495
18601TIP3    H177294   2.647   1.977  16.395  1.0970  0.5324 -1.0094
18601TIP3    H277295   2.790   2.011  16.432  0.3302  1.2818  1.4472
18602TIP3   OH277296   4.121   6.512  14.525 -0.2893 -0.1391  0.7610
18602TIP3    H177297   4.142   6.605  14.522 -0.0542 -0.1307  2.0174
18602TIP3    H277298   4.141   6.486  14.615 -2.1736 -0.9825  0.9718
18603TIP3   OH277299   2.782   1.506   0.687 -0.1547  0.3163  0.0362
18603TIP3    H177300   2.817   1.585   0.729 -2.0266  0.1925  1.9876
18603TIP3    H277301   2.726   1.539   0.617 -2.5969  0.9507  2.1302
18604TIP3   OH277302   6.088   0.237   0.139 -0.8392 -0.2619  0.2315
18604TIP3    H177303   6.048   0.244   0.226  0.4808  0.5707  0.7925
18604TIP3    H277304   6.179   0.214   0.156  0.1296  2.4934 -0.7587
18605TIP3   OH277305   5.308   6.622   6.626 -0.1076  0.2075 -0.0137
18605TIP3    H177306   5.268   6.709   6.623 -1.2871 -0.1962  2.1199
18605TIP3    H277307   5.266   6.579   6.700  1.5569 -1.6518 -0.0733
18606TIP3   OH277308   1.451   2.311  13.876  0.0415 -1.1082  0.0068
18606TIP3    H177309   1.543   2.320  13.851  0.1512 -1.7229  0.1760
18606TIP3    H277310   1.411   2.394  13.850  0.8651 -0.3982  0.9058
18607TIP3   OH277311   4.232   3.973   0.359  0.3248 -0.7381 -0.3981
18607TIP3    H177312   4.150   3.963   0.312  0.2591 -0.0975 -0.4262
18607TIP3    H277313   4.241   4.067   0.373 -0.3089 -0.9803  2.0314
18608TIP3   OH277314   4.119   1.504  11.275 -0.2252 -0.0328 -0.6474
18608TIP3    H177315   4.066   1.553  11.212 -1.0998 -0.5564 -0.3318
18608TIP3    H277316   4.057   1.446  11.318  0.4637 -0.0522  0.3391
18609TIP3   OH277317   3.441   2.714  14.742  0.1832  0.1825  0.3327
18609TIP3    H177318   3.386   2.668  14.679  0.7030 -1.5959  1.0923
18609TIP3    H277319   3.382   2.772  14.789 -0.3684  0.8612 -1.1626
18610TIP3   OH277320   5.527   0.170   4.884 -0.2052  0.1830  0.1765
18610TIP3    H177321   5.613   0.159   4.844 -0.3505  1.3721 -0.5287
18610TIP3    H277322   5.483   0.086   4.871  0.5805 -0.1908 -0.1221
18611TIP3   OH277323   6.203   1.746  11.928  0.4309  0.0993  0.3071
18611TIP3    H177324   6.190   1.832  11.966 -1.9749 -0.9684  2.1401
18611TIP3    H277325   6.247   1.695  11.997  0.7128 -0.5009 -0.2967
18612TIP3   OH277326   0.232   3.875   3.926 -0.0773  0.4034  0.2164
18612TIP3    H177327   0.251   3.844   4.014  0.5070 -1.6601 -0.5793
18612TIP3    H277328   0.158   3.822   3.897 -1.3594  2.2124  0.0320
18613TIP3   OH277329   1.496   1.825  15.232  0.5194  0.4689 -0.0619
18613TIP3    H177330   1.484   1.766  15.307  2.3695 -0.4888 -0.4758
18613TIP3    H277331   1.516   1.767  15.159  1.5388  1.5601 -0.6746
18614TIP3   OH277332   6.384   4.523  14.867  0.0750  0.5574 -0.2203
18614TIP3    H177333   6.429   4.549  14.947  0.6507  0.1271 -0.3926
18614TIP3    H277334   6.370   4.604  14.819 -1.0684  0.9319  0.7091
18615TIP3   OH277335   4.717   3.295  15.573 -0.2217 -0.0817 -0.4602
18615TIP3    H177336   4.781   3.367  15.569 -0.5197  0.4478  2.0673
18615TIP3    H277337   4.660   3.309  15.498  0.8728  1.2031 -1.0897
18616TIP3   OH277338   2.289   5.337  13.816 -0.2175 -0.3899  0.3835
18616TIP3    H177339   2.325   5.413  13.862  1.2105 -0.6707 -0.2193
18616TIP3    H277340   2.365   5.293  13.779 -1.0792 -1.7672  0.1723
18617TIP3   OH277341   1.697   0.904   6.160  0.0803 -0.1854 -0.2787
18617TIP3    H177342   1.728   0.944   6.242  1.3270 -0.2258 -0.7171
18617TIP3    H277343   1.602   0.899   6.172  0.0968  0.9530  0.6660
18618TIP3   OH277344   1.102   0.713   0.579  0.1943  0.2894 -0.4335
18618TIP3    H177345   1.178   0.772   0.575  0.3620  0.2221  1.1177
18618TIP3    H277346   1.057   0.727   0.496  1.9631  0.2483 -1.4479
18619TIP3   OH277347   3.564   3.590   5.669  0.7155  0.0487 -0.3007
18619TIP3    H177348   3.524   3.519   5.619  1.7233 -1.5280  1.0270
18619TIP3    H277349   3.605   3.646   5.603 -0.3687 -0.4172 -1.4023
18620TIP3   OH277350   0.666   2.262  13.599 -0.2990  0.1048 -0.0762
18620TIP3    H177351   0.646   2.228  13.687  0.0360  2.3030  0.9230
18620TIP3    H277352   0.583   2.259  13.552 -1.2970  1.8484  1.4300
18621TIP3   OH277353   6.210   4.550   4.450  0.3208  0.0211 -0.1147
18621TIP3    H177354   6.120   4.527   4.424  0.2620  2.5925 -2.6666
18621TIP3    H277355   6.265   4.484   4.408 -0.2471 -1.1238  0.8454
18622TIP3   OH277356   5.427   0.759  12.450  0.1379  0.5520  0.0790
18622TIP3    H177357   5.400   0.777  12.360  0.4621  0.3590 -0.0569
18622TIP3    H277358   5.403   0.838  12.498 -0.5251  0.4494 -0.0682
18623TIP3   OH277359   0.742   4.419   6.171 -0.7944 -0.2685 -0.3478
18623TIP3    H177360   0.736   4.325   6.191 -0.1564  0.1834  2.4645
18623TIP3    H277361   0.835   4.436   6.164 -0.8870  0.2370 -0.3862
18624TIP3   OH277362   3.498   3.489  11.242 -0.3680 -0.0441  0.1354
18624TIP3    H177363   3.568   3.428  11.262 -0.2520 -0.3686 -1.1663
18624TIP3    H277364   3.417   3.440  11.260 -0.2811  0.1416  1.0891
18625TIP3   OH277365   6.044   4.003  14.930  0.1857  0.2571 -0.3162
18625TIP3    H177366   6.113   3.936  14.933 -1.0799 -1.0698  0.2749
18625TIP3    H277367   5.964   3.956  14.953 -0.6068  2.1731  1.1274
18626TIP3   OH277368   5.681   6.624   2.833  0.1285 -0.5067 -0.0330
18626TIP3    H177369   5.769   6.587   2.834  0.5363  0.4416  0.3296
18626TIP3    H277370   5.665   6.649   2.742 -0.5460 -2.4363 -0.4899
18627TIP3   OH277371   2.274   1.447   1.140 -0.2989 -0.3697  0.2201
18627TIP3    H177372   2.210   1.411   1.202 -1.2772 -1.0845 -1.1350
18627TIP3    H277373   2.254   1.541   1.137 -1.1348 -0.5433  0.0072
18628TIP3   OH277374   4.056   4.433   2.542  0.1887 -0.4422 -0.9281
18628TIP3    H177375   4.040   4.518   2.501  0.3834  0.2724  0.4070
18628TIP3    H277376   4.076   4.454   2.633 -1.1459 -2.0129 -0.2187
18629TIP3   OH277377   1.324   0.820   3.628  0.0177  0.1409  0.7397
18629TIP3    H177378   1.312   0.914   3.616  0.0456  0.1768  0.9851
18629TIP3    H277379   1.410   0.812   3.668  0.8577 -0.1190 -1.0029
18630TIP3   OH277380   3.851   5.846   2.781  0.1518  0.4124  0.2592
18630TIP3    H177381   3.930   5.804   2.815 -1.2617 -1.6918  1.1329
18630TIP3    H277382   3.868   5.939   2.790  2.2383  0.0166  1.0776
18631TIP3   OH277383   5.563   1.037  14.259 -0.4016 -0.3243 -0.2589
18631TIP3    H177384   5.493   1.083  14.304  0.5596  1.3428 -0.3729
18631TIP3    H277385   5.521   0.996  14.184 -1.3976 -0.1220  0.1759
18632TIP3   OH277386   3.107   4.167  11.172 -0.1650 -0.2354 -0.0708
18632TIP3    H177387   3.099   4.099  11.104  0.2951  0.8678 -1.2558
18632TIP3    H277388   3.050   4.136  11.242 -0.9026 -1.2558 -1.0744
18633TIP3   OH277389   0.780   0.022   2.599  0.2796 -0.2791  0.1085
18633TIP3    H177390   0.699   0.052   2.556  0.0501 -0.1589  0.6219
18633TIP3    H277391   0.771   0.050   2.690  1.6017  1.1424 -0.1584
18634TIP3   OH277392   4.452   5.303  13.539 -0.6088  0.1301  0.4318
18634TIP3    H177393   4.456   5.318  13.633 -1.6621  0.0991  0.4913
18634TIP3    H277394   4.398   5.374  13.505 -0.2357  0.1412 -0.1524
18635TIP3   OH277395   0.620   6.285   4.269  0.2343 -0.1083  0.2290
18635TIP3    H177396   0.621   6.336   4.350 -1.7890  0.3729 -0.0092
18635TIP3    H277397   0.569   6.207   4.290  1.2063 -0.8611 -0.1146
18636TIP3   OH277398   0.477   0.191   2.055 -0.1883 -0.3592 -0.0081
18636TIP3    H177399   0.447   0.256   1.993  2.7868  1.2418  0.0397
18636TIP3    H277400   0.499   0.114   2.002  1.5649  0.7116 -0.9248
18637TIP3   OH277401   0.959   4.173  17.254 -0.7310 -0.4971  0.5298
18637TIP3    H177402   0.958   4.082  17.284  0.0962 -0.3238  1.1038
18637TIP3    H277403   0.877   4.210  17.288 -1.5464 -1.2781 -0.5439
18638TIP3   OH277404   3.351   0.521  14.719  0.0425  0.0110  0.3283
18638TIP3    H177405   3.339   0.474  14.637 -0.1178  0.0506  0.3289
18638TIP3    H277406   3.387   0.606  14.693 -2.2497  0.9731  0.0826
18639TIP3   OH277407   2.132   1.757   0.116  0.1164  0.5561 -0.4301
18639TIP3    H177408   2.198   1.808   0.164 -0.6547  1.2304 -0.0366
18639TIP3    H277409   2.178   1.680   0.084  0.7541  0.2557  1.1195
18640TIP3   OH277410   1.790   4.199  14.321  0.1297 -0.0174  0.2444
18640TIP3    H177411   1.716   4.155  14.279  0.1950 -0.8518  0.9634
18640TIP3    H277412   1.820   4.263  14.257 -0.6985 -0.2373 -0.3791
18641TIP3   OH277413   2.835   2.949   1.178  0.0858  0.0640 -0.6138
18641TIP3    H177414   2.799   2.929   1.091  1.0806  0.6525 -1.1822
18641TIP3    H277415   2.777   3.018   1.212 -0.6370 -0.5520 -0.5629
18642TIP3   OH277416   0.233   1.986   4.254  0.8545  0.4069 -0.2150
18642TIP3    H177417   0.167   2.055   4.259  1.4237  0.9961 -0.6264
18642TIP3    H277418   0.302   2.015   4.315  2.1170  1.3592 -2.0103
18643TIP3   OH277419   5.227   6.022  12.375  0.2077  0.3829  0.0085
18643TIP3    H177420   5.228   6.059  12.287  0.4544  3.0763  1.0421
18643TIP3    H277421   5.307   6.055  12.416  0.3152 -1.1570  1.1253
18644TIP3   OH277422   0.129   3.408  14.529 -0.7362 -0.0822  0.2661
18644TIP3    H177423   0.172   3.417  14.614 -3.3346  0.8379  1.5706
18644TIP3    H277424   0.189   3.450  14.467 -0.4741  2.7633  2.2600
18645TIP3   OH277425   5.056   0.476   3.978  0.2135  0.0265  0.0415
18645TIP3    H177426   5.114   0.448   4.049 -0.0880 -0.9641 -0.0782
18645TIP3    H277427   5.081   0.566   3.960  0.5286  0.1787  1.1710
18646TIP3   OH277428   3.198   0.703   2.878  0.5165 -0.1022 -0.3838
18646TIP3    H177429   3.167   0.640   2.942  1.2844  1.2263  1.3708
18646TIP3    H277430   3.290   0.680   2.863  0.5232 -0.0036 -0.5032
18647TIP3   OH277431   0.886   4.512  11.889  0.5019 -0.1036 -0.0772
18647TIP3    H177432   0.949   4.449  11.855  1.5905  0.5594  0.6232
18647TIP3    H277433   0.811   4.460  11.917  0.0879 -0.7778 -2.3040
18648TIP3   OH277434   5.445   5.564  11.924  0.0345  0.6760 -0.2108
18648TIP3    H177435   5.540   5.573  11.911  0.1439  0.2809  0.2541
18648TIP3    H277436   5.406   5.619  11.856  0.5878  0.2342 -0.9001
18649TIP3   OH277437   4.351   6.775  16.678  0.4161 -0.0072 -0.0713
18649TIP3    H177438   4.415   6.813  16.618 -1.0561  1.6961 -0.6162
18649TIP3    H277439   4.344   6.839  16.749  0.1060 -0.6934  0.5249
18650TIP3   OH277440   4.009   4.933  16.231 -0.3933  0.4751  0.0674
18650TIP3    H177441   4.099   4.964  16.242 -0.9980  1.5883  2.9168
18650TIP3    H277442   3.968   4.999  16.175  0.3603  0.3265 -0.6857
18651TIP3   OH277443   4.645   4.470   6.334 -0.7311  0.2419  0.2723
18651TIP3    H177444   4.699   4.469   6.254 -1.3794 -0.5574 -0.1689
18651TIP3    H277445   4.671   4.551   6.379  0.1337  0.3608 -0.4086
18652TIP3   OH277446   4.971   5.358  14.252 -1.3420  0.2875  0.5286
18652TIP3    H177447   4.954   5.452  14.262 -1.3922  0.6669 -2.4472
18652TIP3    H277448   4.885   5.320  14.235 -0.8356  0.6077 -3.6482
18653TIP3   OH277449   5.361   4.027   3.031  0.3490 -0.2357  0.6190
18653TIP3    H177450   5.291   4.026   2.965 -0.0831 -3.5841  0.9884
18653TIP3    H277451   5.420   4.096   3.001 -2.0122  1.3509 -0.8332
18654TIP3   OH277452   0.989   4.614   3.699 -0.3504  0.4631  0.1336
18654TIP3    H177453   0.967   4.667   3.623  1.0185 -0.4713 -0.9494
18654TIP3    H277454   1.082   4.629   3.714  0.1895 -1.9273 -0.4829
18655TIP3   OH277455   4.339   1.261   0.930 -0.4640  0.3818  0.2738
18655TIP3    H177456   4.281   1.220   0.866  1.2545 -2.7806  0.5833
18655TIP3    H277457   4.409   1.300   0.878 -0.3813  0.0224  0.1140
18656TIP3   OH277458   5.514   5.134  13.200  0.7644 -0.7709 -0.1213
18656TIP3    H177459   5.509   5.230  13.197  2.3210 -0.6857 -0.8809
18656TIP3    H277460   5.491   5.112  13.290 -1.0081  0.1798 -0.2844
18657TIP3   OH277461   0.611   4.097  13.218  0.3128 -0.3293  0.3914
18657TIP3    H177462   0.518   4.073  13.227  0.3587 -0.2568  1.1685
18657TIP3    H277463   0.615   4.189  13.243  0.8861 -0.8646  2.5330
18658TIP3   OH277464   3.939   3.045  15.544  0.0743 -0.3450 -0.0352
18658TIP3    H177465   3.861   2.996  15.519  0.0566 -1.3309  1.7665
18658TIP3    H277466   3.920   3.078  15.632  1.2235  0.3985 -0.0392
18659TIP3   OH277467   3.008   6.048  16.136  0.6922 -0.1230 -0.3359
18659TIP3    H177468   3.040   6.132  16.169  1.8689  0.0567 -1.8274
18659TIP3    H277469   2.923   6.068  16.098 -0.4722 -0.2468  2.0516
18660TIP3   OH277470   5.108   0.112   3.899  0.1674 -0.4395  0.9514
18660TIP3    H177471   5.073   0.100   3.988 -2.4262 -0.2495  0.0364
18660TIP3    H277472   5.199   0.084   3.906 -0.1364 -1.0947  3.5203
18661TIP3   OH277473   1.955   1.462  12.902  0.1310  0.2138  0.1581
18661TIP3    H177474   1.986   1.536  12.956  0.2605 -1.6868  2.9118
18661TIP3    H277475   1.865   1.448  12.930  0.3790 -1.1746  0.3490
18662TIP3   OH277476   5.999   5.766   5.084  0.3442 -0.2968  0.2491
18662TIP3    H177477   6.044   5.779   5.167 -1.8481  2.4556  1.1707
18662TIP3    H277478   6.066   5.783   5.018  1.7717 -1.0651  1.4324
18663TIP3   OH277479   6.386   3.200  13.920 -0.6733 -0.1120  0.0262
18663TIP3    H177480   6.463   3.189  13.864 -0.7227 -1.8282  0.2415
18663TIP3    H277481   6.418   3.184  14.009 -1.8145 -4.5612 -0.1447
18664TIP3   OH277482   6.096   1.647  14.786 -0.8056  0.0424  0.1823
18664TIP3    H177483   6.115   1.626  14.694  0.3518  0.4361  0.3148
18664TIP3    H277484   6.037   1.577  14.814  0.5583 -1.3482 -0.2540
18665TIP3   OH277485   1.499   3.164  16.589  0.1182  0.3152  0.0685
18665TIP3    H177486   1.475   3.228  16.657  0.7338 -0.2039  0.7964
18665TIP3    H277487   1.419   3.150  16.540  0.3222  2.8802 -1.1737
18666TIP3   OH277488   1.001   0.009   4.921 -0.2500  0.1724  0.1761
18666TIP3    H177489   1.048   0.089   4.897 -0.0706  0.4965  1.5259
18666TIP3    H277490   1.069  -0.057   4.932 -0.4103 -0.2238 -1.0768
18667TIP3   OH277491   3.200   6.006   1.524  0.1023 -0.9282 -0.3818
18667TIP3    H177492   3.176   6.060   1.449  0.2693  0.9024  0.8148
18667TIP3    H277493   3.263   5.943   1.490  0.1136 -0.1826 -1.7863
18668TIP3   OH277494   1.436   5.962  17.093  0.1707 -0.3145 -0.5610
18668TIP3    H177495   1.487   5.881  17.089  1.6958  0.5903 -0.3159
18668TIP3    H277496   1.463   6.011  17.015 -0.4966  0.0970 -0.5385
18669TIP3   OH277497   1.617   5.874  11.982  0.0144 -0.3287 -0.4811
18669TIP3    H177498   1.559   5.810  11.939 -0.1090 -1.5669  1.4154
18669TIP3    H277499   1.576   5.959  11.964 -1.4220 -1.0228 -0.6825
18670TIP3   OH277500   6.234   4.365  14.106 -0.6806 -0.5427  0.3767
18670TIP3    H177501   6.283   4.330  14.180 -0.0766  1.3939  0.9423
18670TIP3    H277502   6.287   4.341  14.029 -0.6335 -1.4285  0.6814
18671TIP3   OH277503   0.116   4.936   0.437  0.1342  0.3397  0.4579
18671TIP3    H177504   0.209   4.914   0.441 -0.1593 -0.9773  0.6395
18671TIP3    H277505   0.100   4.986   0.516  0.6692  0.4868  0.4789
18672TIP3   OH277506   3.021   1.516  13.027  0.2913  0.1142 -0.0192
18672TIP3    H177507   3.052   1.519  13.118  2.9697  1.7683 -0.8643
18672TIP3    H277508   3.083   1.458  12.982  1.9294  2.8308 -1.5988
18673TIP3   OH277509   6.352   6.210  15.680 -0.1845 -0.8976  0.5286
18673TIP3    H177510   6.272   6.201  15.733 -0.4133 -0.4085  0.2678
18673TIP3    H277511   6.330   6.275  15.614  0.9231  0.4174  1.4026
18674TIP3   OH277512   4.599   2.767   5.310  1.0408  0.0628  0.1589
18674TIP3    H177513   4.570   2.728   5.393  0.2446 -0.0733 -0.1736
18674TIP3    H277514   4.526   2.822   5.282  0.6332 -1.0781 -1.2081
18675TIP3   OH277515   0.125   4.926  12.583 -0.6029 -0.0304 -0.5117
18675TIP3    H177516   0.112   4.832  12.599 -2.2866 -0.0648 -1.9010
18675TIP3    H277517   0.141   4.932  12.489  0.5518  0.9974 -0.2694
18676TIP3   OH277518   3.504   5.412  16.013  0.3167  0.4837 -0.2910
18676TIP3    H177519   3.524   5.318  16.019  0.5879  0.4282 -1.6174
18676TIP3    H277520   3.447   5.429  16.087  1.5308 -0.3857  0.9052
18677TIP3   OH277521   5.791   4.529   5.606  0.6501  0.6835 -0.1810
18677TIP3    H177522   5.851   4.492   5.670  0.8198  0.1071 -0.6573
18677TIP3    H277523   5.771   4.616   5.638 -1.2919 -0.4572  2.0542
18678TIP3   OH277524   5.929   4.523   4.292 -0.1367  0.5108 -0.0452
18678TIP3    H177525   5.946   4.436   4.330  1.6234  0.3348 -1.1370
18678TIP3    H277526   5.982   4.525   4.212 -2.2502  1.5783 -1.5276
18679TIP3   OH277527   3.535   6.048   3.991 -1.4951  0.1388 -0.4474
18679TIP3    H177528   3.621   6.082   3.964 -1.9957  0.2258 -2.0364
18679TIP3    H277529   3.498   6.118   4.044 -0.5657  0.0726  0.3202
18680TIP3   OH277530   6.643   5.447  10.739  0.4165 -0.2850  0.3492
18680TIP3    H177531   6.630   5.508  10.666 -1.3173  0.0529  0.8805
18680TIP3    H277532   6.601   5.366  10.710  0.7475 -0.5199  0.5247
18681TIP3   OH277533   2.780   3.646   2.046 -0.1136  0.5754 -0.7368
18681TIP3    H177534   2.844   3.672   2.112  1.2318  0.0724 -1.8065
18681TIP3    H277535   2.716   3.718   2.045  0.3519  1.0248  0.4354
18682TIP3   OH277536   2.840   4.014  12.462 -0.1419 -0.0263 -0.0817
18682TIP3    H177537   2.864   4.042  12.550  0.6713 -0.7065 -0.0754
18682TIP3    H277538   2.921   4.023  12.411 -0.7040  0.7352 -0.8537
18683TIP3   OH277539   3.099   5.900   4.169  0.0769  0.0378  0.0033
18683TIP3    H177540   3.100   5.913   4.264  1.1571 -0.9184  0.1442
18683TIP3    H277541   3.099   5.989   4.133 -1.2807  0.4288  0.8701
18684TIP3   OH277542   1.316   2.260  13.477 -0.3021 -0.1125 -0.3433
18684TIP3    H177543   1.345   2.344  13.443 -1.3423  0.2951 -0.2696
18684TIP3    H277544   1.271   2.281  13.559 -1.6231 -0.5792 -0.9160
18685TIP3   OH277545   3.450   5.486   2.696  0.1959 -0.1199  0.7591
18685TIP3    H177546   3.536   5.521   2.722  1.2522  0.1743 -2.6186
18685TIP3    H277547   3.387   5.538   2.747  1.9248  1.9759  0.9491
18686TIP3   OH277548   3.851   3.139  14.592  0.2670 -0.0823 -0.0019
18686TIP3    H177549   3.835   3.224  14.632  0.9814  0.1265 -0.1456
18686TIP3    H277550   3.776   3.125  14.533  0.1479  0.4400  0.0263
18687TIP3   OH277551   4.241   5.878  11.250 -0.3416  0.2210  0.3049
18687TIP3    H177552   4.308   5.880  11.319 -0.8138 -0.6712  0.8056
18687TIP3    H277553   4.194   5.961  11.260 -1.9375 -0.8803  2.6248
18688TIP3   OH277554   1.607   0.297   6.173 -0.1093  0.2868 -0.4066
18688TIP3    H177555   1.640   0.271   6.259 -0.1213 -0.3276 -0.5816
18688TIP3    H277556   1.517   0.265   6.171 -0.6593  1.7295 -0.0292
18689TIP3   OH277557   6.514   0.005  13.419  0.1536  0.3263 -0.1450
18689TIP3    H177558   6.433  -0.013  13.466  0.9895  1.3569  1.7902
18689TIP3    H277559   6.487   0.057  13.343 -1.0516 -0.0128  0.0336
18690TIP3   OH277560   3.404   4.117   1.608 -0.1498 -0.4762  0.0833
18690TIP3    H177561   3.410   4.148   1.698  1.2079 -1.2844  0.3039
18690TIP3    H277562   3.362   4.031   1.615 -0.5517 -0.2975 -0.1182
18691TIP3   OH277563   3.590   0.554   5.080  0.1500 -0.0189  0.2595
18691TIP3    H177564   3.641   0.476   5.101 -1.3539 -0.4687  2.6035
18691TIP3    H277565   3.536   0.527   5.005  1.6372 -0.2639 -0.7660
18692TIP3   OH277566   2.168   1.684   1.076  0.2471 -0.1417  0.6351
18692TIP3    H177567   2.076   1.709   1.084  0.0761 -0.8693  0.9937
18692TIP3    H277568   2.186   1.688   0.982 -0.8175 -2.2542  0.2809
18693TIP3   OH277569   1.121   3.614   5.954 -0.6021 -0.3838  0.1195
18693TIP3    H177570   1.209   3.577   5.949 -0.2907  0.1668  1.2174
18693TIP3    H277571   1.132   3.695   6.005 -2.0355 -1.2736  1.9695
18694TIP3   OH277572   5.875   6.138  13.990  0.0792  0.2320 -0.0502
18694TIP3    H177573   5.945   6.114  13.930 -0.6209  0.5850 -1.0544
18694TIP3    H277574   5.797   6.142  13.934 -1.0686 -1.6702  1.2785
18695TIP3   OH277575   5.251   2.876  12.835  0.6583 -0.0951 -0.3294
18695TIP3    H177576   5.325   2.894  12.777  0.5837 -1.6537 -0.9531
18695TIP3    H277577   5.261   2.784  12.859 -1.8673 -0.8035 -1.6467
18696TIP3   OH277578   6.107   5.595  11.756 -0.3589  0.2603  0.7238
18696TIP3    H177579   6.074   5.641  11.679 -2.2002  0.3726  1.5368
18696TIP3    H277580   6.030   5.580  11.810  0.7229 -0.8311  2.0303
18697TIP3   OH277581   4.316   3.933   5.859  0.7783 -0.1575  0.1989
18697TIP3    H177582   4.300   3.863   5.922  0.2684  1.3277  1.7917
18697TIP3    H277583   4.230   3.954   5.823  0.2349  2.0868  2.4994
18698TIP3   OH277584   0.861   0.681  16.982 -0.2011 -0.8147  0.2861
18698TIP3    H177585   0.877   0.744  16.912 -0.9050 -1.1039 -0.1467
18698TIP3    H277586   0.948   0.648  17.005  0.0543 -0.5998 -0.3459
18699TIP3   OH277587   3.674   1.939   3.121 -0.9583 -0.3390 -0.9138
18699TIP3    H177588   3.587   1.937   3.083 -1.4908  0.4427  0.2173
18699TIP3    H277589   3.729   1.979   3.054 -1.1985 -1.9099 -2.1049
18700TIP3   OH277590   5.880   5.649  15.568 -0.5853 -0.0213  0.0030
18700TIP3    H177591   5.785   5.660  15.561 -1.0973 -2.5465  1.5539
18700TIP3    H277592   5.899   5.575  15.509  0.0219 -0.9679  1.3467
18701TIP3   OH277593   2.468   5.766  16.296 -0.5260 -0.0722 -0.7491
18701TIP3    H177594   2.453   5.677  16.328 -1.8534  0.2396 -0.4691
18701TIP3    H277595   2.410   5.821  16.348  0.8572  1.0997 -0.3494
18702TIP3   OH277596   0.163   5.734  12.728  0.0408 -0.2522  0.5420
18702TIP3    H177597   0.253   5.715  12.702  0.2444  0.7347  0.4896
18702TIP3    H277598   0.165   5.732  12.824  0.0247 -0.6524  0.5340
18703TIP3   OH277599   6.621   6.344   1.375  0.0599  0.0833 -0.2546
18703TIP3    H177600   6.597   6.430   1.341 -0.0173  0.3161  0.3742
18703TIP3    H277601   6.554   6.324   1.441  1.2707  0.5182  1.1583
18704TIP3   OH277602   6.101   1.568   5.690  0.3829  0.3157  0.3586
18704TIP3    H177603   6.065   1.509   5.756  0.4859  1.4449  1.4725
18704TIP3    H277604   6.168   1.618   5.737  2.9295 -1.1794 -1.4563
18705TIP3   OH277605   2.622   3.080   5.311  0.8451  0.2623  0.1037
18705TIP3    H177606   2.682   3.152   5.330 -0.8086  1.7008  0.0198
18705TIP3    H277607   2.602   3.042   5.397  0.8896  0.5710  0.2493
18706TIP3   OH277608   4.049   3.278   1.139 -0.0848 -0.1843 -0.0805
18706TIP3    H177609   4.056   3.358   1.086 -2.3779 -0.7132 -1.3189
18706TIP3    H277610   4.084   3.209   1.084  1.4140 -0.1702  0.7927
18707TIP3   OH277611   0.365   1.949   2.416  0.3662 -0.0260  0.1076
18707TIP3    H177612   0.397   1.939   2.327  3.0428 -1.2712  1.1030
18707TIP3    H277613   0.333   1.862   2.440 -0.2839  0.2872  0.4079
18708TIP3   OH277614   2.071   0.778   6.341 -0.0488 -1.0942  0.5170
18708TIP3    H177615   2.023   0.844   6.392  0.1012  0.4148 -1.1722
18708TIP3    H277616   2.148   0.758   6.394 -0.7270 -0.8461  1.6276
18709TIP3   OH277617   5.024   4.203  15.605 -0.3038  0.1358 -0.2329
18709TIP3    H177618   5.000   4.111  15.596 -0.6202  0.3516 -1.9200
18709TIP3    H277619   5.069   4.208  15.690 -0.7588 -1.4510  0.1333
18710TIP3   OH277620   6.106   2.940  12.209  0.6933 -0.4679 -0.3572
18710TIP3    H177621   6.054   2.897  12.140 -0.1305 -0.7142  0.3913
18710TIP3    H277622   6.186   2.888  12.215  0.5142 -0.7944 -0.7399
18711TIP3   OH277623   3.333   6.679  16.126 -0.2766  0.1325 -0.1675
18711TIP3    H177624   3.267   6.705  16.062 -1.8622 -1.2458  0.8286
18711TIP3    H277625   3.283   6.653  16.203  1.4249 -1.1034  0.5918
18712TIP3   OH277626   0.294   6.607  15.442 -0.2049  0.7689 -0.4709
18712TIP3    H177627   0.234   6.555  15.494 -0.2664  1.3128  0.0120
18712TIP3    H277628   0.318   6.551  15.368 -0.3452  0.1054 -0.0118
18713TIP3   OH277629   2.618   3.841   0.978  0.2630 -0.2691 -0.1492
18713TIP3    H177630   2.596   3.750   0.958 -0.3821 -0.1497  0.0008
18713TIP3    H277631   2.713   3.845   0.971  0.4675 -1.3543  1.5036
18714TIP3   OH277632   5.134   4.680   0.657  0.5548  0.1505 -0.1080
18714TIP3    H177633   5.178   4.599   0.684  0.8392 -0.3196 -1.8648
18714TIP3    H277634   5.171   4.700   0.571 -0.6049  1.3298 -0.3604
18715TIP3   OH277635   0.356   5.855  13.811 -0.1187 -0.5587  0.2911
18715TIP3    H177636   0.439   5.808  13.804 -0.3188 -0.9049  0.1510
18715TIP3    H277637   0.364   5.909  13.889  0.6890  0.3237 -0.3925
18716TIP3   OH277638   6.047   4.195   3.848  0.4007  0.1320  0.2585
18716TIP3    H177639   5.989   4.266   3.875 -0.7481 -0.6698 -0.0055
18716TIP3    H277640   6.088   4.226   3.767  1.4494  1.2790  1.2106
18717TIP3   OH277641   2.360   0.337   3.046 -0.4498 -0.3796 -0.3941
18717TIP3    H177642   2.385   0.294   2.965 -0.0843 -0.1051 -0.4267
18717TIP3    H277643   2.374   0.430   3.030 -0.1892 -0.3382  0.0473
18718TIP3   OH277644   5.595   1.860  11.347  0.0147  0.4833  0.4789
18718TIP3    H177645   5.548   1.786  11.387 -0.4400  1.1173  1.1481
18718TIP3    H277646   5.534   1.893  11.281 -0.5375  1.3411  1.3859
18719TIP3   OH277647   4.993   4.571   0.358 -0.7022 -0.3473  0.2029
18719TIP3    H177648   5.063   4.507   0.369 -0.0532  0.5337  1.5086
18719TIP3    H277649   4.942   4.539   0.284 -0.1143 -2.0931  0.5117
18720TIP3   OH277650   5.261   1.166   4.316 -0.4739  0.1932  0.1853
18720TIP3    H177651   5.241   1.175   4.409  0.1216 -0.2647  0.3637
18720TIP3    H277652   5.356   1.179   4.311 -0.6012  0.9324 -0.4565
18721TIP3   OH277653   1.463   0.215   3.576 -0.5664  0.1795  0.2084
18721TIP3    H177654   1.469   0.279   3.505  0.8220  1.3909  1.3540
18721TIP3    H277655   1.545   0.166   3.572 -0.7916 -0.2435  0.5399
18722TIP3   OH277656   3.962   0.602  12.797  0.2192  0.6575 -0.6840
18722TIP3    H177657   3.895   0.653  12.843 -0.7797 -0.2205 -1.1130
18722TIP3    H277658   3.983   0.531  12.858  1.6984  1.6063 -0.0337
18723TIP3   OH277659   0.328   3.815   4.832  0.4266  0.3892 -0.5126
18723TIP3    H177660   0.323   3.894   4.886 -1.1817  0.1731 -0.3013
18723TIP3    H277661   0.418   3.814   4.800  0.3032  2.7284 -1.1481
18724TIP3   OH277662   6.153   1.128  14.999  0.7967 -0.3383 -0.5723
18724TIP3    H177663   6.131   1.071  15.072  1.9624  0.0546  0.1039
18724TIP3    H277664   6.248   1.129  14.997  0.7837  0.2626 -1.6312
18725TIP3   OH277665   2.829   5.732  14.984  0.0648 -0.2469 -0.4252
18725TIP3    H177666   2.773   5.658  15.004 -0.7420 -0.0030 -1.6698
18725TIP3    H277667   2.917   5.695  14.978 -0.0223 -0.7399  0.9005
18726TIP3   OH277668   1.726   1.328   3.884 -0.4370  0.1866 -0.4091
18726TIP3    H177669   1.683   1.388   3.945  1.1093 -0.3506  1.2777
18726TIP3    H277670   1.776   1.385   3.826 -0.0761  0.6248  0.3134
18727TIP3   OH277671   2.586   4.070   5.316  0.0414  0.0775  0.0729
18727TIP3    H177672   2.651   4.039   5.254  0.5431  0.6406  0.3097
18727TIP3    H277673   2.508   4.017   5.297 -0.3234  1.2608 -2.0714
18728TIP3   OH277674   5.500   1.664   3.072 -0.5704 -0.4282 -0.1136
18728TIP3    H177675   5.413   1.699   3.089 -0.4718  0.3451 -1.1544
18728TIP3    H277676   5.548   1.677   3.154 -0.5387  1.8913 -0.4480
18729TIP3   OH277677   3.341   2.009   5.663 -0.1346 -0.3768 -0.6738
18729TIP3    H177678   3.284   1.981   5.734 -0.1299  0.2132 -0.4389
18729TIP3    H277679   3.291   2.074   5.615  0.0120 -0.4865 -0.9776
18730TIP3   OH277680   0.403   4.888  11.842 -0.1437 -0.1918 -0.2168
18730TIP3    H177681   0.465   4.944  11.796 -0.2007  1.1774  1.2898
18730TIP3    H277682   0.436   4.883  11.932 -1.1328 -1.0860  0.1238
18731TIP3   OH277683   0.862   2.430   2.586  0.1163  0.0468 -0.0236
18731TIP3    H177684   0.831   2.375   2.514  1.9915  0.5463 -1.2947
18731TIP3    H277685   0.816   2.513   2.575  1.7137  0.7783 -1.8784
18732TIP3   OH277686   5.438   3.148  15.342  0.2407  0.5703  0.3324
18732TIP3    H177687   5.377   3.180  15.408  0.3766 -0.5045  0.9970
18732TIP3    H277688   5.524   3.174  15.374  0.2677  0.5129  0.3069
18733TIP3   OH277689   2.831   6.716  16.593  0.6372 -0.0744  0.1501
18733TIP3    H177690   2.776   6.637  16.592  0.6500 -0.0762 -0.6093
18733TIP3    H277691   2.770   6.788  16.609  0.2949  0.0021 -1.3611
18734TIP3   OH277692   6.714   6.499  12.093 -0.1217 -0.0653  0.5458
18734TIP3    H177693   6.636   6.469  12.046 -0.5403  0.7980  0.6662
18734TIP3    H277694   6.732   6.431  12.157 -0.2939 -0.6548 -0.0247
18735TIP3   OH277695   1.470   4.577  16.512 -0.1033 -0.0605  0.1966
18735TIP3    H177696   1.501   4.522  16.584 -1.3654  1.2583  1.8421
18735TIP3    H277697   1.522   4.656  16.518  1.1067 -0.6632 -1.6122
18736TIP3   OH277698   5.616   4.454   1.552 -0.6448  0.0067  0.4665
18736TIP3    H177699   5.674   4.445   1.628 -0.5319 -2.9314  0.1484
18736TIP3    H277700   5.530   4.425   1.584 -0.5075 -1.6459 -0.5652
18737TIP3   OH277701   3.347   5.981   1.931  0.3032  0.2001  0.4072
18737TIP3    H177702   3.270   5.925   1.920 -1.8577  3.2756 -1.6317
18737TIP3    H277703   3.414   5.941   1.875 -0.4748 -1.3794  0.5459
18738TIP3   OH277704   2.695   5.488  15.044 -0.0894 -0.1464  0.6896
18738TIP3    H177705   2.729   5.401  15.023  2.2784  0.4435  1.8258
18738TIP3    H277706   2.610   5.491  14.999  0.0848 -2.7374 -0.0045
18739TIP3   OH277707   0.458   2.281  12.885 -0.5624  0.2973 -0.5317
18739TIP3    H177708   0.547   2.300  12.857 -0.1113 -1.8621 -0.7274
18739TIP3    H277709   0.410   2.363  12.870  1.7214  2.1023  1.2394
18740TIP3   OH277710   2.435   0.196   2.242  0.1933  0.1407 -0.1231
18740TIP3    H177711   2.514   0.207   2.189  1.0710  1.2722  1.3327
18740TIP3    H277712   2.385   0.128   2.197  2.1545 -0.8674 -0.9218
18741TIP3   OH277713   4.105   1.185  12.834 -0.2992  0.6293 -0.4603
18741TIP3    H177714   4.058   1.229  12.904 -0.6864 -0.3395 -0.0968
18741TIP3    H277715   4.132   1.101  12.871  2.6896  1.5447 -0.2895
18742TIP3   OH277716   3.099   1.705  11.140  0.2888  0.3246 -0.1418
18742TIP3    H177717   3.053   1.649  11.078  0.2314 -2.4992  2.2635
18742TIP3    H277718   3.032   1.730  11.204  0.0806  4.0885 -1.5770
18743TIP3   OH277719   5.272   5.489  16.882  0.4283  0.1159  0.1699
18743TIP3    H177720   5.324   5.541  16.943  0.0293  0.7420 -0.0103
18743TIP3    H277721   5.203   5.450  16.935  1.4457 -1.2613  0.5330
18744TIP3   OH277722   3.455   2.703  13.408 -0.0463 -0.1734 -0.1770
18744TIP3    H177723   3.378   2.649  13.393  1.1946 -2.1600  0.2304
18744TIP3    H277724   3.515   2.647  13.457  0.4235  2.3650  2.4671
18745TIP3   OH277725   3.836   4.445   5.292 -0.1684  0.9019 -0.1439
18745TIP3    H177726   3.756   4.495   5.309 -0.2917  1.0253 -1.0534
18745TIP3    H277727   3.832   4.372   5.354  0.5106  2.5282  1.9168
18746TIP3   OH277728   4.686   1.377  15.168  0.2731  0.3565 -0.6839
18746TIP3    H177729   4.660   1.359  15.078 -1.9036 -1.6690  0.2462
18746TIP3    H277730   4.643   1.309  15.220  0.6614  2.0027  2.0138
18747TIP3   OH277731   6.318   2.101   2.571 -0.6013 -0.1975 -0.4767
18747TIP3    H177732   6.365   2.019   2.558  0.6998  0.5116 -0.4465
18747TIP3    H277733   6.308   2.108   2.666 -2.6818 -1.3459 -0.5500
18748TIP3   OH277734   0.808   2.026  16.173 -0.1371 -0.2668  0.6245
18748TIP3    H177735   0.749   2.090  16.134  0.3389 -0.1557  0.0643
18748TIP3    H277736   0.843   2.069  16.251  2.2790  1.2934 -1.1713
18749TIP3   OH277737   1.943   5.408  16.425  0.6663  0.4262 -0.0037
18749TIP3    H177738   1.929   5.468  16.498  0.6791 -1.4172  1.5824
18749TIP3    H277739   2.019   5.355  16.451  0.0251 -0.9836 -0.8673
18750TIP3   OH277740   3.305   3.801   1.200  0.4648  0.4956 -0.1245
18750TIP3    H177741   3.285   3.713   1.170  1.0740  0.7556 -1.3244
18750TIP3    H277742   3.400   3.808   1.196  0.3441  1.7706 -1.7205
18751TIP3   OH277743   0.187   2.492  12.310 -0.4718 -0.2602  0.5178
18751TIP3    H177744   0.213   2.402  12.290 -1.2166 -0.1765 -0.9201
18751TIP3    H277745   0.156   2.487  12.401 -2.3577 -1.9002 -0.1450
18752TIP3   OH277746   4.703   4.953  14.048  0.1559 -0.2022  0.4047
18752TIP3    H177747   4.698   4.989  13.960 -1.9590 -0.3637  0.4116
18752TIP3    H277748   4.706   5.030  14.105 -1.7582  0.0086  0.2963
18753TIP3   OH277749   3.113   5.457   1.247 -0.1244  0.3165  0.0541
18753TIP3    H177750   3.024   5.451   1.281  0.2542 -0.2378  0.9825
18753TIP3    H277751   3.148   5.368   1.253  0.1236  0.2883 -1.3788
18754TIP3   OH277752   4.946   1.039  11.286 -0.3743 -0.2796  1.1778
18754TIP3    H177753   4.886   0.973  11.250 -0.1425 -0.6296  1.4239
18754TIP3    H277754   4.943   1.024  11.381 -0.4015  0.1378  1.2438
18755TIP3   OH277755   6.162   5.844   5.436 -0.7919 -0.0673 -0.0109
18755TIP3    H177756   6.141   5.795   5.516 -1.7133  0.1940 -0.0887
18755TIP3    H277757   6.223   5.912   5.464  0.9775 -1.5611  0.0134
18756TIP3   OH277758   0.934   2.228  13.701 -0.3301  0.4532  0.8692
18756TIP3    H177759   0.875   2.252  13.629 -2.7977 -0.6843  2.3564
18756TIP3    H277760   0.881   2.240  13.780  0.5009 -3.0155  2.1566
18757TIP3   OH277761   2.028   1.869   2.300 -0.0287 -0.5564 -0.3418
18757TIP3    H177762   2.047   1.962   2.293  0.2798 -0.4013  1.8477
18757TIP3    H277763   1.939   1.861   2.264  0.3857  0.3407 -1.6602
18758TIP3   OH277764   3.488   1.675   3.466  0.1330  0.3635 -0.1576
18758TIP3    H177765   3.423   1.615   3.430  0.4011 -0.2232  0.3073
18758TIP3    H277766   3.491   1.654   3.560  0.6746  0.6823 -0.0951
18759TIP3   OH277767   3.187   6.528   4.794  0.1270  0.0022 -0.1234
18759TIP3    H177768   3.266   6.511   4.846 -0.6021  2.6315  2.0372
18759TIP3    H277769   3.129   6.454   4.814  0.2495  0.4508  2.1314
18760TIP3   OH277770   3.887   1.583   6.267  0.0464  0.4098  0.3215
18760TIP3    H177771   3.841   1.554   6.346  2.0697  0.6501  1.6639
18760TIP3    H277772   3.962   1.632   6.300  0.5719  1.1295 -1.7916
18761TIP3   OH277773   3.893   5.410   0.086  0.1255  0.6424 -0.5740
18761TIP3    H177774   3.931   5.376   0.166  0.5235  1.9449 -0.1885
18761TIP3    H277775   3.914   5.344   0.020 -2.2506 -1.6549  0.7777
18762TIP3   OH277776   5.039   4.613   3.353  0.1006 -0.1012 -0.1969
18762TIP3    H177777   4.973   4.671   3.391 -0.0631 -0.5618  0.2363
18762TIP3    H277778   5.093   4.670   3.298 -1.0232  0.1644 -1.0446
18763TIP3   OH277779   1.443   2.625  11.994  0.1449 -0.1988 -0.2296
18763TIP3    H177780   1.406   2.594  11.912 -0.5983 -1.7079  0.6360
18763TIP3    H277781   1.375   2.681  12.031  0.6892  0.9074 -0.8611
18764TIP3   OH277782   5.275   4.562  12.226  0.5837  0.0060  0.5178
18764TIP3    H177783   5.344   4.515  12.178  0.4090  1.0312 -0.8078
18764TIP3    H277784   5.321   4.636  12.266  0.0355  1.7810 -1.9240
18765TIP3   OH277785   2.443   2.787  14.395  0.3970 -0.4142  0.2014
18765TIP3    H177786   2.393   2.754  14.471 -0.4753 -0.6251 -0.4464
18765TIP3    H277787   2.534   2.781  14.422  0.0721  2.7037  2.5692
18766TIP3   OH277788   0.711   2.020   3.817 -0.5884  0.1063  0.4434
18766TIP3    H177789   0.761   1.943   3.845  0.2193 -0.6380 -2.6756
18766TIP3    H277790   0.765   2.094   3.846 -0.4114 -0.5095  1.7942
18767TIP3   OH277791   1.761   2.134   0.877 -0.4303 -0.1388  0.2627
18767TIP3    H177792   1.748   2.228   0.874 -1.7751 -0.3377 -0.8204
18767TIP3    H277793   1.773   2.107   0.786  0.1532 -0.9963  0.5719
18768TIP3   OH277794   0.424   0.681  16.448  0.2380 -0.5890  0.4666
18768TIP3    H177795   0.412   0.776  16.435  0.0162 -0.6669  0.0976
18768TIP3    H277796   0.376   0.641  16.376  0.2436 -0.9894  0.6861
18769TIP3   OH277797   2.676   1.830   2.068  0.0091  0.6356 -0.0552
18769TIP3    H177798   2.664   1.762   2.002  0.7206  0.1090  0.3439
18769TIP3    H277799   2.595   1.827   2.119 -0.3715  0.7619 -0.6420
18770TIP3   OH277800   6.635   2.921   2.213 -0.5307 -0.1235 -0.3090
18770TIP3    H177801   6.632   2.948   2.121  1.6108  0.4090 -0.2708
18770TIP3    H277802   6.675   2.834   2.211  0.5207  0.3392  0.1794
18771TIP3   OH277803   1.600   0.820  15.360 -1.0056 -0.4805 -0.3503
18771TIP3    H177804   1.584   0.914  15.365 -0.5225 -0.4699  2.0367
18771TIP3    H277805   1.627   0.805  15.270 -2.1454  1.4754 -1.0801
18772TIP3   OH277806   2.936   2.708  15.949  0.4904  0.2561  0.6972
18772TIP3    H177807   3.014   2.721  15.895  0.4102  0.5301  0.6489
18772TIP3    H277808   2.874   2.773  15.918 -0.0598 -0.4949  0.1714
18773TIP3   OH277809   6.301   2.396  13.287  0.3690 -0.3774  0.5256
18773TIP3    H177810   6.380   2.376  13.237  1.5940 -0.7626  2.4959
18773TIP3    H277811   6.303   2.335  13.361 -0.4905  1.1831  1.9092
18774TIP3   OH277812   0.879   5.125  17.177 -0.2621  0.6277  0.1459
18774TIP3    H177813   0.786   5.107  17.172 -0.1905  0.3109 -0.0666
18774TIP3    H277814   0.901   5.165  17.093 -0.3993  1.6327  0.5745
18775TIP3   OH277815   3.793   6.627  12.571 -0.1911  0.0974  0.2596
18775TIP3    H177816   3.833   6.597  12.653 -1.6530  1.1351  1.3957
18775TIP3    H277817   3.852   6.696  12.541 -0.0682  0.2733  0.8747
18776TIP3   OH277818   4.962   6.275   2.163 -0.1107  0.4897  0.2647
18776TIP3    H177819   5.020   6.325   2.221  0.9124  1.5196 -1.5329
18776TIP3    H277820   4.943   6.336   2.091  0.0031 -1.2319 -1.2938
18777TIP3   OH277821   3.894   4.682  16.289  0.0518  0.1179 -0.1866
18777TIP3    H177822   3.934   4.761  16.253  0.9049  0.1391  0.7504
18777TIP3    H277823   3.891   4.698  16.383 -2.4427  0.2165 -0.2074
18778TIP3   OH277824   4.173   3.174  12.895 -0.2409  0.1474  0.1838
18778TIP3    H177825   4.173   3.079  12.884 -1.6967 -0.1964  2.4180
18778TIP3    H277826   4.080   3.197  12.900  0.1079  1.3637  1.6962
18779TIP3   OH277827   3.516   2.770  16.298 -0.2705  0.2214 -0.4092
18779TIP3    H177828   3.515   2.746  16.206 -1.7980 -1.0456 -0.1156
18779TIP3    H277829   3.432   2.816  16.312 -0.0241  0.4681  0.3235
18780TIP3   OH277830   4.586   5.082   1.358  0.1819 -0.1348  0.3508
18780TIP3    H177831   4.629   4.996   1.353  1.9725  0.7648 -3.4077
18780TIP3    H277832   4.653   5.140   1.394 -0.1345  0.1580  0.4723
18781TIP3   OH277833   1.416   6.528  13.737  0.4647 -0.6910 -0.6346
18781TIP3    H177834   1.332   6.573  13.743  0.1960 -1.0408 -1.6605
18781TIP3    H277835   1.481   6.596  13.756  0.0547  0.0881 -1.8985
18782TIP3   OH277836   3.235   4.946  13.617 -0.0382 -0.5269  0.0952
18782TIP3    H177837   3.308   4.991  13.575  0.4651 -0.1785  1.2923
18782TIP3    H277838   3.276   4.883  13.677 -0.7294 -1.1351 -0.0532
18783TIP3   OH277839   1.909   4.077   0.353  0.2493  0.2855  0.1799
18783TIP3    H177840   1.960   4.048   0.428 -0.4664 -0.3897  0.4217
18783TIP3    H277841   1.882   4.166   0.374 -1.0657 -0.3416  1.3590
18784TIP3   OH277842   5.874   6.038   1.029 -0.0922 -0.2746 -0.4905
18784TIP3    H177843   5.960   6.073   1.006 -0.3344  0.5335 -0.2274
18784TIP3    H277844   5.812   6.097   0.984 -0.5124 -0.5665 -0.2999
18785TIP3   OH277845   3.337   1.053   1.956 -0.0542  0.7383  0.0280
18785TIP3    H177846   3.378   1.000   1.888  0.5622  2.4306 -0.9892
18785TIP3    H277847   3.244   1.030   1.952 -0.2767  1.7473 -2.3900
18786TIP3   OH277848   6.462   1.026   2.485  0.0301 -0.0613 -0.6797
18786TIP3    H177849   6.448   1.067   2.571  0.7306  0.3601 -0.7641
18786TIP3    H277850   6.469   0.932   2.504  1.6455  0.1464 -0.0740
18787TIP3   OH277851   3.812   5.579  13.569 -0.2769  0.6453 -0.7294
18787TIP3    H177852   3.759   5.650  13.535 -1.1318  0.5226  0.3119
18787TIP3    H277853   3.843   5.610  13.654 -1.8166 -0.7344  0.3863
18788TIP3   OH277854   5.518   5.913  12.253 -0.4822  0.0311 -0.5164
18788TIP3    H177855   5.535   5.991  12.305 -1.0417 -0.6666  0.7487
18788TIP3    H277856   5.424   5.915  12.237 -0.6082 -0.7039  0.0799
18789TIP3   OH277857   6.026   3.099  11.675 -0.9092  0.1332 -0.0577
18789TIP3    H177858   6.031   3.046  11.754  1.1504  0.5110  0.1141
18789TIP3    H277859   5.979   3.045  11.612 -0.5059 -1.1361  0.7067
18790TIP3   OH277860   5.493   5.226   1.720 -0.2636 -0.1184 -0.2123
18790TIP3    H177861   5.457   5.305   1.680 -0.0877 -0.0403 -0.2191
18790TIP3    H277862   5.424   5.196   1.779  0.1129  0.7255  0.7059
18791TIP3   OH277863   3.374   4.842  16.536 -0.3427 -0.0274 -0.1807
18791TIP3    H177864   3.379   4.770  16.599  1.8384  1.0825  1.0291
18791TIP3    H277865   3.350   4.918  16.589 -1.5154  0.3878 -1.2598
18792TIP3   OH277866   6.518   0.250  14.070  0.3998  0.7161  0.1412
18792TIP3    H177867   6.532   0.279  13.979  2.4458  2.8124  1.0317
18792TIP3    H277868   6.456   0.313  14.105  1.6660  1.5656  0.9169
18793TIP3   OH277869   4.045   1.233  13.776  0.4682 -0.2299  0.0420
18793TIP3    H177870   4.039   1.183  13.857  0.8384 -0.9958 -0.3899
18793TIP3    H277871   3.964   1.284  13.772 -0.5769 -1.8642 -0.1922
18794TIP3   OH277872   3.042   3.295   0.034 -0.4507 -0.7249 -0.0820
18794TIP3    H177873   2.965   3.292   0.092 -1.2613  0.1978 -1.0729
18794TIP3    H277874   3.061   3.203   0.016 -0.8910 -0.9888  0.7167
18795TIP3   OH277875   0.232   0.067   3.154  0.4267 -0.0080 -0.1359
18795TIP3    H177876   0.178   0.126   3.208 -1.0240 -1.1075 -0.3091
18795TIP3    H277877   0.214  -0.020   3.190  2.9890 -0.3455  0.5019
18796TIP3   OH277878   1.699   1.723   2.764 -0.3952  0.2877  0.4240
18796TIP3    H177879   1.704   1.635   2.729 -0.1155 -0.0811  1.3577
18796TIP3    H277880   1.679   1.778   2.688  0.9911 -0.3745 -0.4616
18797TIP3   OH277881   2.737   5.443   1.074 -0.1195 -0.5644 -0.0122
18797TIP3    H177882   2.665   5.444   1.138  0.4037 -1.6628  0.6335
18797TIP3    H277883   2.799   5.509   1.106 -0.6225  0.0571 -0.3130
18798TIP3   OH277884   2.654   2.721   2.808  0.2877 -0.5703 -0.0674
18798TIP3    H177885   2.590   2.696   2.741 -0.8127 -0.6349  0.9735
18798TIP3    H277886   2.609   2.707   2.891  1.2323  0.5380  0.6732
18799TIP3   OH277887   5.511   4.657   1.824  0.0258 -0.3322 -0.1610
18799TIP3    H177888   5.469   4.571   1.816 -0.7410 -0.0011  0.2659
18799TIP3    H277889   5.446   4.712   1.867  0.9087  0.1841  0.5460
18800TIP3   OH277890   4.564   3.902   2.421 -0.0209 -0.6247 -0.0482
18800TIP3    H177891   4.524   3.834   2.367 -0.9013 -0.7284  0.6938
18800TIP3    H277892   4.563   3.865   2.510 -2.0061  0.9428  0.6539
18801TIP3   OH277893   3.494   1.430   1.093 -0.1554 -0.2230  0.3726
18801TIP3    H177894   3.490   1.515   1.136 -0.1353 -0.0467  0.0274
18801TIP3    H277895   3.419   1.430   1.033 -0.7140 -0.8212  1.0556
18802TIP3   OH277896   2.128   0.213   5.594 -0.2457  0.2542 -0.0110
18802TIP3    H177897   2.194   0.144   5.593 -0.6272 -0.1283  0.5103
18802TIP3    H277898   2.052   0.173   5.637 -1.8214 -0.2153 -2.9470
18803TIP3   OH277899   4.362   6.519   1.759 -0.4833 -0.0959  0.0745
18803TIP3    H177900   4.362   6.599   1.707  2.9793 -0.3452 -0.5461
18803TIP3    H277901   4.373   6.549   1.850 -0.3115  0.1888 -0.0386
18804TIP3   OH277902   3.800   6.349  12.850  0.4154 -0.5910  0.0254
18804TIP3    H177903   3.827   6.257  12.852  0.5528 -0.5389  2.0720
18804TIP3    H277904   3.855   6.392  12.915 -1.2119  0.4760  0.7606
18805TIP3   OH277905   1.554   1.687  14.997  0.4817 -0.0218 -0.4474
18805TIP3    H177906   1.647   1.684  14.975  0.3094 -0.1873 -1.1472
18805TIP3    H277907   1.519   1.758  14.944 -0.0765 -0.8959 -1.2648
18806TIP3   OH277908   1.951   0.779   3.367  0.6268  0.5924  0.6763
18806TIP3    H177909   2.024   0.838   3.350  0.5755  0.0043 -2.0188
18806TIP3    H277910   1.986   0.692   3.349 -0.2908  0.1293  1.0421
18807TIP3   OH277911   5.228   5.075  16.092  0.2174  0.1441  0.3750
18807TIP3    H177912   5.211   4.987  16.059  0.0518  0.4239 -0.3034
18807TIP3    H277913   5.154   5.127  16.060  0.4830  0.5971  0.4896
18808TIP3   OH277914   1.916   6.211  10.723  0.0080  1.1448 -0.3738
18808TIP3    H177915   1.995   6.158  10.709  0.0269  1.1041 -0.1171
18808TIP3    H277916   1.845   6.147  10.726 -0.1831  1.2577 -1.6772
18809TIP3   OH277917   1.465   2.472   5.522 -0.7414 -0.8619 -0.1460
18809TIP3    H177918   1.550   2.493   5.484 -1.3769 -0.7046 -1.5478
18809TIP3    H277919   1.476   2.385   5.559  0.8924  0.3590  2.5274
18810TIP3   OH277920   0.611   2.185  14.561 -0.1544  0.0021  0.0781
18810TIP3    H177921   0.599   2.263  14.507  0.1640 -1.6786 -2.6035
18810TIP3    H277922   0.704   2.187  14.585 -0.2604  0.6842  0.4601
18811TIP3   OH277923   6.357   0.044  14.571 -0.0102  0.2282 -0.0323
18811TIP3    H177924   6.409  -0.032  14.597 -1.0033 -0.2839  0.5061
18811TIP3    H277925   6.285   0.007  14.519  0.0794  0.9134 -0.6549
18812TIP3   OH277926   4.694   5.190  12.433 -0.2649  0.1031 -0.0608
18812TIP3    H177927   4.761   5.257  12.421 -0.5893  0.4923  0.2441
18812TIP3    H277928   4.714   5.123  12.368  0.3837  0.2427 -0.0074
18813TIP3   OH277929   4.712   5.263  11.661  0.2095 -0.2917 -0.2993
18813TIP3    H177930   4.631   5.313  11.657 -0.3613 -1.2640 -1.6548
18813TIP3    H277931   4.781   5.329  11.670 -0.6574  0.5956 -0.0014
18814TIP3   OH277932   1.190   4.996  14.261 -0.1347  0.2866  0.1392
18814TIP3    H177933   1.183   4.940  14.184 -0.4453  1.6389 -0.8534
18814TIP3    H277934   1.107   4.984  14.307  0.1413 -0.6949  0.3905
18815TIP3   OH277935   5.001   3.829   1.964 -0.2899 -0.1786  0.9504
18815TIP3    H177936   4.990   3.847   1.870 -2.2190 -0.4436  1.0890
18815TIP3    H277937   5.058   3.900   1.994 -1.6115  1.3828  0.0182
18816TIP3   OH277938   1.897   3.195   3.676 -0.3321 -0.3517  0.0623
18816TIP3    H177939   1.829   3.232   3.732 -0.4427 -2.2461  1.2680
18816TIP3    H277940   1.970   3.256   3.684 -0.8381  0.1371  1.1813
18817TIP3   OH277941   3.513   0.017   5.026 -0.0677  0.8880  0.1084
18817TIP3    H177942   3.593  -0.031   5.047  0.6269  1.8612 -0.2486
18817TIP3    H277943   3.442  -0.044   5.048  0.7766 -0.2986 -0.3112
18818TIP3   OH277944   4.731   0.293   3.361  0.2604  0.1914 -0.5056
18818TIP3    H177945   4.801   0.228   3.374  0.3558  0.5283  0.7986
18818TIP3    H277946   4.745   0.357   3.430 -0.1598  1.3369 -1.4600
18819TIP3   OH277947   0.903   3.231   2.108 -0.2587 -0.0388 -0.4606
18819TIP3    H177948   0.872   3.316   2.140  1.7451  1.4847 -2.2499
18819TIP3    H277949   0.951   3.193   2.182  0.4541  1.2972 -0.2108
18820TIP3   OH277950   1.084   3.659  13.654  0.4102 -0.2441 -0.4307
18820TIP3    H177951   0.992   3.657  13.628  0.4568  0.4364 -0.6813
18820TIP3    H277952   1.104   3.752  13.662  0.7997 -0.4030  0.6341
18821TIP3   OH277953   0.863   5.334  13.705  0.2901 -0.4672  0.9344
18821TIP3    H177954   0.793   5.272  13.683  0.0382 -0.3128  1.2963
18821TIP3    H277955   0.865   5.394  13.630  0.9643 -1.2805  0.2816
18822TIP3   OH277956   1.077   1.565   0.019  0.3859  0.4039 -0.4076
18822TIP3    H177957   1.131   1.562  -0.061 -0.4288 -0.5983 -0.9427
18822TIP3    H277958   0.989   1.544  -0.011  0.1436 -0.4084  0.8292
18823TIP3   OH277959   1.654   5.964   1.840  0.2098 -0.0612 -0.3900
18823TIP3    H177960   1.698   5.992   1.920 -2.2794  0.7456  0.7976
18823TIP3    H277961   1.606   5.885   1.866  3.0981 -2.6903 -2.4005
18824TIP3   OH277962   2.422   4.001  11.375 -0.4498 -0.1576  0.2687
18824TIP3    H177963   2.449   4.093  11.364 -0.9673  0.0878  0.9858
18824TIP3    H277964   2.385   3.977  11.290 -1.9830  0.8824  0.5927
18825TIP3   OH277965   6.546   0.894   5.443 -0.0650 -0.5974 -0.0189
18825TIP3    H177966   6.521   0.971   5.494  0.4835 -0.5584  0.1965
18825TIP3    H277967   6.639   0.906   5.425 -0.4849  0.0280 -2.1172
18826TIP3   OH277968   1.240   1.545   0.752  0.2098  0.1193 -0.3946
18826TIP3    H177969   1.228   1.536   0.846 -2.2520  2.4603 -0.3397
18826TIP3    H277970   1.334   1.535   0.738  0.7687  0.6518  2.4420
18827TIP3   OH277971   2.405   0.893   3.034 -0.3111 -0.1938 -0.2720
18827TIP3    H177972   2.380   0.953   3.105  2.3776 -0.2201  0.8050
18827TIP3    H277973   2.410   0.950   2.957 -0.6902  0.3763  0.1084
18828TIP3   OH277974   0.662   1.328   4.029 -0.2539  0.3642  0.6792
18828TIP3    H177975   0.593   1.383   3.992  0.6173  1.5656  0.7574
18828TIP3    H277976   0.648   1.333   4.124 -0.1986  0.4162  0.6843
18829TIP3   OH277977   1.230   4.016   3.982  0.4495  0.3666  0.0726
18829TIP3    H177978   1.322   4.008   4.009  1.1222 -1.9940 -2.4763
18829TIP3    H277979   1.223   4.105   3.948  1.7707  0.6002  0.3455
18830TIP3   OH277980   0.749   5.755   0.153  1.0741  0.2639 -0.8030
18830TIP3    H177981   0.749   5.837   0.202  0.6221 -0.4670  0.4660
18830TIP3    H277982   0.832   5.713   0.177  0.8577 -0.0883 -0.6603
18831TIP3   OH277983   0.382   6.468   2.987  0.8005  0.1746  0.0923
18831TIP3    H177984   0.333   6.398   2.943  2.1987 -0.0123 -1.2531
18831TIP3    H277985   0.383   6.539   2.923  0.7939  0.8207  0.8062
18832TIP3   OH277986   5.850   4.343   4.743 -0.4060  0.1750 -0.0631
18832TIP3    H177987   5.756   4.327   4.740 -0.3467 -0.3326  0.5792
18832TIP3    H277988   5.860   4.421   4.797 -0.4236 -0.1384  0.3995
18833TIP3   OH277989   6.061   3.458  14.107  0.3048  0.5629 -0.4483
18833TIP3    H177990   6.030   3.463  14.198 -0.2737  2.1317 -0.6949
18833TIP3    H277991   6.076   3.364  14.092 -1.0947  0.0991  0.7692
18834TIP3   OH277992   4.655   5.322  10.756 -0.1275 -0.0591  0.0417
18834TIP3    H177993   4.597   5.282  10.691 -0.9547  1.7551 -0.4094
18834TIP3    H277994   4.656   5.415  10.732 -0.5798  0.7059  2.7091
18835TIP3   OH277995   1.288   4.188   6.142 -0.0424  0.1230 -0.7552
18835TIP3    H177996   1.286   4.269   6.092  1.5700  1.5513  1.3041
18835TIP3    H277997   1.197   4.163   6.152 -0.6670  2.3340 -0.4658
18836TIP3   OH277998   0.199   6.150  16.010 -0.3972  0.4090 -1.0354
18836TIP3    H177999   0.120   6.101  16.036 -0.7696  0.7290 -1.5420
18836TIP3    H278000   0.187   6.237  16.048 -0.6689  0.6997 -1.7548
18837TIP3   OH278001   1.527   0.222  13.849  0.0129  0.4875  0.0868
18837TIP3    H178002   1.607   0.265  13.820 -0.1857  0.1959 -0.9435
18837TIP3    H278003   1.459   0.257  13.792 -0.0731 -1.5331 -1.1697
18838TIP3   OH278004   4.075   5.229  14.122 -0.3113  0.0344 -0.4452
18838TIP3    H178005   4.021   5.170  14.175  0.6967 -0.2560  0.2867
18838TIP3    H278006   4.065   5.197  14.032 -0.2516 -0.8821 -0.1350
18839TIP3   OH278007   1.045   2.285  15.561  0.4240  0.0367 -0.0779
18839TIP3    H178008   1.121   2.247  15.605  1.7903 -0.0949 -2.3888
18839TIP3    H278009   1.081   2.351  15.501 -1.5055  1.6433  0.4069
18840TIP3   OH278010   6.177   1.676  12.852  0.4112 -0.2696 -0.5649
18840TIP3    H178011   6.149   1.752  12.801 -0.1858 -0.0396  0.0931
18840TIP3    H278012   6.099   1.622  12.860 -0.1334  0.7607  1.9593
18841TIP3   OH278013   5.198   6.629  14.335  0.4638 -0.1296  0.7265
18841TIP3    H178014   5.107   6.653  14.352  0.2656 -1.9278  2.4969
18841TIP3    H278015   5.194   6.576  14.255  0.0591  0.3659  0.4109
18842TIP3   OH278016   1.634   1.124   5.232 -0.0593 -0.1799 -0.0742
18842TIP3    H178017   1.706   1.064   5.213  0.9068  0.8256  0.3372
18842TIP3    H278018   1.589   1.133   5.148  1.2167  0.3621 -0.7242
18843TIP3   OH278019   4.151   5.166   4.081 -0.1649  0.0797 -0.1444
18843TIP3    H178020   4.066   5.177   4.038 -0.9255  4.1497  1.8111
18843TIP3    H278021   4.216   5.182   4.013 -1.0305 -0.4290 -1.1151
18844TIP3   OH278022   3.112   6.530   3.688  0.1769 -0.2589  0.1665
18844TIP3    H178023   3.124   6.599   3.623 -1.5501 -0.3051 -0.2434
18844TIP3    H278024   3.200   6.514   3.722  1.0314  0.2387 -1.6707
18845TIP3   OH278025   6.145   3.681   3.399 -0.6750  0.5458  0.5896
18845TIP3    H178026   6.081   3.681   3.328  0.2048 -0.4324 -0.2337
18845TIP3    H278027   6.092   3.686   3.479 -1.6440  3.0991 -0.0964
18846TIP3   OH278028   6.088   3.066   3.390 -0.2577  0.2797 -0.1692
18846TIP3    H178029   6.073   3.161   3.387  0.1605  0.3711  0.3764
18846TIP3    H278030   6.156   3.050   3.324  1.2939  0.7085  1.2328
18847TIP3   OH278031   1.204   6.189   2.851  0.0480  0.1450  0.4822
18847TIP3    H178032   1.184   6.170   2.943 -1.5790  0.0190  0.1398
18847TIP3    H278033   1.119   6.183   2.806  1.0307 -1.5886 -1.3411
18848TIP3   OH278034   3.033   5.375  15.205 -0.0312 -0.1835 -0.3874
18848TIP3    H178035   3.110   5.368  15.262  0.6001  0.0627 -1.1856
18848TIP3    H278036   3.006   5.467  15.212 -0.1716 -0.2387 -0.2064
18849TIP3   OH278037   4.333   6.334   3.196  0.3573 -0.1848  0.7443
18849TIP3    H178038   4.405   6.286   3.155  1.5765  0.4630  2.0456
18849TIP3    H278039   4.372   6.418   3.220 -0.5496 -0.2183  2.4311
18850TIP3   OH278040   0.471   5.397  17.220 -0.2626  0.3074 -0.0955
18850TIP3    H178041   0.484   5.482  17.178  0.9640 -0.8803 -2.3128
18850TIP3    H278042   0.532   5.397  17.294  0.1380  1.1485 -0.4140
18851TIP3   OH278043   2.239   5.492  12.600  1.0531  0.7996 -0.1347
18851TIP3    H178044   2.239   5.584  12.627 -1.5847  1.2516 -1.3278
18851TIP3    H278045   2.224   5.496  12.505 -1.2828 -0.8217  0.0842
18852TIP3   OH278046   1.783   1.954   5.103 -0.2534  0.1988 -0.0534
18852TIP3    H178047   1.874   1.961   5.073 -0.1017 -0.5854  0.2063
18852TIP3    H278048   1.736   2.018   5.050  0.2774 -0.1005 -0.9053
18853TIP3   OH278049   1.342   1.806  13.557 -0.3977  0.0473  0.5394
18853TIP3    H178050   1.366   1.862  13.631  3.5541 -1.4783  0.6173
18853TIP3    H278051   1.296   1.732  13.597 -0.3954  0.3695  1.1544
18854TIP3   OH278052   0.827   1.466   5.102  0.2122 -0.0312 -0.0800
18854TIP3    H178053   0.751   1.495   5.151  0.2019  0.4695 -0.3885
18854TIP3    H278054   0.813   1.500   5.013  1.1748  0.7512  0.0493
18855TIP3   OH278055   5.081   0.449   1.103 -0.0167  1.0094 -0.4158
18855TIP3    H178056   5.084   0.461   1.009  0.8327 -0.0349 -0.5525
18855TIP3    H278057   5.138   0.517   1.138  0.5868  0.6949 -0.7602
18856TIP3   OH278058   2.427   3.856  14.307  0.2736  0.0920  0.2677
18856TIP3    H178059   2.406   3.942  14.269 -0.4682  0.0924  0.6595
18856TIP3    H278060   2.420   3.795  14.233 -2.4796 -0.1056  0.5942
18857TIP3   OH278061   2.480   6.297   0.494 -0.7695  0.3088  0.2662
18857TIP3    H178062   2.475   6.229   0.426  1.8299  0.4577 -0.1463
18857TIP3    H278063   2.516   6.373   0.450  0.2915  0.6399  1.6490
18858TIP3   OH278064   5.571   6.330   5.028 -0.1698 -0.4943 -0.2327
18858TIP3    H178065   5.644   6.373   5.073 -0.8831  0.0903  0.3754
18858TIP3    H278066   5.609   6.303   4.944  0.4745  0.7483 -0.3739
18859TIP3   OH278067   0.648   3.006  15.007 -0.2308 -0.3187 -0.2471
18859TIP3    H178068   0.683   3.077  14.954 -1.3170 -0.4992 -1.2287
18859TIP3    H278069   0.554   3.006  14.990 -0.3605 -1.4997  0.3386
18860TIP3   OH278070   6.269   5.688  16.534  0.3978  0.8304  0.7045
18860TIP3    H178071   6.209   5.634  16.586  0.2198 -0.3096 -0.6327
18860TIP3    H278072   6.234   5.777  16.542 -0.7354  0.3830  0.9997
18861TIP3   OH278073   3.543   4.671   3.575 -0.1087 -0.3854 -0.8453
18861TIP3    H178074   3.521   4.740   3.638 -1.5075 -1.6587  0.1364
18861TIP3    H278075   3.488   4.689   3.499 -0.5048 -0.4461 -0.5733
18862TIP3   OH278076   0.061   2.946  12.075 -0.5723 -0.1848 -0.0314
18862TIP3    H178077   0.086   3.011  12.010  2.4567 -0.5267  0.6548
18862TIP3    H278078   0.084   2.862  12.035  0.3013 -0.4655  1.0303
18863TIP3   OH278079   2.091   2.404   1.400 -0.8189 -0.0904 -0.2589
18863TIP3    H178080   2.148   2.347   1.452 -4.2672 -2.5050  1.3133
18863TIP3    H278081   2.103   2.491   1.439  0.0237 -0.9884  1.6434
18864TIP3   OH278082   5.358   5.016  14.095  0.2702 -0.4273 -0.0307
18864TIP3    H178083   5.328   5.103  14.123  1.0046  0.5873 -2.1161
18864TIP3    H278084   5.407   4.983  14.170  0.7494  1.3758  0.5197
18865TIP3   OH278085   5.003   1.338   0.554 -0.4564 -0.0499  0.4372
18865TIP3    H178086   5.049   1.281   0.616  0.4222  1.1498  0.9356
18865TIP3    H278087   5.069   1.400   0.525 -0.7281 -0.8315 -2.0990
18866TIP3   OH278088   1.233   3.245  14.230 -0.1877 -0.5504  0.2907
18866TIP3    H178089   1.300   3.221  14.165  0.1012 -0.5479  0.5826
18866TIP3    H278090   1.234   3.341  14.230 -0.5335 -0.5464 -0.0526
18867TIP3   OH278091   0.459   3.755   3.807  0.8268  0.1687  0.4286
18867TIP3    H178092   0.401   3.831   3.803  1.6594  0.8786  1.3618
18867TIP3    H278093   0.414   3.695   3.867  1.6408  1.2922  2.2633
18868TIP3   OH278094   5.434   3.379  16.991 -0.5333  0.2541  0.2086
18868TIP3    H178095   5.450   3.464  17.032 -0.5358  0.5777 -0.4436
18868TIP3    H278096   5.520   3.338  16.987 -0.2604  0.8704 -0.8462
18869TIP3   OH278097   4.029   5.766   4.294 -0.0056  0.0283  0.3123
18869TIP3    H178098   4.066   5.678   4.286  0.4527  0.1833  0.6227
18869TIP3    H278099   3.953   5.766   4.236 -0.3138 -0.7304  0.7093
18870TIP3   OH278100   0.302   2.696   1.418 -0.0549  0.4367  0.0493
18870TIP3    H178101   0.229   2.720   1.476  0.4015 -1.1474  1.3524
18870TIP3    H278102   0.377   2.742   1.454  0.4376 -1.3331  1.4098
18871TIP3   OH278103   1.367   3.414   0.265 -0.3212  0.0802 -0.2411
18871TIP3    H178104   1.316   3.482   0.222 -1.0159  1.2887  2.3262
18871TIP3    H278105   1.455   3.450   0.272 -0.4857  0.3729  0.3595
18872TIP3   OH278106   2.854   1.975  17.217  0.1135 -0.4607  0.4597
18872TIP3    H178107   2.843   1.966  17.312 -0.8368  0.0837  0.4079
18872TIP3    H278108   2.839   1.886  17.183 -0.2131 -0.5239  0.7628
18873TIP3   OH278109   1.083   4.169  14.825  0.4558 -0.0740  0.1615
18873TIP3    H178110   1.130   4.087  14.834  2.0552  0.7988  0.1978
18873TIP3    H278111   1.102   4.217  14.905 -0.9577  0.1112  0.4135
18874TIP3   OH278112   4.298   5.539  14.880  0.3404 -0.0801 -0.1772
18874TIP3    H178113   4.377   5.547  14.932 -0.3703 -1.0077  1.1176
18874TIP3    H278114   4.231   5.508  14.942 -1.9554  3.8715 -0.3414
18875TIP3   OH278115   6.591   2.027  12.001  0.0782  0.0653  0.3590
18875TIP3    H178116   6.669   2.046  12.053 -0.3429 -1.8968  1.8125
18875TIP3    H278117   6.564   1.940  12.029 -1.5967 -0.0645 -1.4421
18876TIP3   OH278118   6.481   2.177  13.708 -0.0439  0.5624  0.5225
18876TIP3    H178119   6.556   2.171  13.767  0.0702 -1.0326  0.2642
18876TIP3    H278120   6.520   2.183  13.621 -0.2244  1.5578  0.4965
18877TIP3   OH278121   4.348   0.813  16.022 -0.3102  0.4708 -0.5729
18877TIP3    H178122   4.419   0.750  16.011  0.4355  0.3565  3.3215
18877TIP3    H278123   4.270   0.759  16.034  0.4294 -0.0228  3.4251
18878TIP3   OH278124   4.454   4.117  13.162 -0.9356  0.2037 -0.0425
18878TIP3    H178125   4.432   4.165  13.083 -0.5748  1.8932  0.8412
18878TIP3    H278126   4.415   4.030  13.149 -0.9972  0.4860 -1.9809
18879TIP3   OH278127   4.533   0.466  12.801 -0.1652 -0.0919 -0.0733
18879TIP3    H178128   4.565   0.546  12.759 -2.2071  1.2921  0.8306
18879TIP3    H278129   4.611   0.426  12.839  1.2758  0.2013 -2.4951
18880TIP3   OH278130   3.624   6.276   3.055 -0.0324  0.2255  0.0291
18880TIP3    H178131   3.541   6.323   3.054  0.1313  0.5994  1.6645
18880TIP3    H278132   3.605   6.194   3.010 -1.4032  0.1464  0.6981
18881TIP3   OH278133   3.104   0.960  12.661  0.2570 -0.8075  0.1782
18881TIP3    H178134   3.176   1.022  12.657  0.4323 -0.8970  1.4635
18881TIP3    H278135   3.036   0.999  12.606  0.7895 -0.0644  0.0286
18882TIP3   OH278136   4.125   4.570  15.975  0.0383 -0.8866  0.5080
18882TIP3    H178137   4.073   4.636  15.930  2.0101  0.1627 -0.3798
18882TIP3    H278138   4.144   4.609  16.060 -1.2273 -1.6168  1.1605
18883TIP3   OH278139   6.494   1.072  12.372  0.2303  0.3153  0.9245
18883TIP3    H178140   6.442   1.082  12.452  0.9285 -1.5802  1.6636
18883TIP3    H278141   6.439   1.019  12.314  0.8945 -0.8578  1.3318
18884TIP3   OH278142   6.262   2.308  12.421 -0.1009  0.6855 -0.2926
18884TIP3    H178143   6.307   2.237  12.467 -1.3541  0.2760  0.3305
18884TIP3    H278144   6.323   2.382  12.427  0.0521  0.4633  1.4696
18885TIP3   OH278145   4.813   5.381   2.949 -0.9367 -0.7707  0.1256
18885TIP3    H178146   4.856   5.317   3.006 -0.5815 -1.1876 -0.5964
18885TIP3    H278147   4.849   5.465   2.975 -0.4177 -1.0116  0.1875
18886TIP3   OH278148   5.674   4.674   3.401 -0.5860  0.2400  0.3514
18886TIP3    H178149   5.691   4.695   3.492  1.1124  2.7864 -0.4388
18886TIP3    H278150   5.734   4.602   3.381  0.4412  0.9680  0.7748
18887TIP3   OH278151   0.593   5.311   1.661  0.2057  0.1026  0.3051
18887TIP3    H178152   0.574   5.345   1.748 -0.6420 -0.3081  0.2864
18887TIP3    H278153   0.573   5.218   1.666  0.4670  0.0137 -0.2373
18888TIP3   OH278154   0.958   3.782  12.460  0.2669  0.2949  0.2426
18888TIP3    H178155   0.924   3.843  12.525  2.9484  2.3773 -0.1623
18888TIP3    H278156   0.975   3.835  12.383  2.3431 -1.0115 -0.2729
18889TIP3   OH278157   3.883   0.491  14.629  0.2815 -0.8863 -0.2932
18889TIP3    H178158   3.799   0.455  14.599  0.9268 -2.0181 -0.8024
18889TIP3    H278159   3.935   0.414  14.651 -0.3083 -0.2244  4.4466
18890TIP3   OH278160   4.090   3.979  16.651  0.2363  0.2425  0.0473
18890TIP3    H178161   4.126   4.060  16.685 -0.6519 -0.1350  2.0418
18890TIP3    H278162   3.998   3.998  16.635  0.1633 -0.1882 -0.0717
18891TIP3   OH278163   2.957   5.669   0.414  0.6344  0.4343 -0.1362
18891TIP3    H178164   2.972   5.575   0.424 -0.0979  0.3618  0.3308
18891TIP3    H278165   2.942   5.681   0.320  0.9051  0.1121 -0.2240
18892TIP3   OH278166   0.973   0.504  12.014  0.9680  0.1279  0.2743
18892TIP3    H178167   0.979   0.417  12.053  0.0839  0.4291  1.1063
18892TIP3    H278168   1.018   0.561  12.076  1.3868  0.3022 -0.1823
18893TIP3   OH278169   1.275   1.484  11.053  0.0788 -0.1420  0.3847
18893TIP3    H178170   1.233   1.401  11.076 -1.4977  0.1414 -1.2763
18893TIP3    H278171   1.309   1.470  10.965 -1.7851  1.4815 -0.6698
18894TIP3   OH278172   3.934   6.624  15.973  0.4235  0.2395 -0.4969
18894TIP3    H178173   3.938   6.559  16.044 -1.1800  0.9194  0.2806
18894TIP3    H278174   4.007   6.684  15.991  0.5190 -0.0508  0.1177
18895TIP3   OH278175   2.553   5.476  12.144  0.1603 -0.3116 -0.0054
18895TIP3    H178176   2.501   5.433  12.212  0.8643  1.8041  1.9989
18895TIP3    H278177   2.626   5.416  12.127  0.2143 -0.6852  1.4650
18896TIP3   OH278178   2.001   2.356  15.555 -0.3041 -0.3358  0.0943
18896TIP3    H178179   2.037   2.444  15.566 -0.8413 -0.1171  0.1277
18896TIP3    H278180   2.026   2.331  15.466 -0.3760 -0.0453 -0.0068
18897TIP3   OH278181   2.609   5.690   6.046  0.0884  0.7772 -0.4686
18897TIP3    H178182   2.688   5.668   6.096 -1.4718  0.3105  1.9848
18897TIP3    H278183   2.560   5.608   6.044 -1.4312  1.6387  0.2513
18898TIP3   OH278184   0.367   6.420  15.246 -0.4205 -0.4905 -0.2192
18898TIP3    H178185   0.377   6.462  15.160  1.4270  0.5547  0.4363
18898TIP3    H278186   0.455   6.389  15.267 -0.2765  1.2706  2.2368
18899TIP3   OH278187   3.804   6.582  15.286 -0.4061 -0.4829  0.7186
18899TIP3    H178188   3.750   6.639  15.341 -1.6818  0.3906 -1.2927
18899TIP3    H278189   3.837   6.640  15.218  0.9372 -1.5594  0.4099
18900TIP3   OH278190   3.713   2.813   0.105  0.3065  0.3111  0.2782
18900TIP3    H178191   3.724   2.906   0.084 -0.5391  0.4679  0.4889
18900TIP3    H278192   3.725   2.768   0.022 -0.4025  0.7076 -0.0507
18901TIP3   OH278193   2.332   6.452   3.360 -0.0795 -0.3405  0.1755
18901TIP3    H178194   2.403   6.390   3.344  0.7178  0.9461 -1.6565
18901TIP3    H278195   2.357   6.497   3.441 -0.6782 -2.3296  1.5406
18902TIP3   OH278196   6.169   6.415   3.159  0.4944  0.0835 -0.7995
18902TIP3    H178197   6.162   6.509   3.140  1.1453  0.3099  0.0605
18902TIP3    H278198   6.257   6.404   3.195  0.5898 -0.9400 -1.3104
18903TIP3   OH278199   1.589   4.522   4.497  0.2845 -0.6230 -0.1218
18903TIP3    H178200   1.634   4.553   4.576  0.8281  1.0543 -1.0519
18903TIP3    H278201   1.658   4.516   4.431 -0.5596  0.4807 -1.1469
18904TIP3   OH278202   1.495   2.454   1.177 -0.0628 -0.1452  0.1400
18904TIP3    H178203   1.548   2.531   1.197 -1.7950  0.5311  2.4834
18904TIP3    H278204   1.408   2.488   1.157 -0.4105 -1.4171 -0.6461
18905TIP3   OH278205   5.078   5.097  13.359 -0.2758 -0.5747  0.0279
18905TIP3    H178206   5.055   5.010  13.390  0.2274 -1.0661 -0.9593
18905TIP3    H278207   5.130   5.134  13.430 -1.3550 -0.6707  0.8924
18906TIP3   OH278208   1.610   3.332   4.426  1.3888  0.2460  0.5387
18906TIP3    H178209   1.609   3.240   4.450 -1.2190  0.0930  0.1308
18906TIP3    H278210   1.582   3.378   4.505  0.0097  0.4047 -0.0182
18907TIP3   OH278211   5.227   5.251  11.475  0.3718  0.4465 -0.2582
18907TIP3    H178212   5.190   5.249  11.387 -0.7776  0.9975  0.1857
18907TIP3    H278213   5.271   5.167  11.484 -0.3584 -0.0353 -1.0103
18908TIP3   OH278214   5.664   3.797   6.140 -0.6382  0.4875 -0.1021
18908TIP3    H178215   5.602   3.724   6.144  0.3233 -0.4239 -1.1867
18908TIP3    H278216   5.690   3.812   6.231  0.2394 -1.5162  0.0227
18909TIP3   OH278217   1.912   4.930  12.778  0.4111 -0.1447 -0.2212
18909TIP3    H178218   1.948   4.842  12.767  1.4388  0.5067 -2.7908
18909TIP3    H278219   1.974   4.975  12.835  0.2791 -0.8434  0.4946
18910TIP3   OH278220   1.525   2.871  14.712 -0.0743 -0.2265 -0.2627
18910TIP3    H178221   1.500   2.782  14.685  0.8454 -1.2186  1.9744
18910TIP3    H278222   1.444   2.909  14.745 -0.4156 -0.3183 -0.9727
18911TIP3   OH278223   2.196   1.343  13.335 -0.0220 -0.0856  0.7240
18911TIP3    H178224   2.111   1.304  13.318  0.2741 -1.7956  2.7338
18911TIP3    H278225   2.177   1.431  13.369 -0.8470  0.2854 -0.6190
18912TIP3   OH278226   2.652   4.901  14.688 -0.6161  0.2164 -0.5346
18912TIP3    H178227   2.618   4.952  14.614 -0.1585 -0.1102 -0.9709
18912TIP3    H278228   2.661   4.812  14.655 -0.3103  0.0869 -0.1140
18913TIP3   OH278229   6.520   5.519  13.270  0.0651 -0.1962 -0.0596
18913TIP3    H178230   6.508   5.519  13.175  1.2090 -0.7634 -0.2181
18913TIP3    H278231   6.610   5.491  13.283  0.3884  1.2752  1.1474
18914TIP3   OH278232   6.625   2.767   4.374  0.1472 -0.2714  0.1475
18914TIP3    H178233   6.598   2.847   4.329  0.1966 -0.4293 -0.1677
18914TIP3    H278234   6.585   2.696   4.324  0.6551 -0.4783  0.0185
18915TIP3   OH278235   6.567   1.532   2.750 -0.2738  0.5118 -0.2855
18915TIP3    H178236   6.595   1.442   2.766 -0.5731  0.6026  0.7946
18915TIP3    H278237   6.504   1.525   2.677 -2.0559 -0.4731  1.2588
18916TIP3   OH278238   1.414   3.443   2.566 -0.4438  0.0735 -0.0252
18916TIP3    H178239   1.501   3.482   2.557  0.0917 -1.0082  0.2689
18916TIP3    H278240   1.408   3.381   2.494 -1.9116  1.7522 -1.4524
18917TIP3   OH278241   2.265   3.649   2.654  0.0461 -0.4263 -0.1929
18917TIP3    H178242   2.198   3.646   2.585  0.1509  0.4471 -0.3465
18917TIP3    H278243   2.343   3.681   2.610  0.7237 -1.8949 -0.1152
18918TIP3   OH278244   3.659   3.098   2.910 -0.1039 -0.1686  0.1448
18918TIP3    H178245   3.567   3.116   2.890  0.0889 -0.0746 -0.6828
18918TIP3    H278246   3.698   3.185   2.919  0.2569 -0.1796 -1.1850
18919TIP3   OH278247   1.323   2.740  15.396 -0.7113 -0.2660  0.3256
18919TIP3    H178248   1.249   2.797  15.417  0.2040  1.5585 -1.2041
18919TIP3    H278249   1.319   2.671  15.463 -2.9944  0.4878  1.0637
18920TIP3   OH278250   6.059   6.405  14.979 -0.0362 -0.3520  0.1237
18920TIP3    H178251   6.064   6.316  14.943  1.4546 -0.1571 -0.2097
18920TIP3    H278252   5.990   6.447  14.928 -1.1111 -1.4596  0.6219
18921TIP3   OH278253   4.348   1.345  10.492 -0.0906 -0.0731  0.4455
18921TIP3    H178254   4.378   1.255  10.476 -0.2334  0.1882 -1.5127
18921TIP3    H278255   4.253   1.337  10.495 -0.1525  0.1052 -0.5974
18922TIP3   OH278256   4.996   3.565  12.103 -0.2699  0.4059  0.8277
18922TIP3    H178257   4.951   3.522  12.176  0.4975  1.0442  1.7124
18922TIP3    H278258   5.058   3.625  12.146  0.6169  0.3596 -0.3529
18923TIP3   OH278259   6.206   2.566  15.467  0.6727  0.0315 -0.1565
18923TIP3    H178260   6.202   2.471  15.468  0.2986  0.0352 -0.7666
18923TIP3    H278261   6.115   2.595  15.475  0.8245  0.3486  0.5061
18924TIP3   OH278262   5.925   3.593  15.431  0.4775  0.2441  0.0923
18924TIP3    H178263   5.987   3.546  15.376 -0.6726 -1.1586 -0.0644
18924TIP3    H278264   5.840   3.582  15.387  0.0130  1.6496  0.5771
18925TIP3   OH278265   0.429   3.589   0.091 -0.1871 -0.3903 -0.6499
18925TIP3    H178266   0.472   3.582   0.176 -0.6124 -0.6452 -0.4498
18925TIP3    H278267   0.338   3.611   0.112  0.2381  2.1396 -1.1188
18926TIP3   OH278268   1.665   4.798  14.577 -0.1044 -0.1342  0.3476
18926TIP3    H178269   1.629   4.803  14.489  1.6193 -0.6509 -0.4354
18926TIP3    H278270   1.664   4.888  14.609 -1.0913  0.0017 -0.0379
18927TIP3   OH278271   2.278   0.002   1.838  0.0304  0.2297 -0.1525
18927TIP3    H178272   2.198   0.000   1.786  0.3754 -0.3533 -0.6897
18927TIP3    H278273   2.335  -0.063   1.796  0.7464  0.5667  0.2743
18928TIP3   OH278274   6.406   2.584  15.258  0.1299 -0.3079 -0.4865
18928TIP3    H178275   6.396   2.666  15.210  0.0140 -1.2360 -2.1438
18928TIP3    H278276   6.337   2.587  15.324  0.2430  0.9889 -0.3973
18929TIP3   OH278277   0.846   2.312   0.916  0.1955  0.5431  0.2620
18929TIP3    H178278   0.920   2.271   0.962  1.7517  0.7389 -1.8848
18929TIP3    H278279   0.808   2.372   0.981  1.7506  0.2374  1.5339
18930TIP3   OH278280   3.567   0.362  12.744  0.7627  0.0395 -0.3644
18930TIP3    H178281   3.514   0.442  12.739 -1.2452 -1.1985  0.0148
18930TIP3    H278282   3.535   0.308  12.671  0.8842 -1.0999  0.4058
18931TIP3   OH278283   5.063   2.199  13.688 -0.0054  0.0098 -0.0839
18931TIP3    H178284   5.097   2.255  13.759  1.7584 -0.2513 -0.6629
18931TIP3    H278285   5.136   2.192  13.626 -1.1929 -0.5261 -1.4897
18932TIP3   OH278286   4.941   4.429   3.887  0.3740 -0.2374  0.0741
18932TIP3    H178287   5.034   4.448   3.878  0.8158 -1.6462  1.3916
18932TIP3    H278288   4.920   4.378   3.809  0.1994  1.6843 -1.2189
18933TIP3   OH278289   5.798   4.647   2.907 -0.3238 -0.3256 -0.1277
18933TIP3    H178290   5.737   4.715   2.879 -0.5503 -0.2045  0.6496
18933TIP3    H278291   5.755   4.565   2.882 -0.4134 -0.2117 -0.3476
18934TIP3   OH278292   0.160   4.290  16.326 -0.1867  0.0927  0.3170
18934TIP3    H178293   0.165   4.289  16.230 -0.7130 -1.8271  0.2685
18934TIP3    H278294   0.249   4.269  16.355  0.1328  1.3532  0.2763
18935TIP3   OH278295   4.524   2.811  15.919  0.4780  0.2272  0.2714
18935TIP3    H178296   4.595   2.818  15.982  0.8502 -0.0484 -0.1092
18935TIP3    H278297   4.556   2.750  15.853 -0.5857 -0.8654  0.7231
18936TIP3   OH278298   2.196   0.768  11.809  0.1085 -0.5669 -0.0244
18936TIP3    H178299   2.160   0.855  11.794 -0.2298 -0.7104 -0.0419
18936TIP3    H278300   2.182   0.751  11.902 -1.9754 -1.5641 -0.4686
18937TIP3   OH278301   1.215   2.203  12.633 -0.2011 -0.6094  0.6369
18937TIP3    H178302   1.309   2.186  12.638  0.0001  0.1970 -0.0239
18937TIP3    H278303   1.195   2.199  12.539 -0.1279  2.5300  0.3828
18938TIP3   OH278304   6.000   5.235   3.808 -0.3830  0.2103 -0.5398
18938TIP3    H178305   6.082   5.228   3.856  0.0987 -0.8208 -1.4666
18938TIP3    H278306   6.023   5.217   3.717 -1.0392  3.2723 -1.4576
18939TIP3   OH278307   1.937   6.250  13.449 -0.0303  0.9367  0.5744
18939TIP3    H178308   1.984   6.302  13.384 -0.4484  1.5462  0.7562
18939TIP3    H278309   1.926   6.308  13.524 -0.3964  0.5476  0.8289
18940TIP3   OH278310   2.045   0.664  14.992 -0.2531  0.0090 -0.4600
18940TIP3    H178311   2.102   0.723  15.041 -0.5758 -0.4489  0.4961
18940TIP3    H278312   2.101   0.590  14.969 -0.5002 -0.5389  0.6614
18941TIP3   OH278313   5.550   3.248   0.356  0.3856  0.0207  0.3212
18941TIP3    H178314   5.574   3.295   0.436  1.4183 -1.3361  0.8339
18941TIP3    H278315   5.633   3.233   0.311  0.1450 -1.6138  0.3529
18942TIP3   OH278316   2.283   0.157  14.302 -0.3586 -0.6779 -0.3137
18942TIP3    H178317   2.300   0.192  14.389 -1.5388 -1.8633  0.4279
18942TIP3    H278318   2.239   0.229  14.256  0.9627  0.2288 -0.2243
18943TIP3   OH278319   2.236   2.372   4.998  0.0081 -0.1582  0.6394
18943TIP3    H178320   2.174   2.335   4.935  1.1306 -0.4096 -0.3478
18943TIP3    H278321   2.223   2.466   4.993 -1.4790 -0.2661  1.7155
18944TIP3   OH278322   0.831   4.289   2.553 -0.4350  0.0641 -0.1244
18944TIP3    H178323   0.854   4.345   2.627  0.0250  0.1475 -0.3261
18944TIP3    H278324   0.913   4.279   2.504  0.2629 -3.1712  1.4663
18945TIP3   OH278325   0.642   6.706   3.298  0.6956 -0.1810  0.3745
18945TIP3    H178326   0.581   6.778   3.313 -0.5930 -1.5015  1.6817
18945TIP3    H278327   0.703   6.710   3.372 -1.0332 -2.0283  1.9970
18946TIP3   OH278328   5.661   4.556  13.384 -0.1295 -0.0436  0.4740
18946TIP3    H178329   5.689   4.605  13.306  0.0612 -0.4398  0.2897
18946TIP3    H278330   5.566   4.571  13.388 -0.2170 -0.4105 -0.1143
18947TIP3   OH278331   0.519   0.682  13.911  0.0566 -0.3474 -0.2431
18947TIP3    H178332   0.479   0.754  13.959 -1.4730 -0.0287 -1.9151
18947TIP3    H278333   0.611   0.682  13.939 -0.5407  0.4230  1.8975
18948TIP3   OH278334   3.178   3.358   3.055  0.0951 -0.0768  0.3895
18948TIP3    H178335   3.245   3.425   3.068  1.5143 -1.3880  0.1402
18948TIP3    H278336   3.199   3.319   2.970  0.0444 -1.6064  1.0508
18949TIP3   OH278337   0.488   1.910  15.199 -0.5502  0.0536  0.0006
18949TIP3    H178338   0.539   1.924  15.278 -0.5195  0.7212 -0.1315
18949TIP3    H278339   0.524   1.830  15.160  0.4294  0.5489 -0.1194
18950TIP3   OH278340   2.761   3.812   0.688 -0.1632 -0.9992  0.0839
18950TIP3    H178341   2.678   3.859   0.683  0.7018  0.6345  0.5915
18950TIP3    H278342   2.752   3.755   0.764 -0.0450  0.7916  1.4896
18951TIP3   OH278343   5.969   0.098  10.981 -0.1530 -0.4562 -0.0886
18951TIP3    H178344   5.889   0.109  11.033  1.5775 -0.6096  2.8051
18951TIP3    H278345   5.994   0.006  10.993  1.5071  0.0645  0.7490
18952TIP3   OH278346   2.871   1.248   4.356  0.1659  0.2709 -0.2448
18952TIP3    H178347   2.917   1.327   4.327  1.3718 -1.0179 -2.0417
18952TIP3    H278348   2.941   1.184   4.371 -0.7813 -0.4507  1.3068
18953TIP3   OH278349   6.093   3.351   6.518  0.0014  0.4125 -0.1581
18953TIP3    H178350   6.101   3.446   6.523  0.5997  0.3016  1.7397
18953TIP3    H278351   6.010   3.336   6.474 -0.1900  1.8207 -0.3104
18954TIP3   OH278352   5.825   4.933   3.243 -0.1429 -0.4335 -0.8729
18954TIP3    H178353   5.882   4.865   3.279  0.8344  0.3888 -0.8005
18954TIP3    H278354   5.739   4.915   3.280 -0.0083 -1.8855 -1.2139
18955TIP3   OH278355   2.964   3.950   0.555 -0.4155 -0.3639 -0.5024
18955TIP3    H178356   2.934   4.040   0.540  1.9759  0.9559  1.6793
18955TIP3    H278357   2.893   3.910   0.606 -0.9517  0.7640 -0.3185
18956TIP3   OH278358   3.763   5.029   2.992  0.1120  0.2140  0.0268
18956TIP3    H178359   3.681   5.028   3.041  0.7436 -1.1018  1.1339
18956TIP3    H278360   3.738   5.013   2.902 -0.7895 -0.9015  0.4630
18957TIP3   OH278361   2.472   2.742   1.734  0.1815 -0.4434  0.0379
18957TIP3    H178362   2.398   2.732   1.793 -0.1786 -1.4713 -0.5535
18957TIP3    H278363   2.500   2.833   1.745 -0.9694 -0.1280  0.5006
18958TIP3   OH278364   1.465   3.290  12.861 -0.4702 -0.1341  0.4742
18958TIP3    H178365   1.371   3.308  12.869 -0.2951  0.5463  1.1082
18958TIP3    H278366   1.498   3.360  12.805 -0.3747 -0.5293  0.0215
18959TIP3   OH278367   5.092   5.380   1.369  0.6562  0.3580  0.2581
18959TIP3    H178368   5.149   5.314   1.330  0.6941 -0.2673  1.3330
18959TIP3    H278369   5.015   5.381   1.313  1.2382  0.3883 -0.5537
18960TIP3   OH278370   2.241   3.323  11.310  0.1661  0.1997  0.1296
18960TIP3    H178371   2.161   3.372  11.328  0.0469 -0.1609  0.5863
18960TIP3    H278372   2.267   3.287  11.395 -1.2528 -2.8414 -0.6197
18961TIP3   OH278373   1.934   1.118   4.403 -0.2628  0.2518 -0.3532
18961TIP3    H178374   1.974   1.135   4.317 -2.7086  0.6667 -1.5187
18961TIP3    H278375   1.965   1.189   4.458 -1.4168  2.1556 -1.9858
18962TIP3   OH278376   1.171   0.395  13.190  0.1415  0.2312  0.0539
18962TIP3    H178377   1.250   0.445  13.207  0.3371 -0.5997  1.8351
18962TIP3    H278378   1.114   0.413  13.264 -0.4980 -0.7607 -0.1699
18963TIP3   OH278379   5.383   0.742   4.924  0.4205  0.2312  0.1014
18963TIP3    H178380   5.459   0.762   4.869  1.3271 -2.2405  0.3415
18963TIP3    H278381   5.325   0.691   4.867 -0.9783  1.8418  0.0150
18964TIP3   OH278382   6.471   4.250  13.329 -0.1668 -0.1141  0.4318
18964TIP3    H178383   6.508   4.325  13.282  1.1310  0.0643  1.6619
18964TIP3    H278384   6.520   4.247  13.411 -0.9582 -1.6568  0.8835
18965TIP3   OH278385   2.235   2.586   0.394 -0.0125  1.1174  0.1010
18965TIP3    H178386   2.295   2.581   0.469  2.2221 -1.0084 -1.6649
18965TIP3    H278387   2.269   2.657   0.340  1.4996 -0.5895 -1.2845
18966TIP3   OH278388   4.181   4.621  14.438 -0.4893  0.5861 -0.0836
18966TIP3    H178389   4.139   4.674  14.507  0.4941 -0.2943  1.2415
18966TIP3    H278390   4.267   4.600  14.473 -0.6113 -1.3562 -0.8243
18967TIP3   OH278391   0.998   0.577   0.822 -0.1137 -0.3897 -0.0690
18967TIP3    H178392   1.058   0.605   0.753  0.3046 -1.1727 -0.0437
18967TIP3    H278393   1.053   0.528   0.883 -0.2204  1.3894  1.5311
18968TIP3   OH278394   6.394   0.820  17.203 -0.2118 -0.2319 -0.7810
18968TIP3    H178395   6.337   0.746  17.223  0.4703 -0.2077  1.5902
18968TIP3    H278396   6.482   0.789  17.223 -0.0055  1.4653  1.3960
18969TIP3   OH278397   3.000   3.690   3.905  0.2681  0.5571  0.0880
18969TIP3    H178398   2.944   3.619   3.933 -0.1697  0.1281 -1.7290
18969TIP3    H278399   2.948   3.738   3.840  1.8025  0.3993 -1.3306
18970TIP3   OH278400   0.678   0.507   2.328 -0.0314  0.2207 -0.3512
18970TIP3    H178401   0.643   0.573   2.388 -0.5165  0.8975 -1.3367
18970TIP3    H278402   0.622   0.431   2.341  1.3252 -0.4946  1.7201
18971TIP3   OH278403   2.792   2.923  12.209  0.5481  0.3021  0.0626
18971TIP3    H178404   2.705   2.887  12.230  0.3118  1.3805  1.0192
18971TIP3    H278405   2.774   2.998  12.153  0.9758 -0.3553 -0.9913
18972TIP3   OH278406   4.651   2.163  11.178 -0.1513 -0.2074 -0.2424
18972TIP3    H178407   4.626   2.112  11.100  0.3312 -0.5542 -0.1799
18972TIP3    H278408   4.712   2.229  11.144  0.5721 -0.7694 -0.0763
18973TIP3   OH278409   3.530   4.980  12.121  0.0563 -0.3282  0.3082
18973TIP3    H178410   3.545   4.977  12.215 -0.8481  0.8956  0.5102
18973TIP3    H278411   3.482   4.899  12.102  1.9737 -1.5967  0.5185
18974TIP3   OH278412   5.335   0.631   3.433  0.3832 -0.3990  0.4289
18974TIP3    H178413   5.296   0.715   3.456 -1.5770 -0.7004 -1.4621
18974TIP3    H278414   5.390   0.609   3.508  0.1321  2.0482  1.4317
18975TIP3   OH278415   3.715   2.967  17.120  0.4337 -0.5784 -0.1633
18975TIP3    H178416   3.808   2.958  17.143  0.4576  1.2592  0.6455
18975TIP3    H278417   3.683   2.877  17.115  1.4737 -1.2221  2.8274
18976TIP3   OH278418   3.887   5.537  14.901 -0.1607 -0.2753  0.0198
18976TIP3    H178419   3.942   5.530  14.823 -1.3475 -2.8303 -0.7277
18976TIP3    H278420   3.842   5.621  14.892  0.9159  0.1972 -1.1996
18977TIP3   OH278421   1.882   1.185  12.339 -0.0488  0.6698 -0.0185
18977TIP3    H178422   1.797   1.154  12.367  0.0079 -0.3438 -0.9069
18977TIP3    H278423   1.943   1.150  12.403 -0.1781  0.4056 -0.0386
18978TIP3   OH278424   6.211   3.096  16.169 -0.2294  0.2549  0.2822
18978TIP3    H178425   6.304   3.116  16.176 -0.3069  0.4329  0.8569
18978TIP3    H278426   6.178   3.100  16.259 -1.1022  1.6627 -0.0712
18979TIP3   OH278427   4.369   6.169  15.984  0.7643 -0.1583 -0.1464
18979TIP3    H178428   4.436   6.146  16.049 -0.0300 -2.3777 -0.0118
18979TIP3    H278429   4.347   6.260  16.003  2.9525  0.2797  0.4917
18980TIP3   OH278430   2.814   2.285   2.843 -0.3143  0.2961  0.9147
18980TIP3    H178431   2.826   2.245   2.929  0.2401 -2.6531 -0.4381
18980TIP3    H278432   2.896   2.270   2.797 -0.6494  1.6758 -0.2336
18981TIP3   OH278433   3.207   1.343  12.911 -0.1898 -0.2339  0.1225
18981TIP3    H178434   3.292   1.313  12.877 -0.4922 -0.6083 -0.3242
18981TIP3    H278435   3.182   1.275  12.975 -0.1264 -0.0925  0.2983
18982TIP3   OH278436   1.108   4.316   5.471 -0.0669 -0.6978  0.2768
18982TIP3    H178437   1.022   4.336   5.436 -0.7283  0.3533  2.3570
18982TIP3    H278438   1.105   4.222   5.491 -0.7202 -0.6729  0.2992
18983TIP3   OH278439   3.384   2.204   2.328 -0.1506 -0.7276 -0.2789
18983TIP3    H178440   3.356   2.179   2.416 -0.9981  0.4225 -0.2160
18983TIP3    H278441   3.360   2.296   2.320  1.6803 -0.2692 -1.0098
18984TIP3   OH278442   1.723   6.266   5.638  0.1754  0.1685  0.4139
18984TIP3    H178443   1.715   6.174   5.665 -2.4385  0.5369  1.1664
18984TIP3    H278444   1.691   6.266   5.547  0.9289  0.2305  0.1436
18985TIP3   OH278445   6.462   0.267  16.700  0.1101 -0.5007  0.5894
18985TIP3    H178446   6.409   0.213  16.759 -1.6172 -2.4420 -2.4497
18985TIP3    H278447   6.398   0.323  16.656  1.4041  1.2415  0.8558
18986TIP3   OH278448   6.111   3.368   4.589 -0.1829  0.4749 -0.4370
18986TIP3    H178449   6.160   3.350   4.508  0.8666 -0.4936  0.3832
18986TIP3    H278450   6.047   3.297   4.593  2.0674 -1.6366  1.3153
18987TIP3   OH278451   5.669   5.047  11.905 -0.4364  0.4490  0.0365
18987TIP3    H178452   5.687   5.017  11.994  0.4266  1.5785  0.2700
18987TIP3    H278453   5.578   5.079  11.909 -0.3117  0.7575  0.5895
18988TIP3   OH278454   2.556   2.555   1.091  0.1807  0.2812 -0.5821
18988TIP3    H178455   2.551   2.602   1.174  1.0551 -0.9934  0.2410
18988TIP3    H278456   2.649   2.559   1.067  0.3795 -1.3475 -0.2433
18989TIP3   OH278457   5.133   1.254  16.643  0.1207  0.0528  0.3386
18989TIP3    H178458   5.107   1.276  16.732  0.1443  1.0570  0.1044
18989TIP3    H278459   5.213   1.304  16.628 -0.9145  1.4499 -0.8994
18990TIP3   OH278460   3.704   2.462   5.472 -0.1032  0.2071  0.7062
18990TIP3    H178461   3.709   2.388   5.411 -1.7525  0.8126 -0.2487
18990TIP3    H278462   3.712   2.422   5.558 -0.7046 -1.0849  0.2039
18991TIP3   OH278463   0.946   3.329  15.556 -0.2128  0.3065 -0.6291
18991TIP3    H178464   1.001   3.267  15.603 -0.8578  0.4876  0.4027
18991TIP3    H278465   0.869   3.278  15.531 -1.3122  0.8922  1.2717
18992TIP3   OH278466   6.478   1.400   2.086  0.1286  0.2099  0.7636
18992TIP3    H178467   6.465   1.328   2.023  2.0805 -0.2742  0.8454
18992TIP3    H278468   6.469   1.358   2.171 -0.6921  0.4968  0.8302
18993TIP3   OH278469   5.377   3.598   4.963  0.4882  0.3315  0.0672
18993TIP3    H178470   5.303   3.547   4.929 -0.0538 -0.8610  2.7650
18993TIP3    H278471   5.453   3.541   4.951  0.4321  0.2348  0.1729
18994TIP3   OH278472   0.284   6.206   3.771  0.6059 -0.1766 -0.1990
18994TIP3    H178473   0.312   6.196   3.680  1.6628  1.0901 -0.0380
18994TIP3    H278474   0.281   6.301   3.785 -1.3635 -0.3002  0.5544
18995TIP3   OH278475   4.657   0.296   5.353 -0.5995  0.3756  0.4410
18995TIP3    H178476   4.649   0.284   5.258 -0.1581  1.2563  0.2883
18995TIP3    H278477   4.596   0.367   5.373 -1.1022 -0.1803  0.9064
18996TIP3   OH278478   3.919   6.648   5.760 -0.3788  0.1690 -0.4783
18996TIP3    H178479   3.882   6.689   5.839 -3.5233 -0.0827 -1.6776
18996TIP3    H278480   3.984   6.711   5.729 -0.0803  0.9303  1.5168
18997TIP3   OH278481   6.021   2.452  13.201  0.3873  0.0253 -0.3713
18997TIP3    H178482   6.017   2.400  13.121  0.3825  0.1519 -0.4541
18997TIP3    H278483   6.105   2.430  13.240 -0.4604 -1.6082  0.6634
18998TIP3   OH278484   6.008   5.262  10.955 -0.1073  0.1481 -0.1396
18998TIP3    H178485   6.087   5.302  10.920 -0.5963  1.6858  0.4307
18998TIP3    H278486   5.945   5.266  10.882  0.1542 -0.5612 -0.4131
18999TIP3   OH278487   2.739   2.588  11.693 -0.1898  0.3907  0.0801
18999TIP3    H178488   2.669   2.526  11.670 -0.5748  0.5923  0.6715
18999TIP3    H278489   2.819   2.545  11.665 -0.4770 -0.2578  0.2280
19000TIP3   OH278490   0.626   4.106  12.604 -0.0860 -0.0088  0.2753
19000TIP3    H178491   0.583   4.029  12.566 -0.0565 -0.6088  1.4047
19000TIP3    H278492   0.556   4.154  12.648 -0.0795  0.5496 -0.3086
19001TIP3   OH278493   5.261   6.531   4.805 -0.2059  0.1344  0.4106
19001TIP3    H178494   5.247   6.622   4.782 -0.3824  0.1745  0.6724
19001TIP3    H278495   5.225   6.481   4.732 -1.4763  0.2363  0.9382
19002TIP3   OH278496   0.372   2.074   6.037  0.3297 -0.2276  0.3240
19002TIP3    H178497   0.286   2.069   6.080  0.2733 -0.5838  0.1825
19002TIP3    H278498   0.365   2.011   5.965  0.3003  0.6185 -0.4235
19003TIP3   OH278499   1.394   3.716   4.940 -0.2219 -0.1056  0.1836
19003TIP3    H178500   1.490   3.723   4.937 -0.3117  1.0866 -0.3760
19003TIP3    H278501   1.367   3.719   4.849 -0.7586 -1.5534  0.2616
19004TIP3   OH278502   0.136   0.584   6.484  0.0483  0.6757 -0.5998
19004TIP3    H178503   0.116   0.498   6.448 -0.5299  0.3956  0.3730
19004TIP3    H278504   0.085   0.645   6.430  0.5810  0.4334 -1.3870
19005TIP3   OH278505   4.186   0.620  14.078  0.1370 -0.0710  0.1610
19005TIP3    H178506   4.213   0.607  14.169 -1.1593  0.1781  0.6028
19005TIP3    H278507   4.246   0.566  14.027  2.1636  1.3117  0.9721
19006TIP3   OH278508   3.371   4.206  17.218 -0.6341 -0.3859 -0.2034
19006TIP3    H178509   3.394   4.189  17.309 -1.6670  0.0134  0.1470
19006TIP3    H278510   3.312   4.134  17.195  1.1659 -1.6379 -1.2191
19007TIP3   OH278511   6.760   1.576  11.600 -0.1217  0.0717  0.1753
19007TIP3    H178512   6.735   1.605  11.688 -1.0743  0.2652 -0.1425
19007TIP3    H278513   6.694   1.511  11.576  0.5445 -0.5090 -0.1245
19008TIP3   OH278514   3.049   0.314   6.295  0.7551 -0.4744  0.3591
19008TIP3    H178515   3.068   0.342   6.205  2.6257 -1.5908  0.3582
19008TIP3    H278516   3.076   0.389   6.349 -1.8251  0.8375 -0.0062
19009TIP3   OH278517   1.776   3.419   5.758 -0.0715  0.6001 -0.8278
19009TIP3    H178518   1.724   3.485   5.712 -1.0274  0.6442  0.2810
19009TIP3    H278519   1.718   3.386   5.827  1.2443  0.3659  0.2059
19010TIP3   OH278520   2.819   5.619  13.783  0.1480 -0.1551 -0.0250
19010TIP3    H178521   2.741   5.629  13.729 -2.0507  0.9084  3.0766
19010TIP3    H278522   2.867   5.701  13.771 -0.6601  0.3519  0.1430
19011TIP3   OH278523   3.546   0.897   4.195 -0.3368 -0.9846  0.1474
19011TIP3    H178524   3.462   0.942   4.188  0.1233 -0.0745  0.3668
19011TIP3    H278525   3.553   0.873   4.287  0.6370  0.9654  0.6381
19012TIP3   OH278526   6.484   2.644   3.194 -0.2187  0.2740 -0.1987
19012TIP3    H178527   6.487   2.725   3.246  0.1585 -0.7343  1.4303
19012TIP3    H278528   6.469   2.674   3.104  0.7503  2.2029  0.2214
19013TIP3   OH278529   0.712   0.661   1.191 -0.4514  0.1452  0.4262
19013TIP3    H178530   0.658   0.711   1.129 -1.8284 -1.8813 -0.0929
19013TIP3    H278531   0.662   0.661   1.272 -0.8916 -1.0736  0.1729
19014TIP3   OH278532   2.772   1.662   3.792 -0.1535 -0.6427  0.7759
19014TIP3    H178533   2.828   1.685   3.865  1.5468 -1.5704 -0.1769
19014TIP3    H278534   2.746   1.746   3.754 -0.7593 -0.1656  2.1805
19015TIP3   OH278535   5.686   2.722  12.915 -0.0609  0.1721 -0.3542
19015TIP3    H178536   5.643   2.751  12.834  0.9072  1.4632 -0.4331
19015TIP3    H278537   5.671   2.628  12.917  0.6296 -0.0382 -2.4883
19016TIP3   OH278538   6.738   6.029   5.904 -0.0506  0.0379 -0.2072
19016TIP3    H178539   6.758   6.120   5.928  0.8731 -0.4141  0.8060
19016TIP3    H278540   6.645   6.019   5.921 -0.2076  0.8543 -0.5359
19017TIP3   OH278541   6.232   2.217  13.558  0.3270  0.2726 -0.0515
19017TIP3    H178542   6.315   2.186  13.596  0.5217 -0.5648 -1.1249
19017TIP3    H278543   6.167   2.156  13.590  0.2335  0.4847  0.1725
19018TIP3   OH278544   0.941   2.943  11.743 -0.1730  0.0306 -0.5648
19018TIP3    H178545   0.915   3.020  11.692  1.5880  0.3984 -0.9817
19018TIP3    H278546   0.891   2.951  11.824 -1.5878  0.4647 -1.4466
19019TIP3   OH278547   5.954   2.149  13.822 -0.0609  0.1473  0.1035
19019TIP3    H178548   5.941   2.233  13.780  2.1686  1.0301  1.0175
19019TIP3    H278549   5.983   2.091  13.752 -0.1234  0.5556 -0.2614
19020TIP3   OH278550   4.570   1.812   5.678  0.0507 -0.1501 -0.1463
19020TIP3    H178551   4.624   1.857   5.614 -0.8833  1.3720  0.0833
19020TIP3    H278552   4.491   1.787   5.629 -0.6080  0.9000  0.3497
19021TIP3   OH278553   4.662   4.540   5.641  0.8076  0.2858  0.2109
19021TIP3    H178554   4.736   4.594   5.615  0.8130  0.1387 -0.0746
19021TIP3    H278555   4.658   4.550   5.736  0.3692  1.3621  0.0973
19022TIP3   OH278556   1.551   5.106  15.254 -0.4814 -0.2319  0.5515
19022TIP3    H178557   1.511   5.025  15.287 -0.9325  0.1252  0.8781
19022TIP3    H278558   1.541   5.169  15.325  1.6201 -0.4216  1.0763
19023TIP3   OH278559   6.472   0.549  12.789 -0.4296  0.1127 -0.2310
19023TIP3    H178560   6.398   0.610  12.794 -2.7210 -2.4513 -0.2736
19023TIP3    H278561   6.445   0.484  12.724  0.7624 -2.2553  1.4787
19024TIP3   OH278562   5.486   0.768  13.680  0.0772  0.3251 -0.9836
19024TIP3    H178563   5.445   0.744  13.763  1.7289 -1.8820 -0.7267
19024TIP3    H278564   5.572   0.803  13.704 -0.1892  1.5409 -1.7008
19025TIP3   OH278565   0.310   3.229   1.253 -0.1684  0.1748  0.1982
19025TIP3    H178566   0.279   3.297   1.312 -1.5453 -0.2292 -0.0382
19025TIP3    H278567   0.328   3.154   1.310 -1.3292 -0.1576  0.1534
19026TIP3   OH278568   1.593   3.795  16.732 -0.2775 -0.6564  0.0250
19026TIP3    H178569   1.677   3.829  16.701 -0.1642  0.1470  1.1396
19026TIP3    H278570   1.574   3.847  16.810 -1.6233 -1.1008  0.0129
19027TIP3   OH278571   1.786   0.333  13.801 -0.2091  0.2025 -0.1019
19027TIP3    H178572   1.859   0.306  13.746 -0.7097 -1.4703 -0.0068
19027TIP3    H278573   1.811   0.419  13.834  1.5311 -0.1701 -0.3633
19028TIP3   OH278574   1.066   6.641  16.166 -0.6938  0.2494 -0.1988
19028TIP3    H178575   1.117   6.639  16.085 -1.0472 -0.1923 -0.4119
19028TIP3    H278576   1.059   6.550  16.192 -1.4711  0.2934 -0.2332
19029TIP3   OH278577   4.892   0.897   2.689 -0.0553  0.1624  0.2565
19029TIP3    H178578   4.811   0.857   2.721 -0.5425  1.5047  0.7677
19029TIP3    H278579   4.957   0.826   2.694 -0.8884 -0.5790  1.0802
19030TIP3   OH278580   2.191   2.706   2.618  0.2748  0.2454 -0.0254
19030TIP3    H178581   2.168   2.761   2.543  0.6785  0.5196  0.0492
19030TIP3    H278582   2.254   2.758   2.668  0.0104  0.0689  0.5089
19031TIP3   OH278583   2.046   0.125  16.328 -0.6359  0.5918  0.3788
19031TIP3    H178584   2.013   0.095  16.243 -2.5017 -0.7854  1.5093
19031TIP3    H278585   2.133   0.087  16.335 -0.1138  1.4312 -1.2512
19032TIP3   OH278586   5.417   2.290   1.529  0.0949 -0.2323  0.5433
19032TIP3    H178587   5.453   2.329   1.609  0.7160  1.7444 -0.6283
19032TIP3    H278588   5.485   2.230   1.499 -0.4688 -1.6043  1.8659
19033TIP3   OH278589   2.930   0.050  13.357 -1.0397 -0.3715  0.3447
19033TIP3    H178590   2.992   0.116  13.389 -1.7673  0.1796  0.6417
19033TIP3    H278591   2.899   0.006  13.436  0.2842 -1.8794  0.0865
19034TIP3   OH278592   4.404   0.362  10.740  0.7826  0.0888 -0.0350
19034TIP3    H178593   4.334   0.407  10.694  0.5326 -0.6438 -0.3787
19034TIP3    H278594   4.375   0.358  10.831  1.4869  1.9604  0.3213
19035TIP3   OH278595   4.295   0.580   1.544 -0.3177 -0.6018 -0.5587
19035TIP3    H178596   4.270   0.493   1.576 -1.2307 -0.3689 -0.6087
19035TIP3    H278597   4.273   0.639   1.616 -1.2236 -0.2245 -1.1257
19036TIP3   OH278598   0.749   6.309  11.568  0.1049  0.0658  0.4039
19036TIP3    H178599   0.780   6.317  11.478 -0.8238 -2.3206 -0.2181
19036TIP3    H278600   0.655   6.330  11.563  0.3667  1.5070  1.1527
19037TIP3   OH278601   5.279   0.491   4.162 -0.0332 -0.2201  0.1913
19037TIP3    H178602   5.270   0.397   4.181 -0.7113  0.1530  1.9947
19037TIP3    H278603   5.295   0.531   4.248 -0.1046  1.3583 -0.4929
19038TIP3   OH278604   5.660   5.526  13.804  0.7336 -0.0764 -0.1752
19038TIP3    H178605   5.718   5.582  13.856  0.8023  1.3363 -1.7135
19038TIP3    H278606   5.674   5.554  13.714  0.9885 -2.8004 -1.0682
19039TIP3   OH278607   1.443   6.431  10.621 -0.2611  0.2511 -0.4446
19039TIP3    H178608   1.539   6.423  10.622 -0.4069 -2.2715  0.4263
19039TIP3    H278609   1.412   6.357  10.672 -2.7957 -1.2232 -3.7224
19040TIP3   OH278610   2.764   5.281  17.258 -0.6823 -0.3687 -0.6473
19040TIP3    H178611   2.805   5.303  17.342  0.9627 -1.5595 -1.0853
19040TIP3    H278612   2.676   5.251  17.281  0.7418 -3.7440  1.0983
19041TIP3   OH278613   6.655   3.809  16.121  0.2754 -0.6509  0.0573
19041TIP3    H178614   6.661   3.879  16.057 -0.7571 -0.3052  0.3085
19041TIP3    H278615   6.604   3.846  16.193 -0.8823 -1.8376 -0.0967
19042TIP3   OH278616   0.249   2.757   3.591 -0.2069 -0.4593  0.6606
19042TIP3    H178617   0.169   2.743   3.642  0.0799 -1.2245  0.9188
19042TIP3    H278618   0.318   2.767   3.657 -0.1525  0.7175  0.4531
19043TIP3   OH278619   3.861   3.678  11.547  0.1911  0.1750  0.0586
19043TIP3    H178620   3.902   3.610  11.493  1.4332  0.0813  1.0771
19043TIP3    H278621   3.775   3.691  11.507  0.2808 -1.3411 -0.7065
19044TIP3   OH278622   2.900   5.447   4.012 -0.6549 -0.0928 -0.6548
19044TIP3    H178623   2.992   5.446   3.985 -0.2921 -1.3107  0.5378
19044TIP3    H278624   2.873   5.538   4.000  0.9039  0.4404 -0.3670
19045TIP3   OH278625   6.266   2.359   4.086  0.4615 -0.4548  0.2824
19045TIP3    H178626   6.222   2.277   4.109  1.0145 -0.8843 -0.1386
19045TIP3    H278627   6.347   2.331   4.043  1.2467  0.3173  1.2112
19046TIP3   OH278628   0.790   1.127   3.409  0.3785  0.2188 -0.1503
19046TIP3    H178629   0.705   1.164   3.384  0.7997  1.9668  0.8662
19046TIP3    H278630   0.853   1.196   3.393  1.1947  0.0296  1.8758
19047TIP3   OH278631   5.705   1.442  12.649  0.0525 -0.4505  0.4801
19047TIP3    H178632   5.735   1.358  12.683 -0.6886 -0.0059  2.3529
19047TIP3    H278633   5.763   1.507  12.688 -0.0029  0.0008 -0.1660
19048TIP3   OH278634   4.085   4.716  13.717  0.7259 -0.1388  0.1507
19048TIP3    H178635   4.131   4.789  13.676  0.3723 -0.8409 -1.5829
19048TIP3    H278636   4.143   4.688  13.788  1.8143  0.5337 -0.4397
19049TIP3   OH278637   0.671   1.379  13.670  0.5313 -0.5225  0.5264
19049TIP3    H178638   0.686   1.356  13.578 -0.6981  2.7144 -0.6055
19049TIP3    H278639   0.580   1.352  13.686  0.7930 -1.2228  0.8805
19050TIP3   OH278640   1.984   3.759  15.557 -0.1585 -0.0752 -0.2337
19050TIP3    H178641   2.066   3.764  15.607 -0.0863  0.9715 -0.4334
19050TIP3    H278642   1.916   3.780  15.620 -0.5100 -2.6384  0.3771
19051TIP3   OH278643   3.096   1.530  14.564  0.5258  0.0065 -0.3165
19051TIP3    H178644   3.131   1.455  14.611 -1.9319 -0.2483  1.2639
19051TIP3    H278645   3.150   1.536  14.485  2.9516 -1.3039  1.1355
19052TIP3   OH278646   6.017   4.196  16.410 -0.1379  0.2538 -0.3624
19052TIP3    H178647   6.033   4.148  16.329  0.0874  0.7584 -0.6181
19052TIP3    H278648   5.922   4.193  16.421  0.0171 -2.2163  0.8456
19053TIP3   OH278649   2.276   5.932  16.474 -0.6492  0.4657  0.0679
19053TIP3    H178650   2.305   6.017  16.441  0.1158  0.1431 -0.1250
19053TIP3    H278651   2.350   5.901  16.527 -0.6739 -0.3431 -0.3532
19054TIP3   OH278652   6.157   6.447  14.282  0.4516 -0.6497 -0.3674
19054TIP3    H178653   6.067   6.420  14.263 -0.3484  0.7187  1.2260
19054TIP3    H278654   6.206   6.424  14.203 -1.4004 -0.9402 -1.4911
19055TIP3   OH278655   4.563   3.811  13.180 -0.2317  0.3362  0.2343
19055TIP3    H178656   4.658   3.813  13.191 -0.0847 -2.2606  0.0331
19055TIP3    H278657   4.529   3.833  13.267  0.6019 -0.4535  0.7800
19056TIP3   OH278658   6.140   1.444   1.991  0.1880  0.4261 -0.0219
19056TIP3    H178659   6.197   1.394   1.932  2.8158  1.7195  1.2342
19056TIP3    H278660   6.188   1.526   2.006 -0.6003  0.3985  3.4209
19057TIP3   OH278661   1.531   4.055   2.602 -0.4047 -0.4121 -0.2205
19057TIP3    H178662   1.609   4.107   2.582 -1.4703  1.4324  0.1452
19057TIP3    H278663   1.460   4.102   2.558 -1.5486 -1.0532  0.8933
19058TIP3   OH278664   4.152   0.094  11.746 -0.3393 -0.1108 -0.1547
19058TIP3    H178665   4.212   0.025  11.775  1.5786  1.0692 -1.0931
19058TIP3    H278666   4.138   0.075  11.653 -0.3600  0.3697 -0.2495
19059TIP3   OH278667   6.023   3.033  17.292  0.2433 -0.0757 -0.0002
19059TIP3    H178668   6.029   3.087  17.212 -2.2965 -1.5223 -1.2990
19059TIP3    H278669   6.028   3.096  17.364  1.6483  1.3860 -1.2999
19060TIP3   OH278670   1.669   2.896  11.534 -0.2493 -0.1169 -0.5211
19060TIP3    H178671   1.632   2.870  11.618 -0.4905  0.1477 -0.5404
19060TIP3    H278672   1.737   2.959  11.557 -0.5467  0.2164 -0.5370
19061TIP3   OH278673   3.353   1.518  15.936 -0.0343 -0.2676  1.0027
19061TIP3    H178674   3.289   1.567  15.885  0.3866 -0.5075  0.2301
19061TIP3    H278675   3.392   1.457  15.874 -0.0474 -1.0949  1.7867
19062TIP3   OH278676   6.215   5.509   0.968 -1.0172 -0.2142 -0.4003
19062TIP3    H178677   6.188   5.587   1.016 -2.2092  0.7203 -2.4406
19062TIP3    H278678   6.167   5.514   0.885 -0.5361 -2.7273 -0.9205
19063TIP3   OH278679   1.542   3.816  13.995 -0.4206 -0.1717 -0.3437
19063TIP3    H178680   1.542   3.723  14.014 -1.3503 -0.1286 -0.0830
19063TIP3    H278681   1.464   3.830  13.941 -1.4683  0.7551  1.2960
19064TIP3   OH278682   0.177   6.522  12.148 -0.2350 -0.4272  0.0390
19064TIP3    H178683   0.176   6.617  12.137 -0.3641 -0.2082  1.6184
19064TIP3    H278684   0.106   6.490  12.093 -0.4746  0.4389 -0.1708
19065TIP3   OH278685   2.832   4.662   5.198 -0.2774  0.0302 -0.0391
19065TIP3    H178686   2.830   4.634   5.106  1.4038  1.2048 -0.4787
19065TIP3    H278687   2.778   4.741   5.200 -1.5193 -0.7961  0.3228
19066TIP3   OH278688   1.466   0.029  14.940 -0.0407 -0.4862  0.0569
19066TIP3    H178689   1.522  -0.022  14.997  0.8187 -0.9401 -1.1475
19066TIP3    H278690   1.404  -0.034  14.903  1.7729 -0.9692 -2.3511
19067TIP3   OH278691   6.817   6.442   4.895 -0.0643  0.2747  0.3353
19067TIP3    H178692   6.866   6.521   4.916 -1.0087  0.5624  1.6090
19067TIP3    H278693   6.855   6.410   4.813  1.2954  1.2307  0.5762
19068TIP3   OH278694   5.900   3.618  16.503  0.0496 -0.3392  0.3130
19068TIP3    H178695   5.833   3.686  16.503  0.0859 -0.2820  1.4512
19068TIP3    H278696   5.941   3.624  16.589  1.4343 -0.4719 -0.3025
19069TIP3   OH278697   1.202   6.491   5.173  0.0027  0.5664 -0.5831
19069TIP3    H178698   1.237   6.434   5.105 -1.4684  1.6043 -2.3030
19069TIP3    H278699   1.121   6.450   5.200 -1.1277  1.8100 -1.9157
19070TIP3   OH278700   3.827   5.010  17.095 -0.2493 -0.6152 -0.1995
19070TIP3    H178701   3.741   5.044  17.071 -1.0836 -1.8481  0.9547
19070TIP3    H278702   3.875   5.006  17.012 -1.4112 -0.2334 -0.9069
19071TIP3   OH278703   1.626   1.937  14.090 -0.3532  0.1206 -0.3882
19071TIP3    H178704   1.538   1.933  14.129 -0.2463  0.2102 -0.1364
19071TIP3    H278705   1.671   1.860  14.125  0.5540  1.5024  1.6577
19072TIP3   OH278706   4.147   2.422  16.429 -0.0353  0.3433 -0.1415
19072TIP3    H178707   4.085   2.443  16.360 -0.7189  0.1753  0.4116
19072TIP3    H278708   4.181   2.507  16.457  0.8397  0.3740 -1.1937
19073TIP3   OH278709   4.915   5.903   3.467 -0.0099  0.1105 -0.2062
19073TIP3    H178710   4.905   5.990   3.429 -2.6758  0.4094  0.9854
19073TIP3    H278711   5.002   5.905   3.509 -0.1763  2.3488  0.1461
19074TIP3   OH278712   5.164   5.211  12.867 -0.2246  0.1086  0.1755
19074TIP3    H178713   5.154   5.136  12.926 -0.3339 -0.7334 -0.8818
19074TIP3    H278714   5.087   5.207  12.810  0.6361 -0.0232 -1.0139
19075TIP3   OH278715   3.467   0.879  14.451 -0.2309  0.3078  0.3227
19075TIP3    H178716   3.376   0.854  14.435 -0.3981  0.8070  0.4556
19075TIP3    H278717   3.519   0.810  14.409 -0.6673 -0.4586  1.0121
19076TIP3   OH278718   1.316   0.503   1.286  0.3069  0.5709 -0.1012
19076TIP3    H178719   1.345   0.469   1.202  0.2827 -0.0639  0.1437
19076TIP3    H278720   1.287   0.426   1.335 -0.1368  0.9888  0.3079
19077TIP3   OH278721   2.646   6.424  13.033 -0.4627  0.4314  0.8135
19077TIP3    H178722   2.676   6.342  12.995 -1.0914  0.0002  1.2210
19077TIP3    H278723   2.668   6.491  12.968  0.2155 -0.0300  0.5571
19078TIP3   OH278724   4.603   5.137   3.832 -0.0710 -0.1573 -0.1979
19078TIP3    H178725   4.646   5.219   3.857  0.3862 -0.3899 -0.2164
19078TIP3    H278726   4.567   5.154   3.745 -0.0434  0.0495 -0.1696
19079TIP3   OH278727   0.650   6.467   4.475 -0.4540 -0.2540  0.3313
19079TIP3    H178728   0.564   6.505   4.490 -0.9986 -1.3518  0.0529
19079TIP3    H278729   0.710   6.541   4.481 -1.7256  1.2141 -3.0415
19080TIP3   OH278730   1.675   4.893  11.139  0.2828 -0.1588  0.3135
19080TIP3    H178731   1.689   4.987  11.132  0.8056 -0.2782 -0.3412
19080TIP3    H278732   1.579   4.883  11.140  0.2004  0.4837  2.1266
19081TIP3   OH278733   5.053   5.055  13.082  0.1665  0.1632 -0.1935
19081TIP3    H178734   4.959   5.063  13.096  0.5178  1.5011  1.8988
19081TIP3    H278735   5.091   5.062  13.170  2.4031  3.3753 -1.2129
19082TIP3   OH278736   5.982   6.400   0.193 -0.2997  0.1127  0.4663
19082TIP3    H178737   5.949   6.315   0.221  1.4337 -0.5690  0.5854
19082TIP3    H278738   5.944   6.462   0.255 -1.6996 -0.5380  0.2915
19083TIP3   OH278739   2.235   1.877  16.085 -0.2802  0.4488  0.0935
19083TIP3    H178740   2.321   1.836  16.087 -0.7958 -0.6542  0.3981
19083TIP3    H278741   2.189   1.833  16.014 -1.1465 -0.1761  1.0119
19084TIP3   OH278742   3.438   0.044   5.685  0.1940 -0.0125 -0.0705
19084TIP3    H178743   3.533   0.055   5.689  0.2439  0.6196 -1.9412
19084TIP3    H278744   3.422   0.006   5.599 -1.2477 -0.2751  0.2867
19085TIP3   OH278745   0.348   1.164  11.860  0.1155 -0.3331  0.1223
19085TIP3    H178746   0.439   1.179  11.886 -0.1419  2.4292 -0.2600
19085TIP3    H278747   0.352   1.156  11.765 -0.1826  1.6221 -0.0867
19086TIP3   OH278748   2.751   3.197  16.347  0.0650 -0.0835  0.0273
19086TIP3    H178749   2.734   3.286  16.376 -0.1385  0.4164 -1.5505
19086TIP3    H278750   2.773   3.205  16.255 -0.0405 -1.6743 -0.1670
19087TIP3   OH278751   1.045   1.679   2.793  0.5335  0.2831  0.0611
19087TIP3    H178752   1.051   1.586   2.812  0.4123  0.4253  0.7979
19087TIP3    H278753   0.979   1.685   2.724  2.0230 -0.3723 -1.5321
19088TIP3   OH278754   3.915   2.951  12.463  0.2574 -0.2478 -0.4303
19088TIP3    H178755   3.938   3.013  12.394 -1.9396  1.1428 -0.0253
19088TIP3    H278756   3.877   2.876  12.417  0.6510 -0.2056 -0.8207
19089TIP3   OH278757   2.224   0.056  11.632 -0.0424 -0.0105  0.6430
19089TIP3    H178758   2.226   0.141  11.588  0.8718  0.0895  0.8631
19089TIP3    H278759   2.249   0.075  11.722  0.0594 -0.4929  0.7174
19090TIP3   OH278760   5.900   1.948   2.833 -0.5235 -0.0300 -0.3426
19090TIP3    H178761   5.870   1.859   2.815 -0.4286 -0.0276 -0.5098
19090TIP3    H278762   5.989   1.951   2.799 -0.3350 -0.0307  0.1359
19091TIP3   OH278763   2.037   4.269   1.731 -0.3122  0.2097 -0.3125
19091TIP3    H178764   1.962   4.253   1.675 -1.4995  0.1774  1.2074
19091TIP3    H278765   2.077   4.183   1.744  0.5137  0.3318 -1.7462
19092TIP3   OH278766   4.931   1.646   2.388  0.2752 -0.5266  0.1637
19092TIP3    H178767   4.971   1.561   2.407  1.1732 -0.0476  0.5198
19092TIP3    H278768   4.947   1.697   2.468  1.0188  0.4234 -0.5753
19093TIP3   OH278769   3.693   2.349   3.245  0.6724 -0.3036 -0.0017
19093TIP3    H178770   3.606   2.376   3.215  0.8288 -0.4412 -0.5993
19093TIP3    H278771   3.750   2.367   3.170  1.2735  0.3749  0.6077
19094TIP3   OH278772   4.187   2.907   2.307  0.7358 -0.4994  0.3670
19094TIP3    H178773   4.214   2.981   2.361  1.6727 -1.3844  1.1502
19094TIP3    H278774   4.095   2.892   2.331  0.0638  1.3099 -0.8878
19095TIP3   OH278775   4.128   5.123  17.018  0.8223 -0.3565 -1.0014
19095TIP3    H178776   4.129   5.218  17.002  1.1045 -0.0948  0.4033
19095TIP3    H278777   4.091   5.085  16.938  0.4166  0.9597 -1.4618
19096TIP3   OH278778   5.786   2.646  16.561  0.4532 -0.9502 -0.8202
19096TIP3    H178779   5.694   2.673  16.570  1.0579  1.3547 -0.8227
19096TIP3    H278780   5.796   2.627  16.468  0.5294  1.3163 -1.3417
19097TIP3   OH278781   3.100   4.243   1.450 -0.3231 -0.2151  0.2159
19097TIP3    H178782   3.073   4.288   1.530 -0.6830 -0.2666  0.1267
19097TIP3    H278783   3.184   4.282   1.427 -0.5848  0.3379  0.1973
19098TIP3   OH278784   6.148   4.901  14.172  0.4455 -0.5848 -0.2113
19098TIP3    H178785   6.190   4.818  14.146 -0.4221 -0.6844 -1.3840
19098TIP3    H278786   6.069   4.874  14.220  1.4382 -0.3981  1.6285
19099TIP3   OH278787   5.817   2.142  16.153  0.3060 -0.0767 -0.1857
19099TIP3    H178788   5.832   2.072  16.089  0.6682  0.8188 -1.1019
19099TIP3    H278789   5.895   2.140  16.209  0.3305 -0.3820 -0.2276
19100TIP3   OH278790   5.711   1.625  12.057 -0.0731 -0.6561  0.3300
19100TIP3    H178791   5.627   1.665  12.037 -0.2797 -1.6191 -0.8524
19100TIP3    H278792   5.765   1.642  11.980 -0.3808 -3.1232 -0.5157
19101TIP3   OH278793   4.578   0.766  13.335  0.1506 -0.0198 -0.6676
19101TIP3    H178794   4.549   0.826  13.267 -0.5876 -0.4557 -0.7507
19101TIP3    H278795   4.543   0.681  13.309  1.6815 -0.6256 -0.8728
19102TIP3   OH278796   0.418   0.468   1.630  0.7187 -0.8156 -0.1711
19102TIP3    H178797   0.351   0.466   1.563  1.4419  1.3415 -1.0393
19102TIP3    H278798   0.497   0.434   1.587  1.2030  0.6440 -0.4942
19103TIP3   OH278799   1.456   1.555  11.707 -0.3640 -0.0132 -0.4928
19103TIP3    H178800   1.475   1.619  11.777  4.2579  0.0695 -1.4892
19103TIP3    H278801   1.373   1.515  11.733 -0.6902  2.4888  3.1116
19104TIP3   OH278802   2.267   1.623   3.399  0.1009  0.0950  0.5816
19104TIP3    H178803   2.360   1.642   3.414  0.1357  0.5206 -0.1747
19104TIP3    H278804   2.255   1.634   3.305 -0.4837 -0.9910  0.5089
19105TIP3   OH278805   3.043   2.827   2.098 -0.4776  0.7858  0.3650
19105TIP3    H178806   3.109   2.879   2.052 -1.6369  2.0550  0.0290
19105TIP3    H278807   3.033   2.871   2.183 -0.7388  0.4915  0.4876
19106TIP3   OH278808   0.975   4.635  11.653  0.1753 -0.0037 -0.5776
19106TIP3    H178809   0.968   4.728  11.632 -0.4897 -0.2250 -1.3990
19106TIP3    H278810   0.941   4.628  11.742 -2.5354  0.1720 -1.5098
19107TIP3   OH278811   1.184   2.617   0.432  0.2349  0.2876  0.4462
19107TIP3    H178812   1.217   2.559   0.501 -1.1709 -1.0456  0.0453
19107TIP3    H278813   1.113   2.665   0.473  0.7997  1.0859  0.5132
19108TIP3   OH278814   2.317   5.811  15.902  0.0072  0.2952  0.0600
19108TIP3    H178815   2.300   5.824  15.809  0.5470  2.9488  0.2610
19108TIP3    H278816   2.321   5.716  15.913  0.6167 -0.0662 -2.7255
19109TIP3   OH278817   4.793   6.810   4.020  0.1037 -0.1290  0.4883
19109TIP3    H178818   4.847   6.877   4.062  1.1516 -0.3355 -0.4769
19109TIP3    H278819   4.788   6.838   3.928 -1.6441  0.0075  0.5959
19110TIP3   OH278820   0.448   6.766   4.742  0.1162  0.2204  0.1142
19110TIP3    H178821   0.485   6.718   4.816 -1.6918 -0.8271  0.4001
19110TIP3    H278822   0.440   6.700   4.673 -2.5336 -0.0293  0.5585
19111TIP3   OH278823   2.708   6.815  12.688 -0.4355 -0.4485 -0.2328
19111TIP3    H178824   2.787   6.846  12.732 -0.2026  0.1937 -1.0656
19111TIP3    H278825   2.641   6.816  12.756 -0.0067  0.1586  0.1977
19112TIP3   OH278826   5.369   6.149   5.006 -0.0687 -0.2053 -0.7545
19112TIP3    H178827   5.423   6.225   5.025 -1.1044  0.6014 -0.9656
19112TIP3    H278828   5.424   6.094   4.950  1.5777 -0.7755  1.2603
19113TIP3   OH278829   1.766   2.097   6.475 -0.1860  0.3206  0.4501
19113TIP3    H178830   1.843   2.092   6.532 -0.9774 -1.0560  1.4402
19113TIP3    H278831   1.802   2.125   6.390  1.8806 -2.8054  0.1200
19114TIP3   OH278832   6.416   4.866  15.627 -0.6113 -0.0850  0.5277
19114TIP3    H178833   6.414   4.937  15.562 -0.2916 -1.8621 -1.5514
19114TIP3    H278834   6.327   4.831  15.626 -0.1870 -1.2393 -0.3568
19115TIP3   OH278835   1.083   2.841   4.706  0.0171 -0.5876  0.7522
19115TIP3    H178836   1.160   2.823   4.652  1.1833  0.3164  2.0562
19115TIP3    H278837   1.098   2.929   4.740 -2.6148  0.4898 -0.6073
19116TIP3   OH278838   3.728   2.766  14.163  0.6258 -0.2032 -0.0938
19116TIP3    H178839   3.809   2.815  14.178 -0.4145  2.0250 -1.3793
19116TIP3    H278840   3.713   2.773  14.068 -0.5589 -1.4464 -0.0238
19117TIP3   OH278841   4.174   6.469  14.039 -0.3304  0.1888  0.3255
19117TIP3    H178842   4.147   6.395  14.093 -0.8311 -0.8864 -1.3345
19117TIP3    H278843   4.106   6.478  13.973  0.4000  1.2707 -0.3352
19118TIP3   OH278844   0.016   4.581  16.006  0.2201 -0.0679 -0.1193
19118TIP3    H178845  -0.013   4.490  16.006  0.8218 -0.2692 -0.2928
19118TIP3    H278846   0.105   4.578  16.041 -0.1691  0.6042  0.9544
19119TIP3   OH278847   0.685   0.657   2.737  0.0819 -0.3550 -0.4791
19119TIP3    H178848   0.641   0.725   2.788 -0.4061  0.2479 -1.6472
19119TIP3    H278849   0.614   0.615   2.688  0.6522 -0.1413 -1.5171
19120TIP3   OH278850   1.479   5.380  16.750 -0.3233  0.4417  0.4390
19120TIP3    H178851   1.485   5.298  16.701  0.2323  1.1180 -0.6645
19120TIP3    H278852   1.465   5.353  16.841  0.0650 -0.8759  0.1254
19121TIP3   OH278853   0.913   5.968   0.911 -0.1425 -0.5046  0.2177
19121TIP3    H178854   0.958   5.883   0.907 -0.6958 -0.9258  2.0404
19121TIP3    H278855   0.850   5.958   0.982  0.4521  1.7303  1.1484
19122TIP3   OH278856   4.574   4.417  13.550 -0.5733 -0.0727 -0.3186
19122TIP3    H178857   4.650   4.383  13.597 -1.5789 -0.9890  0.7207
19122TIP3    H278858   4.519   4.340  13.533 -1.4820  0.6190 -0.6469
19123TIP3   OH278859   2.423   1.958  13.693  0.3211  0.0944 -0.1860
19123TIP3    H178860   2.328   1.968  13.680  0.2513 -1.1299 -0.8003
19123TIP3    H278861   2.459   2.044  13.673 -0.7720  0.9498  1.3323
19124TIP3   OH278862   5.022   1.322   3.879 -0.3714 -0.5138  0.1588
19124TIP3    H178863   4.992   1.294   3.793 -1.0216 -0.3002  0.3093
19124TIP3    H278864   5.064   1.407   3.863 -0.6011 -0.4165  0.0752
19125TIP3   OH278865   2.014   3.760  16.487  0.3456  0.2207 -0.0438
19125TIP3    H178866   2.019   3.671  16.454 -1.1729 -0.0532  0.3880
19125TIP3    H278867   2.100   3.777  16.525  0.8975 -0.7673 -0.8291
19126TIP3   OH278868   0.400   1.580  11.321 -0.1920  0.3741  0.4898
19126TIP3    H178869   0.345   1.556  11.395 -2.2768  0.6997 -0.8737
19126TIP3    H278870   0.368   1.525  11.249 -1.7098  3.4918 -1.4316
19127TIP3   OH278871   5.545   1.537  13.273  0.1597  0.7067  0.4831
19127TIP3    H178872   5.567   1.571  13.187  0.5683  3.0028  1.4240
19127TIP3    H278873   5.453   1.562  13.286 -1.1456 -2.8412 -0.6627
19128TIP3   OH278874   5.881   5.715   4.111  0.4949 -0.0241 -0.1990
19128TIP3    H178875   5.928   5.740   4.031 -0.3950  0.4097 -0.5969
19128TIP3    H278876   5.799   5.677   4.079 -0.8173  2.0704  0.5238
19129TIP3   OH278877   4.254   1.954   5.957 -0.6336 -0.2800 -0.0586
19129TIP3    H178878   4.190   2.006   6.005  0.0339  2.4380 -1.8689
19129TIP3    H278879   4.245   1.982   5.866  1.5239 -1.5165 -0.7348
19130TIP3   OH278880   3.200   3.336   2.763 -0.2802 -0.1543  0.6677
19130TIP3    H178881   3.226   3.274   2.695  0.0935 -0.2896  0.9325
19130TIP3    H278882   3.121   3.377   2.728 -0.6547 -0.9285  0.5737
19131TIP3   OH278883   0.302   5.319  16.562  0.0756 -0.4120  0.0531
19131TIP3    H178884   0.268   5.359  16.483 -0.7873  0.3330  0.7803
19131TIP3    H278885   0.384   5.277  16.535 -0.3252 -0.3777 -1.2668
19132TIP3   OH278886   1.469   1.336   2.735 -0.3984 -0.5199 -0.2786
19132TIP3    H178887   1.410   1.410   2.749  0.8772  0.6920 -1.0962
19132TIP3    H278888   1.411   1.264   2.707 -1.7504 -0.1025  1.3117
19133TIP3   OH278889   3.518   6.476   4.280 -0.6297 -0.0284  0.5711
19133TIP3    H178890   3.471   6.559   4.282 -0.6886 -0.0488  0.1484
19133TIP3    H278891   3.449   6.409   4.281 -0.6343 -0.0561 -0.3105
19134TIP3   OH278892   1.548   4.236   4.316 -0.3227  0.8201 -0.0105
19134TIP3    H178893   1.629   4.243   4.266  0.5010 -0.5421  1.0805
19134TIP3    H278894   1.494   4.309   4.284  0.7055  0.8396 -1.8449
19135TIP3   OH278895   3.170   3.827  15.861 -0.6133 -0.4614 -0.2398
19135TIP3    H178896   3.113   3.750  15.863 -1.3707  0.0415 -1.7928
19135TIP3    H278897   3.226   3.813  15.785 -1.4995  1.0315 -1.1993
19136TIP3   OH278898   6.442   5.280  13.125 -0.1282  0.0930  0.4625
19136TIP3    H178899   6.500   5.265  13.200 -0.0192  1.0327  0.5809
19136TIP3    H278900   6.359   5.307  13.164  0.4449  2.3430  0.2482
19137TIP3   OH278901   5.572   4.170   0.019 -0.1638  0.8156 -0.3841
19137TIP3    H178902   5.629   4.191  -0.055 -1.0471  0.0057 -1.3249
19137TIP3    H278903   5.630   4.132   0.084  0.1503 -2.1992 -2.2226
19138TIP3   OH278904   0.981   3.846  15.655  0.1455  0.0375 -0.1773
19138TIP3    H178905   1.019   3.759  15.638  1.4725  0.9318 -2.2207
19138TIP3    H278906   0.907   3.829  15.713 -0.5352 -2.6412 -1.6777
19139TIP3   OH278907   1.884   1.928  11.579 -0.2517 -0.4215 -0.3857
19139TIP3    H178908   1.885   2.024  11.574  0.4124 -0.4467 -0.8897
19139TIP3    H278909   1.803   1.903  11.534 -1.3955 -0.0376  1.3672
19140TIP3   OH278910   6.073   0.965  15.219  0.0537 -0.2099  0.2202
19140TIP3    H178911   5.991   0.950  15.173  0.0895  0.2651 -0.0006
19140TIP3    H278912   6.068   0.907  15.296 -0.0715 -0.8835 -0.2831
19141TIP3   OH278913   1.256   2.026   4.219  0.2368  0.4226 -0.2376
19141TIP3    H178914   1.182   1.969   4.195  0.0287 -0.0968  1.4684
19141TIP3    H278915   1.215   2.096   4.271  0.6710  1.4041 -1.1945
19142TIP3   OH278916   2.850   2.622   4.889  0.0237 -0.1984  0.1225
19142TIP3    H178917   2.944   2.622   4.909 -0.1078  0.0700  0.7420
19142TIP3    H278918   2.836   2.540   4.842  0.6124 -0.1325 -0.1815
19143TIP3   OH278919   1.549   1.933   1.596 -0.2770 -0.0463  0.1317
19143TIP3    H178920   1.588   2.004   1.546 -0.1517 -0.9032 -1.0273
19143TIP3    H278921   1.609   1.859   1.583 -0.9024 -0.6336  0.5219
19144TIP3   OH278922   3.093   1.934  12.448  0.7145 -0.5781 -0.2109
19144TIP3    H178923   3.004   1.908  12.428  0.9844 -3.2239  1.4828
19144TIP3    H278924   3.085   1.995  12.522  0.3109 -2.2973  1.2250
19145TIP3   OH278925   5.822   3.425  16.131 -0.1470  0.0999 -0.4578
19145TIP3    H178926   5.829   3.330  16.131  0.2038  0.1209 -1.3105
19145TIP3    H278927   5.901   3.455  16.176  0.4523  0.0216 -1.4295
19146TIP3   OH278928   5.973   1.601  15.477  0.1140  0.2039 -0.3871
19146TIP3    H178929   6.025   1.555  15.411  0.5255  0.2286 -0.0839
19146TIP3    H278930   6.012   1.687  15.483 -1.5865  1.1769 -2.0454
19147TIP3   OH278931   3.920   0.600   1.932 -0.5252 -0.1247 -0.2166
19147TIP3    H178932   3.947   0.623   2.021 -1.5109  0.3503 -0.0188
19147TIP3    H278933   3.911   0.684   1.887 -0.0106 -0.3665 -0.7701
19148TIP3   OH278934   1.887   2.946   6.004  0.0627  0.2269 -0.5535
19148TIP3    H178935   1.913   2.894   5.928  0.8915  2.4027 -1.8384
19148TIP3    H278936   1.955   2.928   6.070 -1.2572 -2.5275  0.1728
19149TIP3   OH278937   6.637   2.801   2.467  0.2267  0.2396  0.0007
19149TIP3    H178938   6.635   2.706   2.473  1.5721  0.2451  1.0714
19149TIP3    H278939   6.662   2.819   2.376  0.1911 -0.4289 -0.1440
19150TIP3   OH278940   5.847   1.823   3.201  0.0977 -0.6570 -0.0476
19150TIP3    H178941   5.907   1.850   3.270 -0.5679  1.1906 -0.1132
19150TIP3    H278942   5.807   1.742   3.234  0.8052 -0.5621  1.1051
19151TIP3   OH278943   2.891   2.356  11.676 -0.3794  0.2078 -0.1934
19151TIP3    H178944   2.883   2.314  11.762 -0.0104 -0.1145 -0.3122
19151TIP3    H278945   2.945   2.296  11.625 -0.1086  0.6724 -0.4680
19152TIP3   OH278946   3.431   1.813  11.293 -0.7389 -0.0481  0.7377
19152TIP3    H178947   3.507   1.822  11.351  0.3479 -0.6990 -0.5015
19152TIP3    H278948   3.355   1.829  11.348  0.3388  1.4967  1.8389
19153TIP3   OH278949   1.273   0.467  16.439 -0.7780  0.1632  0.0757
19153TIP3    H178950   1.196   0.472  16.496 -0.4892  1.1764  0.3940
19153TIP3    H278951   1.326   0.543  16.464  1.8946 -2.1420  2.1263
19154TIP3   OH278952   5.180   4.403  13.424  0.3354  0.0792 -0.4408
19154TIP3    H178953   5.232   4.482  13.408 -0.3725  0.7562  0.5166
19154TIP3    H278954   5.214   4.339  13.361  1.4789  0.8841 -0.6684
19155TIP3   OH278955   0.459   1.935  17.268  0.8141 -0.6496  0.2533
19155TIP3    H178956   0.503   2.007  17.223  0.8006 -1.2372 -0.7288
19155TIP3    H278957   0.390   1.907  17.208  0.2578 -0.9240  1.0010
19156TIP3   OH278958   6.673   3.583   3.551  0.1250 -0.4216 -0.1586
19156TIP3    H178959   6.589   3.568   3.508 -0.6512 -0.4046  1.3168
19156TIP3    H278960   6.703   3.495   3.575  0.2923 -0.3879 -0.2432
19157TIP3   OH278961   4.434   2.868  11.031  0.3175  0.1072  0.2067
19157TIP3    H178962   4.522   2.832  11.017  0.0636 -0.3012 -0.3679
19157TIP3    H278963   4.376   2.793  11.022 -0.2481  0.6843 -1.3736
19158TIP3   OH278964   5.336   0.836  17.142  0.2113 -0.2088  0.2822
19158TIP3    H178965   5.416   0.874  17.179 -1.2441  1.1921  2.2420
19158TIP3    H278966   5.349   0.742  17.151  2.2815 -0.1135 -0.9827
19159TIP3   OH278967   5.955   4.166  10.886 -0.2308  0.3707 -0.1381
19159TIP3    H178968   5.963   4.102  10.815 -1.5411 -0.2866  0.2729
19159TIP3    H278969   5.865   4.198  10.880 -0.4021  0.2436  1.2623
19160TIP3   OH278970   2.964   4.378   4.023  0.3458 -0.1833  0.5249
19160TIP3    H178971   3.033   4.398   4.085  0.6563  0.6343 -0.0675
19160TIP3    H278972   2.884   4.409   4.065  0.4204 -0.5281  0.9267
19161TIP3   OH278973   5.497   2.074   2.583  0.0314  0.7907  0.1955
19161TIP3    H178974   5.515   2.167   2.597  0.9637  0.3425  2.4438
19161TIP3    H278975   5.469   2.042   2.669 -0.7240 -0.9256 -0.6477
19162TIP3   OH278976   2.781   3.395  12.724  0.1149 -0.1574  0.0349
19162TIP3    H178977   2.824   3.342  12.791 -1.3153 -0.7155  0.5545
19162TIP3    H278978   2.688   3.372  12.731 -0.1645  0.2654 -1.6913
19163TIP3   OH278979   5.748   6.506  11.530 -0.2183  0.1176  0.0780
19163TIP3    H178980   5.679   6.451  11.567 -1.0396  1.3242  0.3964
19163TIP3    H278981   5.808   6.521  11.603  0.4521 -1.0017 -0.2201
19164TIP3   OH278982   5.972   4.078   4.757  0.4853  0.1267  0.1094
19164TIP3    H178983   5.997   4.052   4.668 -0.5966 -0.5365 -0.0159
19164TIP3    H278984   5.934   4.166   4.747  0.1935 -0.0244 -0.1182
19165TIP3   OH278985   2.704   6.772   5.390  0.0890 -0.6995 -0.4082
19165TIP3    H178986   2.658   6.854   5.411  0.9871  0.0934 -1.4440
19165TIP3    H278987   2.723   6.733   5.475 -1.9080 -0.7453  0.0829
19166TIP3   OH278988   1.637   6.410   2.964 -0.0954 -0.4165 -0.2948
19166TIP3    H178989   1.559   6.355   2.955 -0.9417  0.7094 -0.1269
19166TIP3    H278990   1.646   6.423   3.059  0.1344 -0.3181 -0.3290
19167TIP3   OH278991   0.389   3.686  13.014 -0.5465 -0.0867  0.2941
19167TIP3    H178992   0.341   3.768  13.028 -2.3439 -1.0608  0.1251
19167TIP3    H278993   0.481   3.710  13.027 -1.0438  1.8759  0.5830
19168TIP3   OH278994   4.500   2.101   6.034 -0.6656  0.2653 -0.3855
19168TIP3    H178995   4.481   2.086   6.126 -0.2779  1.5654 -0.0722
19168TIP3    H278996   4.458   2.029   5.988 -0.8245 -0.4154  0.8122
19169TIP3   OH278997   0.049   2.211  16.468  0.5304  0.4967  0.0607
19169TIP3    H178998   0.122   2.236  16.524  0.5988  1.6325 -0.5259
19169TIP3    H278999   0.014   2.132  16.510  1.2830  0.6707  1.0650
19170TIP3   OH279000   1.029   2.618  12.800 -0.0220  0.7581 -0.4009
19170TIP3    H179001   1.082   2.694  12.779  2.1036 -0.5158  0.0430
19170TIP3    H279002   1.088   2.560  12.849 -0.1383 -3.0387 -4.1560
19171TIP3   OH279003   0.404   1.573   1.372 -0.0891  0.4726 -0.4223
19171TIP3    H179004   0.384   1.602   1.461 -0.1174 -1.5534  0.2998
19171TIP3    H279005   0.377   1.481   1.371  2.0371 -0.2117 -1.8141
19172TIP3   OH279006   4.603   1.046   2.680 -0.6873 -0.3637  0.0216
19172TIP3    H179007   4.620   0.954   2.701 -2.1881 -0.8772 -0.8230
19172TIP3    H279008   4.590   1.088   2.765  0.6877 -0.7645  0.4542
19173TIP3   OH279009   1.563   1.521  14.402 -0.2548  0.3758 -0.0477
19173TIP3    H179010   1.638   1.541  14.458  0.4142 -1.1342 -0.3499
19173TIP3    H279011   1.487   1.543  14.455  0.3569  2.5034  0.0534
19174TIP3   OH279012   5.382   4.558  15.603 -0.0493  0.4661  0.5333
19174TIP3    H179013   5.307   4.504  15.579 -0.5615  1.4910 -0.2955
19174TIP3    H279014   5.378   4.632  15.543  1.4788  0.6856  0.6613
19175TIP3   OH279015   5.741   0.174  12.776  0.4520  0.0041 -0.2651
19175TIP3    H179016   5.823   0.172  12.824 -0.6765  0.1762  1.7687
19175TIP3    H279017   5.712   0.083  12.772  0.0982  0.0892  0.2224
19176TIP3   OH279018   5.894   4.825   0.057 -0.2959 -0.1472 -0.0398
19176TIP3    H179019   5.982   4.840   0.091 -0.3948 -0.0285  0.1611
19176TIP3    H279020   5.869   4.740   0.093  0.1654 -0.7009 -0.9757
19177TIP3   OH279021   2.623   6.155   2.059  0.0985  0.7751  0.2646
19177TIP3    H179022   2.661   6.242   2.071  0.7768  0.4555  0.5028
19177TIP3    H279023   2.529   6.168   2.071  0.2577  1.3604  0.9747
19178TIP3   OH279024   2.155   1.213   1.956 -0.3453 -0.0280 -0.2001
19178TIP3    H179025   2.148   1.249   2.044  0.9354  1.7227 -0.7501
19178TIP3    H279026   2.236   1.251   1.921  0.9837 -3.2838 -0.9890
19179TIP3   OH279027   3.047   4.555   0.423 -0.7166 -0.3461 -0.6876
19179TIP3    H179028   3.045   4.515   0.510  2.4506  0.4831 -0.1054
19179TIP3    H279029   2.993   4.634   0.432 -2.0464 -1.2794 -0.1003
19180TIP3   OH279030   5.658   6.203  13.369 -0.0040 -0.3023  0.5769
19180TIP3    H179031   5.689   6.293  13.381 -0.9922  0.0126  0.8704
19180TIP3    H279032   5.639   6.197  13.275  0.4653 -0.3465  0.4808
19181TIP3   OH279033   5.752   3.821  10.683 -0.1572 -0.5730  0.2759
19181TIP3    H179034   5.750   3.916  10.675 -3.8848 -0.4764  0.4966
19181TIP3    H279035   5.795   3.805  10.767 -2.2177  1.1786  1.7773
19182TIP3   OH279036   0.587   0.463   3.390 -0.0829  0.2356 -0.3661
19182TIP3    H179037   0.670   0.485   3.433  0.3193 -3.1941  0.9519
19182TIP3    H279038   0.612   0.405   3.318 -1.2627 -3.4257  1.8917
19183TIP3   OH279039   3.902   0.869   1.791 -0.0150 -0.5513 -0.1160
19183TIP3    H179040   3.887   0.893   1.700  0.3842 -1.1720 -0.3476
19183TIP3    H279041   3.890   0.951   1.840 -0.1733 -0.2076 -0.7248
19184TIP3   OH279042   5.959   0.209  13.684 -0.1308  0.2857  0.1896
19184TIP3    H179043   5.989   0.173  13.768 -1.2423 -0.6228  0.2223
19184TIP3    H279044   5.969   0.136  13.622 -2.0194  0.0106  0.1652
19185TIP3   OH279045   4.653   3.940  14.932 -0.5431  0.0762 -0.0863
19185TIP3    H179046   4.623   3.901  14.850 -0.8822  0.6635 -0.2469
19185TIP3    H279047   4.573   3.962  14.979 -0.3924  1.6482 -0.5169
19186TIP3   OH279048   1.112   3.000  15.884  0.5937 -0.6854 -0.5371
19186TIP3    H179049   1.125   3.047  15.802 -0.9833 -0.3283 -0.6022
19186TIP3    H279050   1.060   2.924  15.861 -1.2643  0.2516  0.3295
19187TIP3   OH279051   1.541   2.153   5.994  0.0430  0.4582 -0.1757
19187TIP3    H179052   1.472   2.087   5.985  0.7568 -0.1605 -1.3099
19187TIP3    H279053   1.611   2.108   6.042  0.3026  0.5781 -0.4435
19188TIP3   OH279054   5.505   6.630  11.713  0.1271  0.6408 -0.0462
19188TIP3    H179055   5.581   6.687  11.701 -0.5845  1.2236 -2.3495
19188TIP3    H279056   5.468   6.656  11.797  3.5486 -1.0714  2.2101
19189TIP3   OH279057   0.758   4.511   0.244  0.0067  1.5634 -0.3848
19189TIP3    H179058   0.702   4.587   0.233 -0.8714  1.0223  0.1964
19189TIP3    H279059   0.753   4.464   0.161 -0.5122  1.4565 -0.2970
19190TIP3   OH279060   5.781   5.326   6.266  0.0090 -0.1717  0.2371
19190TIP3    H179061   5.718   5.322   6.193 -0.4570  0.5661  0.5894
19190TIP3    H279062   5.860   5.285   6.231 -0.5033 -0.6623 -0.3843
19191TIP3   OH279063   1.499   0.350   0.688  0.0215  0.5506  0.5309
19191TIP3    H179064   1.434   0.398   0.638  0.4107  0.1648 -0.3602
19191TIP3    H279065   1.554   0.308   0.622  1.9328  1.8427  1.1994
19192TIP3   OH279066   0.450   5.726  12.718  0.0730 -0.2809  0.3685
19192TIP3    H179067   0.456   5.815  12.685 -0.7301 -0.6448 -0.8308
19192TIP3    H279068   0.538   5.690  12.706  0.7645  0.6955  2.0449
19193TIP3   OH279069   2.473   4.278  12.717 -0.2276  0.2309 -0.3786
19193TIP3    H179070   2.463   4.256  12.624  0.7536  0.1462 -0.4732
19193TIP3    H279071   2.477   4.193  12.761 -1.4276  0.2715 -0.1608
19194TIP3   OH279072   0.800   2.913  10.300 -0.4812 -0.0023 -1.0815
19194TIP3    H179073   0.819   2.978  10.368 -0.9303 -0.6574 -0.3197
19194TIP3    H279074   0.741   2.851  10.341  1.5648 -2.1012 -1.0922
19195TIP3   OH279075   5.771   2.956  15.514 -0.2006  0.0637 -0.8783
19195TIP3    H179076   5.794   2.987  15.601  1.2470  0.1399 -1.2722
19195TIP3    H279077   5.701   2.892  15.530 -0.8415  0.9850  0.2106
19196TIP3   OH279078   4.677   0.587   6.690 -0.4755 -0.0089 -0.4121
19196TIP3    H179079   4.753   0.542   6.653 -1.0471 -0.1071 -1.5070
19196TIP3    H279080   4.686   0.576   6.784  1.7398  1.3910 -0.4043
19197TIP3   OH279081   1.331   3.019   4.100  0.0565  0.3069  0.6505
19197TIP3    H179082   1.239   3.014   4.073 -0.0647  0.5424  1.0099
19197TIP3    H279083   1.379   3.027   4.018 -0.2065 -0.2818  0.4319
19198TIP3   OH279084   2.345   2.021   5.284  0.0856  0.0958  0.2440
19198TIP3    H179085   2.398   1.959   5.334 -1.3254 -2.1011 -0.8256
19198TIP3    H279086   2.355   2.104   5.330  1.1053 -1.1705  2.4713
19199TIP3   OH279087   2.045   3.031   1.172  0.6259  0.4193  0.0156
19199TIP3    H179088   2.140   3.037   1.167  0.5922  0.0779 -1.5568
19199TIP3    H279089   2.025   2.939   1.151 -0.0424  0.3577  0.8300
19200TIP3   OH279090   4.581   2.639  12.570  0.0654 -0.3511  0.0151
19200TIP3    H179091   4.620   2.714  12.614 -0.0421  0.7058 -1.6334
19200TIP3    H279092   4.492   2.666  12.548 -0.0747 -1.0536 -0.3389
19201TIP3   OH279093   4.731   2.276   2.775 -0.0082  0.4370 -0.6314
19201TIP3    H179094   4.754   2.289   2.867  0.5994  0.0898 -0.7319
19201TIP3    H279095   4.659   2.213   2.777  1.6073 -1.4776 -0.5068
19202TIP3   OH279096   5.801   6.805  10.748  0.6721 -0.4274 -0.2273
19202TIP3    H179097   5.801   6.851  10.664  1.5061  0.3799  0.1941
19202TIP3    H279098   5.766   6.869  10.810  1.1659 -0.6070  0.2431
19203TIP3   OH279099   5.886   1.983   1.073  0.3261  0.1540  0.0823
19203TIP3    H179100   5.922   1.996   1.161 -1.9515  0.9291  0.9622
19203TIP3    H279101   5.911   2.063   1.026  2.9176 -0.9281 -0.5570
19204TIP3   OH279102   4.907   1.411   4.960 -0.6261  0.4881  0.4887
19204TIP3    H179103   4.840   1.476   4.978 -1.1011 -0.1766  1.2219
19204TIP3    H279104   4.889   1.340   5.022 -0.7742 -0.8050 -0.9670
19205TIP3   OH279105   6.283   1.335   5.019 -0.7033 -0.2537  0.1711
19205TIP3    H179106   6.356   1.397   5.025 -0.5412 -0.3228 -0.9170
19205TIP3    H279107   6.205   1.388   5.038 -0.3833 -0.1892  1.3901
19206TIP3   OH279108   6.196   0.679  14.168 -0.0520  0.0606  0.8468
19206TIP3    H179109   6.248   0.727  14.233 -0.0646  0.8145  0.3125
19206TIP3    H279110   6.109   0.720  14.172 -0.2794 -0.4206  0.9157
19207TIP3   OH279111   1.283   2.466   0.643  0.3780 -0.7510  0.2972
19207TIP3    H179112   1.376   2.485   0.656 -0.1532  1.5892  1.0980
19207TIP3    H279113   1.237   2.522   0.706 -1.7551  1.5777 -2.9596
19208TIP3   OH279114   1.626   6.193  12.423 -0.1640  0.3620  0.0841
19208TIP3    H179115   1.602   6.108  12.386 -1.6729  0.2884  1.1300
19208TIP3    H279116   1.565   6.255  12.382 -1.2904  0.4047  1.7106
19209TIP3   OH279117   2.971   2.915  17.004 -0.1752  0.1064  1.1855
19209TIP3    H179118   2.969   2.950  17.093 -0.6653  1.6582  0.6027
19209TIP3    H279119   3.033   2.971  16.958  0.6396 -1.1560  0.7213
19210TIP3   OH279120   6.472   3.808  13.039  0.2829 -0.5511 -1.1056
19210TIP3    H179121   6.554   3.777  13.077  0.8874 -0.5430 -2.3548
19210TIP3    H279122   6.462   3.897  13.072  0.6130 -0.6684 -0.6942
19211TIP3   OH279123   0.545   2.468  11.727 -0.1606  0.2987 -0.2323
19211TIP3    H179124   0.474   2.516  11.767 -0.5710 -1.2586  1.0121
19211TIP3    H279125   0.618   2.530  11.725  0.0453  0.4162  3.4190
19212TIP3   OH279126   4.304   1.221  11.753  0.0149 -0.5664  0.7921
19212TIP3    H179127   4.272   1.160  11.819  0.6204 -2.7152 -0.8036
19212TIP3    H279128   4.229   1.235  11.694  0.3728 -1.2271  0.1587
19213TIP3   OH279129   2.024   1.562   4.792 -0.3076  0.1686 -0.3270
19213TIP3    H179130   2.020   1.567   4.888  3.3924 -0.0105  0.0009
19213TIP3    H279131   2.010   1.470   4.773  0.8707 -0.1588  0.2785
19214TIP3   OH279132   1.842   2.876   0.390 -0.1770  0.9190  0.1689
19214TIP3    H179133   1.862   2.784   0.372 -1.7194  0.3246  1.1942
19214TIP3    H279134   1.878   2.924   0.316 -1.1245 -0.7410 -1.4530
19215TIP3   OH279135   4.188   2.290  12.403 -0.0131 -0.7279  0.6328
19215TIP3    H179136   4.278   2.271  12.430  0.4028 -0.4784 -0.5403
19215TIP3    H279137   4.188   2.382  12.378 -0.6722 -0.6418  0.9149
19216TIP3   OH279138   0.186   1.597  16.713  0.2347  0.1511 -0.2424
19216TIP3    H179139   0.266   1.602  16.765  0.0511  1.8065 -0.0751
19216TIP3    H279140   0.212   1.550  16.633  0.9176 -0.9195  0.5841
19217TIP3   OH279141   5.583   5.270   4.897  0.3323  0.2677 -0.2189
19217TIP3    H179142   5.650   5.299   4.836 -0.4462  1.4256 -0.5564
19217TIP3    H279143   5.501   5.300   4.859 -0.4491 -1.5099 -0.0402
19218TIP3   OH279144   3.680   4.579   3.122 -0.2838 -0.4409  0.1348
19218TIP3    H179145   3.698   4.622   3.206 -1.8552 -0.0215  0.2712
19218TIP3    H279146   3.639   4.496   3.146 -2.1586  0.3407 -0.2063
19219TIP3   OH279147   2.052   6.675  17.169 -0.4115  0.4728  0.1416
19219TIP3    H179148   2.046   6.768  17.191 -2.5819  0.2823  0.5546
19219TIP3    H279149   1.961   6.645  17.166  0.2494 -1.7845  0.6361
19220TIP3   OH279150   5.275   2.521  16.461  0.0738  0.0806 -0.0446
19220TIP3    H179151   5.222   2.493  16.536 -1.2983  1.0424 -0.6134
19220TIP3    H279152   5.212   2.559  16.400  1.6702  3.4435  0.2089
19221TIP3   OH279153   0.329   4.587   3.082 -0.2298 -0.0136  0.1440
19221TIP3    H179154   0.294   4.514   3.031 -1.1131  1.3949 -1.3714
19221TIP3    H279155   0.410   4.611   3.037 -0.8644  1.0525 -0.4756
19222TIP3   OH279156   5.794   5.555   5.225  0.1083  0.1991 -0.3716
19222TIP3    H179157   5.769   5.478   5.276 -0.4714 -0.0697 -1.0383
19222TIP3    H279158   5.840   5.611   5.287 -0.5223 -0.1422  0.4317
19223TIP3   OH279159   1.861   4.264   0.983  0.7708 -0.1622  0.0857
19223TIP3    H179160   1.947   4.262   1.025  2.0514  2.2542 -2.1677
19223TIP3    H279161   1.880   4.255   0.889 -1.4221  0.5563 -0.4852
19224TIP3   OH279162   5.331   2.627   3.074 -0.5058 -0.0977  0.3596
19224TIP3    H179163   5.318   2.681   3.152 -1.2163 -0.0168  0.1987
19224TIP3    H279164   5.423   2.637   3.052 -0.1544 -0.5904  1.5317
19225TIP3   OH279165   1.130   2.985   0.380  0.3158 -0.1806  0.2202
19225TIP3    H179166   1.126   3.070   0.423  1.4167  1.1805 -2.2028
19225TIP3    H279167   1.215   2.949   0.406 -0.1866 -0.6205  1.3132
19226TIP3   OH279168   6.466   6.372   1.965 -0.2830  0.2899 -0.0779
19226TIP3    H179169   6.503   6.393   2.050  0.4254 -0.2331 -0.2471
19226TIP3    H279170   6.474   6.276   1.958  0.0294  0.3621 -0.8877
19227TIP3   OH279171   3.218   0.924  13.154  0.6135  0.2512 -0.3362
19227TIP3    H179172   3.202   0.944  13.246  2.1679 -0.1442  0.0484
19227TIP3    H279173   3.155   0.978  13.107 -0.0793  0.6058  0.9446
19228TIP3   OH279174   4.731   2.144   6.263 -0.2796 -0.4825 -0.1390
19228TIP3    H179175   4.684   2.225   6.282  2.2504  0.6831  1.8584
19228TIP3    H279176   4.664   2.077   6.259 -2.3962  1.5447 -1.0741
19229TIP3   OH279177   4.571   0.916  15.491  0.3341 -0.2383  0.7772
19229TIP3    H179178   4.564   0.986  15.426  0.4469 -0.4820  0.4987
19229TIP3    H279179   4.528   0.950  15.569 -0.3889 -0.1951  0.3616
19230TIP3   OH279180   1.597   2.426   1.831 -0.3611 -0.7810  0.1921
19230TIP3    H179181   1.623   2.340   1.801 -0.5594 -0.2730 -1.5421
19230TIP3    H279182   1.579   2.415   1.925 -1.2026 -2.8022 -0.1635
19231TIP3   OH279183   0.135   1.427   0.464  0.2512  0.0542 -0.4065
19231TIP3    H179184   0.068   1.387   0.520 -1.0939 -0.3346 -2.1835
19231TIP3    H279185   0.183   1.486   0.522 -1.4572  0.1455  1.0019
19232TIP3   OH279186   2.285   2.171  14.895  0.1534  0.0124 -0.2846
19232TIP3    H179187   2.238   2.241  14.851  0.3933  1.2077  1.2649
19232TIP3    H279188   2.376   2.201  14.898  0.2561 -0.3512  0.4016
19233TIP3   OH279189   2.253   4.635  16.561 -0.2698 -0.8560  0.8357
19233TIP3    H179190   2.210   4.717  16.537 -2.1787 -1.3490  2.3295
19233TIP3    H279191   2.323   4.625  16.497  0.1241  1.9975  0.6972
19234TIP3   OH279192   4.212   4.327   0.424  0.7382 -0.4389  0.4301
19234TIP3    H179193   4.301   4.363   0.416  0.8501 -0.2802  2.0071
19234TIP3    H279194   4.155   4.403   0.413  0.8179 -0.4616 -0.1407
19235TIP3   OH279195   4.002   2.804   1.816  0.2375 -0.6255 -0.2695
19235TIP3    H179196   4.016   2.897   1.836 -2.3967 -0.0825 -0.6054
19235TIP3    H279197   4.006   2.761   1.902 -3.3869  0.5952  0.6783
19236TIP3   OH279198   2.859   4.764   0.510  0.0559  0.0372  0.4805
19236TIP3    H179199   2.887   4.812   0.587 -2.3420  2.6261 -0.0978
19236TIP3    H279200   2.906   4.805   0.437  1.9244 -2.0562  0.3951
19237TIP3   OH279201   4.289   6.323   4.323  0.2894  0.2888 -0.7744
19237TIP3    H179202   4.197   6.351   4.318  0.4253  1.1495  0.7679
19237TIP3    H279203   4.337   6.389   4.273  0.3357  1.4832  0.7696
19238TIP3   OH279204   3.420   6.759   3.388 -0.1351 -0.0782 -0.3452
19238TIP3    H179205   3.380   6.837   3.350  0.6378  1.9058  2.5394
19238TIP3    H279206   3.514   6.777   3.386  0.0247 -0.6997  0.7836
19239TIP3   OH279207   2.055   4.765  15.389  0.0234 -0.1105 -0.5731
19239TIP3    H179208   2.023   4.680  15.419  0.2813 -0.0849 -0.2148
19239TIP3    H279209   1.992   4.828  15.424  0.0659 -0.1180 -0.4842
19240TIP3   OH279210   3.923   3.885  11.695  0.6963 -0.2437 -0.5655
19240TIP3    H179211   3.836   3.908  11.728  1.2902  2.0204 -0.4360
19240TIP3    H279212   3.906   3.822  11.625 -1.0280 -0.0439 -0.3614
19241TIP3   OH279213   5.566   6.367   4.593  0.5024 -0.3545  0.4366
19241TIP3    H179214   5.642   6.343   4.646  0.7965 -0.2722  0.0527
19241TIP3    H279215   5.527   6.284   4.568  0.5445 -0.4001  0.5212
19242TIP3   OH279216   4.711   5.802  11.766  0.1539 -0.1871 -0.2132
19242TIP3    H179217   4.662   5.755  11.698  1.4151  0.2654 -1.5046
19242TIP3    H279218   4.726   5.737  11.834  1.3754 -1.5831 -1.7101
19243TIP3   OH279219   6.411   0.640   5.106 -0.1179 -0.5044  0.0657
19243TIP3    H179220   6.484   0.657   5.166  0.8337 -0.3741 -1.0949
19243TIP3    H279221   6.438   0.680   5.023 -1.7370 -0.0010 -0.2610
19244TIP3   OH279222   4.266   0.041   4.128  0.0039  0.3231  0.4810
19244TIP3    H179223   4.242  -0.044   4.091  0.3168  0.9878 -1.3705
19244TIP3    H279224   4.357   0.031   4.156  0.6128  0.5006 -1.3224
19245TIP3   OH279225   0.166   2.184   3.758  0.9666  0.6006  0.5324
19245TIP3    H179226   0.082   2.228   3.764  1.1445  0.9168  0.7036
19245TIP3    H279227   0.231   2.254   3.763  1.2336  0.3910  0.0648
19246TIP3   OH279228   5.997   2.743  13.946  0.5186 -0.4975 -0.4757
19246TIP3    H179229   5.991   2.824  13.998 -0.0191 -1.3041  0.7729
19246TIP3    H279230   5.964   2.675  14.005 -0.4837 -1.4083 -2.0374
19247TIP3   OH279231   3.110   1.903   0.733  0.0708  0.1765 -0.0043
19247TIP3    H179232   3.051   1.963   0.687 -0.4959 -0.9304 -0.7501
19247TIP3    H279233   3.127   1.947   0.817 -2.7002  0.0387  0.7324
19248TIP3   OH279234   5.822   4.225  11.169 -0.1732  0.1714  0.3927
19248TIP3    H179235   5.876   4.179  11.105 -0.6312  0.3366 -0.1334
19248TIP3    H279236   5.760   4.159  11.201 -0.9461  0.4322 -0.4941
19249TIP3   OH279237   0.423   0.869  12.980 -0.2511  0.1480  0.0360
19249TIP3    H179238   0.382   0.831  13.057 -2.7218  2.0805 -0.1923
19249TIP3    H279239   0.377   0.830  12.905 -2.5751  2.9919 -0.2030
19250TIP3   OH279240   1.987   4.629   6.301 -0.6178  0.0404 -0.3954
19250TIP3    H179241   1.991   4.653   6.209 -2.3531 -1.2006 -0.8461
19250TIP3    H279242   1.902   4.663   6.331 -0.1501  0.2737  0.6876
19251TIP3   OH279243   0.474   4.817  10.829  0.0967 -0.0016 -0.0481
19251TIP3    H179244   0.438   4.733  10.859 -0.9613 -0.5646 -2.6224
19251TIP3    H279245   0.398   4.873  10.818  0.3947  0.1296 -1.6517
19252TIP3   OH279246   2.745   3.927  16.020  0.0777  0.8399  0.3043
19252TIP3    H179247   2.789   3.911  15.937  1.1465 -2.4450  1.3602
19252TIP3    H279248   2.786   4.006  16.055  1.3748  0.8379 -1.1475
19253TIP3   OH279249   4.654   0.019   4.906  0.3304 -0.0345  0.3675
19253TIP3    H179250   4.723   0.003   4.841  0.8417  2.3369  0.2368
19253TIP3    H279251   4.573  -0.009   4.863  0.8912 -0.3033 -0.5321
19254TIP3   OH279252   6.723   2.701  15.929  0.2612  0.0721 -0.6009
19254TIP3    H179253   6.809   2.742  15.939  0.1002 -0.1464  2.9264
19254TIP3    H279254   6.742   2.607  15.927  0.1231  0.0443 -0.5848
19255TIP3   OH279255   2.935   4.945   0.701  0.0875  0.9166  0.0831
19255TIP3    H179256   2.872   4.990   0.758  1.1100  2.0139  0.3754
19255TIP3    H279257   3.012   4.931   0.756  0.8359  1.3725 -0.8159
19256TIP3   OH279258   3.143   6.011  11.646  0.6244  0.5281 -0.5762
19256TIP3    H179259   3.136   6.073  11.719  1.4755 -1.1023  0.9503
19256TIP3    H279260   3.205   6.053  11.586 -0.4951  2.1392 -0.6935
19257TIP3   OH279261   1.467   4.897   2.943 -0.6355 -0.0890 -0.0066
19257TIP3    H179262   1.531   4.968   2.943 -0.6048 -0.1125 -0.5928
19257TIP3    H279263   1.433   4.895   3.033  0.1644 -0.0634  0.3007
19258TIP3   OH279264   4.936   6.018  16.555 -0.7382  0.0636 -0.0725
19258TIP3    H179265   4.965   5.958  16.486  0.7424  0.5069  0.1342
19258TIP3    H279266   4.977   6.102  16.532 -0.9304  0.4255  0.8800
19259TIP3   OH279267   0.400   4.343   3.964 -0.7361  0.2276  0.2605
19259TIP3    H179268   0.402   4.390   4.047  0.2711  2.5556 -0.9829
19259TIP3    H279269   0.490   4.349   3.931 -1.0508 -0.8872 -0.8782
19260TIP3   OH279270   4.180   4.465  11.393  0.3469  0.2662 -0.2833
19260TIP3    H179271   4.192   4.375  11.424  1.6163  0.9368  1.3488
19260TIP3    H279272   4.158   4.456  11.300 -1.1989 -1.7682  0.2183
19261TIP3   OH279273   3.405   6.166  13.729 -0.0200  0.3212 -0.3431
19261TIP3    H179274   3.479   6.199  13.677  0.1667 -0.6047 -0.6799
19261TIP3    H279275   3.445   6.130  13.808 -0.0983 -0.1847 -0.5272
19262TIP3   OH279276   3.816   6.076  12.958 -0.1912 -0.1176  0.1308
19262TIP3    H179277   3.886   6.032  13.007  0.2681 -0.2492 -0.6354
19262TIP3    H279278   3.837   6.060  12.866  0.6181  2.5760 -0.2637
19263TIP3   OH279279   0.963   0.882   0.798  0.3314 -0.1586 -0.1989
19263TIP3    H179280   0.921   0.925   0.724 -2.6036 -0.4024  1.1942
19263TIP3    H279281   0.922   0.795   0.802  0.5478 -0.2209  1.5826
19264TIP3   OH279282   3.464   6.628  14.358  0.4746 -0.3761 -0.0222
19264TIP3    H179283   3.388   6.657  14.307 -0.1804 -1.1157  0.5010
19264TIP3    H279284   3.435   6.633  14.449  0.3191 -2.5926  0.1018
19265TIP3   OH279285   1.321   4.319   4.829 -0.3017  0.2072 -0.3507
19265TIP3    H179286   1.374   4.339   4.906 -0.2424 -4.1048  0.9643
19265TIP3    H279287   1.383   4.323   4.756  0.5188  0.6875  0.3512
19266TIP3   OH279288   5.821   4.129   4.310 -0.8210 -0.1529  0.7518
19266TIP3    H179289   5.733   4.126   4.348 -0.4487  0.7384  1.7138
19266TIP3    H279290   5.877   4.161   4.381  0.2252 -0.3328  0.0325
19267TIP3   OH279291   3.082   3.727   1.413  0.1793 -0.3676 -0.4119
19267TIP3    H179292   3.022   3.687   1.350 -0.6182  0.4952 -0.2205
19267TIP3    H279293   3.168   3.720   1.372 -0.5111  1.7084 -2.4164
19268TIP3   OH279294   1.279   1.847  11.511 -0.6229 -0.0696 -0.3291
19268TIP3    H179295   1.246   1.937  11.505 -1.5332 -0.3688 -0.1094
19268TIP3    H279296   1.285   1.830  11.605 -1.6080 -0.6259 -0.3520
19269TIP3   OH279297   0.517   6.318   5.281 -0.2233 -0.0782  0.4997
19269TIP3    H179298   0.425   6.296   5.267 -0.5674  1.1125  0.7537
19269TIP3    H279299   0.542   6.268   5.359 -0.9455  0.3519  1.0195
19270TIP3   OH279300   0.087   5.810  13.845 -1.1135 -0.0309 -0.1267
19270TIP3    H179301   0.067   5.739  13.907  0.2348 -1.3048 -1.0792
19270TIP3    H279302   0.182   5.807  13.836 -1.2259  0.4885 -1.8254
19271TIP3   OH279303   0.565   6.658  15.549 -0.2106 -0.1606  0.1844
19271TIP3    H179304   0.568   6.564  15.565 -0.1703  0.0777  1.7623
19271TIP3    H279305   0.472   6.678  15.539 -0.1975 -0.4042 -0.4523
19272TIP3   OH279306   0.909   4.338   2.804  0.4113 -0.1108  0.0246
19272TIP3    H179307   0.832   4.283   2.811  0.4564 -0.2044 -0.2090
19272TIP3    H279308   0.902   4.399   2.878 -0.7160  0.9373 -0.9143
19273TIP3   OH279309   3.480   4.844   0.462  0.2029 -0.3825  0.0101
19273TIP3    H179310   3.476   4.770   0.523 -1.5263  0.5315  1.0915
19273TIP3    H279311   3.514   4.807   0.381 -0.4244 -2.3024  0.5787
19274TIP3   OH279312   5.402   2.054  17.200 -0.3276  0.1194  0.2835
19274TIP3    H179313   5.383   2.017  17.114 -2.5135 -0.0627  0.7835
19274TIP3    H279314   5.388   1.981  17.261  2.6312 -0.1768  0.7642
19275TIP3   OH279315   3.404   5.062   0.034  0.4572 -0.3737  0.1797
19275TIP3    H179316   3.356   5.006   0.096  1.2651 -0.3370  0.8474
19275TIP3    H279317   3.491   5.071   0.072  0.3326  1.3972  0.1207
19276TIP3   OH279318   0.913   5.782  11.654 -0.0190  0.5630  0.2172
19276TIP3    H179319   0.935   5.765  11.562  0.4076 -1.1257  0.5989
19276TIP3    H279320   0.916   5.878  11.662 -0.2033  0.7488 -1.5509
19277TIP3   OH279321   0.543   0.913   2.834 -0.3043 -0.1121  0.3416
19277TIP3    H179322   0.462   0.875   2.868 -1.0290 -0.0065 -1.1605
19277TIP3    H279323   0.581   0.959   2.908 -1.0588 -1.0647  1.3614
19278TIP3   OH279324   5.352   2.644   3.789 -0.7115  0.0157  0.0243
19278TIP3    H179325   5.298   2.570   3.762 -0.6663 -0.2835  0.7317
19278TIP3    H279326   5.297   2.721   3.775 -0.4774 -0.0584 -1.4737
19279TIP3   OH279327   4.600   4.275   5.099  0.0619  0.2235 -0.3472
19279TIP3    H179328   4.606   4.370   5.095  3.4634  0.1650  0.3574
19279TIP3    H279329   4.687   4.244   5.073 -1.3094 -2.7813 -1.8414
19280TIP3   OH279330   2.454   2.776  15.597 -0.5169  0.0030 -0.1093
19280TIP3    H179331   2.413   2.800  15.514 -2.7052 -0.2310  0.8355
19280TIP3    H279332   2.438   2.851  15.655  1.1895  0.2652  0.0766
19281TIP3   OH279333   4.068   0.404   2.460 -0.0650 -0.6238 -0.0330
19281TIP3    H179334   4.117   0.429   2.538 -0.8881 -0.4346  0.4342
19281TIP3    H279335   4.104   0.319   2.435  1.0882 -0.1120 -0.2088
19282TIP3   OH279336   5.916   3.738  14.769 -0.1996  0.0868 -0.0885
19282TIP3    H179337   5.871   3.801  14.714 -1.0554 -0.1418  0.3262
19282TIP3    H279338   5.900   3.768  14.858  0.1134 -0.2412  0.0829
19283TIP3   OH279339   4.345   0.999   6.341 -0.3392  0.4662 -0.5899
19283TIP3    H179340   4.414   0.986   6.276  0.3161  0.9850 -0.0187
19283TIP3    H279341   4.311   0.912   6.359  0.3764  0.1703 -0.6580
19284TIP3   OH279342   3.486   1.634  14.697  0.3671  0.2435 -0.1600
19284TIP3    H179343   3.465   1.542  14.681  2.9223 -0.1919 -1.4494
19284TIP3    H279344   3.539   1.632  14.776  2.0256  0.3255 -1.2314
19285TIP3   OH279345   5.408   1.482   3.981 -0.0037 -0.3757  0.1522
19285TIP3    H179346   5.422   1.499   4.074  0.0308 -1.3646  0.3360
19285TIP3    H279347   5.313   1.475   3.972  0.0035 -0.4783  0.1517
19286TIP3   OH279348   3.483   3.027   3.181  0.1846  0.2920 -0.0269
19286TIP3    H179349   3.394   3.061   3.166 -0.7545 -1.4571  1.1726
19286TIP3    H279350   3.507   2.987   3.097  0.4625  2.0222 -0.8036
19287TIP3   OH279351   4.063   5.653  13.413 -0.1652  0.1735  0.2343
19287TIP3    H179352   4.054   5.688  13.324 -1.1085  0.2251  0.3375
19287TIP3    H279353   3.976   5.619  13.434 -0.0166  0.3858  1.2334
19288TIP3   OH279354   0.800   4.230  14.226  0.1002 -0.2668  0.0722
19288TIP3    H179355   0.836   4.317  14.244  1.6899 -0.6582 -0.9969
19288TIP3    H279356   0.813   4.181  14.307 -0.6807  0.4437  0.6353
19289TIP3   OH279357   0.204   6.043  16.394 -0.2220  0.5358 -0.5134
19289TIP3    H179358   0.204   6.021  16.487 -0.9214 -0.2825 -0.7012
19289TIP3    H279359   0.278   6.104  16.384  0.9256 -0.6915  0.2468
19290TIP3   OH279360   0.785   5.069  11.444  0.5725  0.1827  0.0576
19290TIP3    H179361   0.700   5.050  11.486  0.7178  0.9589  0.7307
19290TIP3    H279362   0.830   4.984  11.443  0.5824  0.1347  1.5390
19291TIP3   OH279363   5.392   5.184   5.957 -1.2230 -0.2244  0.3541
19291TIP3    H179364   5.387   5.211   6.049 -2.6771  0.1171  0.2075
19291TIP3    H279365   5.303   5.197   5.924 -1.2001 -2.1204 -0.6100
19292TIP3   OH279366   1.340   0.384   1.030 -0.1224 -0.1757 -0.3671
19292TIP3    H179367   1.341   0.288   1.032 -1.0932 -0.2109 -1.1142
19292TIP3    H279368   1.248   0.407   1.018 -0.5017  0.9732  3.4716
19293TIP3   OH279369   2.183   3.616   6.519 -0.8453  0.0573 -0.9767
19293TIP3    H179370   2.140   3.530   6.518  1.1731 -1.0304  0.0164
19293TIP3    H279371   2.123   3.672   6.568 -2.0964 -0.8178 -1.4386
19294TIP3   OH279372   1.909   4.653   0.644  0.6862 -0.1520  0.2904
19294TIP3    H179373   1.962   4.612   0.712  0.4078  1.8333  1.7797
19294TIP3    H279374   1.970   4.709   0.596  0.7865 -1.2013 -0.8752
19295TIP3   OH279375   6.045   2.546  11.229 -0.3196 -0.2863 -0.8395
19295TIP3    H179376   6.133   2.580  11.216  0.2861 -1.7776 -0.8954
19295TIP3    H279377   5.996   2.578  11.154  0.5271 -0.5080 -1.5073
19296TIP3   OH279378   6.224   3.839  15.991 -1.1172 -0.2705 -0.2432
19296TIP3    H179379   6.245   3.883  16.074  0.0015  0.3282 -0.8292
19296TIP3    H279380   6.203   3.749  16.017  0.5227 -0.4492  0.5672
19297TIP3   OH279381   0.178   6.707  11.620 -0.1067 -0.4195 -0.2019
19297TIP3    H179382   0.122   6.665  11.684 -0.2269 -0.0588 -0.0687
19297TIP3    H279383   0.253   6.648  11.611 -1.2573 -1.7247 -1.5972
19298TIP3   OH279384   1.653   0.572   0.367  0.7187 -0.4695  0.0780
19298TIP3    H179385   1.564   0.588   0.337  0.0165 -0.1455  2.1710
19298TIP3    H279386   1.669   0.480   0.347  0.6074 -0.0755 -1.9410
19299TIP3   OH279387   4.258   1.535   3.465  0.5479 -0.0147 -0.6657
19299TIP3    H179388   4.171   1.544   3.425 -0.0231  0.4349  0.6001
19299TIP3    H279389   4.288   1.449   3.438 -0.1744 -0.0602 -1.3650
19300TIP3   OH279390   4.478   2.321   5.889  0.7616 -0.2033  0.3286
19300TIP3    H179391   4.417   2.286   5.824  0.5008  0.3508  0.2736
19300TIP3    H279392   4.491   2.248   5.951  1.9951 -1.1663 -1.0089
19301TIP3   OH279393   3.248   3.015  14.212  0.1557  0.7668 -0.1302
19301TIP3    H179394   3.271   3.006  14.305  0.5709  1.0688 -0.1990
19301TIP3    H279395   3.322   2.976  14.165 -1.2958 -2.0079 -0.3237
19302TIP3   OH279396   5.827   3.721   0.191 -0.0632 -0.0776 -0.1133
19302TIP3    H179397   5.836   3.803   0.142  1.0169  0.0098  0.2172
19302TIP3    H279398   5.790   3.748   0.276 -1.6611 -0.1978 -0.7215
19303TIP3   OH279399   2.134   2.511  11.863  0.0611 -0.1816 -0.2041
19303TIP3    H179400   2.220   2.470  11.861  0.1905  0.1015 -0.5561
19303TIP3    H279401   2.103   2.507  11.772  0.3737  1.1214 -0.3922
19304TIP3   OH279402   3.202   0.040   5.465 -0.1229 -0.0004  0.3539
19304TIP3    H179403   3.137   0.036   5.394 -2.4662 -0.0647  2.3798
19304TIP3    H279404   3.178   0.118   5.515  2.2705  0.7538  0.4387
19305TIP3   OH279405   5.831   1.455   3.775  0.1798 -0.4170  0.0826
19305TIP3    H179406   5.890   1.381   3.765  0.2055 -0.4831  0.6687
19305TIP3    H279407   5.754   1.419   3.819  0.6062  0.0907  1.2893
19306TIP3   OH279408   3.703   1.853   4.321 -0.1230 -0.1039  0.3034
19306TIP3    H179409   3.795   1.879   4.325 -0.0048 -0.3350 -0.6545
19306TIP3    H279410   3.662   1.919   4.264 -0.0808 -1.2452 -1.1145
19307TIP3   OH279411   6.624   5.409   4.123 -0.0720 -0.8672 -0.0069
19307TIP3    H179412   6.579   5.441   4.044  0.1581  4.2504  1.5352
19307TIP3    H279413   6.716   5.433   4.109 -0.4954  3.6811  2.8853
19308TIP3   OH279414   3.040   0.725   0.009 -0.5169  1.0922  0.5323
19308TIP3    H179415   2.958   0.746   0.054 -2.0685 -0.5658 -1.3376
19308TIP3    H279416   3.014   0.706  -0.081  1.8001 -0.4542  0.1038
19309TIP3   OH279417   2.526   5.477  11.470 -0.5154  0.7066 -0.3937
19309TIP3    H179418   2.453   5.538  11.480 -0.9995 -0.0164  0.7885
19309TIP3    H279419   2.484   5.391  11.462  0.2003  0.2852  0.2796
19310TIP3   OH279420   6.522   1.417   3.095 -0.0661  0.7490  0.2899
19310TIP3    H179421   6.537   1.359   3.020 -2.1587 -1.8497  1.6840
19310TIP3    H279422   6.490   1.498   3.057 -0.0244 -0.1001 -1.6612
19311TIP3   OH279423   2.528   0.892   5.420 -0.2839  1.0231  0.1920
19311TIP3    H179424   2.597   0.828   5.434  1.2656  1.9114 -2.5935
19311TIP3    H279425   2.525   0.943   5.502  3.2183  1.6680  0.0722
19312TIP3   OH279426   2.826   5.187   4.502 -0.2887 -0.0471  0.0871
19312TIP3    H179427   2.778   5.268   4.486 -0.9480 -0.8062 -2.0837
19312TIP3    H279428   2.907   5.198   4.452 -0.2703 -0.6387 -0.0125
19313TIP3   OH279429   4.031   2.939  12.793  0.0202  0.1590 -0.2325
19313TIP3    H179430   4.071   2.853  12.776 -0.5313 -0.1127 -0.1902
19313TIP3    H279431   4.030   2.982  12.708  1.7468  0.7764  0.0114
19314TIP3   OH279432   1.516   6.461   2.408  0.2070  0.1297  0.1949
19314TIP3    H179433   1.465   6.541   2.394 -1.7395 -1.0272  0.1969
19314TIP3    H279434   1.486   6.428   2.493  1.4850 -0.2549  0.5195
19315TIP3   OH279435   6.007   5.823   2.434  0.0579 -0.6296 -0.4080
19315TIP3    H179436   5.934   5.761   2.429  0.6792 -1.4297  0.1605
19315TIP3    H279437   6.023   5.831   2.528  1.4212 -1.3270 -0.5659
19316TIP3   OH279438   6.413   3.293  10.843 -0.2481 -0.0225  0.9368
19316TIP3    H179439   6.438   3.385  10.831 -0.8757  0.2674  1.8148
19316TIP3    H279440   6.439   3.251  10.761  1.4181  0.6246  1.0991
19317TIP3   OH279441   1.525   5.716   6.559  0.4248 -0.1069 -0.7854
19317TIP3    H179442   1.577   5.669   6.494  0.8862  1.2749 -1.4561
19317TIP3    H279443   1.470   5.775   6.507 -0.6214 -0.3531  0.0018
19318TIP3   OH279444   5.325   6.536  17.099 -0.4054 -0.3889  0.0950
19318TIP3    H179445   5.243   6.514  17.144 -0.4877 -0.6126 -0.1627
19318TIP3    H279446   5.328   6.632  17.100 -0.7547 -0.3766 -0.0471
19319TIP3   OH279447   5.485   2.445  14.001  0.0360  0.2791  0.2958
19319TIP3    H179448   5.463   2.442  14.094 -0.5377  0.8062  0.1805
19319TIP3    H279449   5.560   2.385  13.993 -0.4257 -0.4119  0.9459
19320TIP3   OH279450   5.101   1.846   0.939  0.2319 -0.4778 -0.0991
19320TIP3    H179451   5.105   1.770   0.998 -1.2031 -3.1083 -3.0942
19320TIP3    H279452   5.188   1.851   0.901  0.1843 -1.0348 -0.2987
19321TIP3   OH279453   4.033   1.105   6.096  0.4061  0.0829  0.1742
19321TIP3    H179454   4.112   1.151   6.124  0.1190 -0.6483  2.2900
19321TIP3    H279455   4.039   1.019   6.136 -1.0508 -0.2940 -0.3583
19322TIP3   OH279456   1.806   0.549   1.813 -0.0998  0.4701 -0.7471
19322TIP3    H179457   1.794   0.458   1.840  1.1803  0.4049 -0.2930
19322TIP3    H279458   1.901   0.563   1.820 -0.1061  1.4107 -2.2087
19323TIP3   OH279459   3.651   3.435  12.091  0.0665  0.1537  0.0394
19323TIP3    H179460   3.639   3.511  12.149  0.5018 -0.1974  0.5929
19323TIP3    H279461   3.561   3.407  12.072 -0.1078 -1.0513  2.3175
19324TIP3   OH279462   4.183   2.609  15.725  0.1244 -0.3414 -0.3415
19324TIP3    H179463   4.264   2.599  15.675 -0.0519  0.2587 -0.7670
19324TIP3    H279464   4.133   2.674  15.675 -1.0769 -1.4875 -0.6735
19325TIP3   OH279465   2.022   4.549   3.706  0.4715 -0.9848  0.5876
19325TIP3    H179466   2.110   4.536   3.672 -0.2514  0.5874 -2.2904
19325TIP3    H279467   1.967   4.494   3.649 -0.5136 -1.1686  1.6847
19326TIP3   OH279468   1.204   3.888  14.749 -0.4958  0.4040  0.2064
19326TIP3    H179469   1.196   3.897  14.654  0.2865  1.1427  0.2091
19326TIP3    H279470   1.148   3.812  14.770  0.4891 -0.7065 -1.0184
19327TIP3   OH279471   2.457   0.162   2.791  0.2648  0.0679  0.0278
19327TIP3    H179472   2.460   0.192   2.700 -0.9650 -1.5582 -0.5940
19327TIP3    H279473   2.367   0.132   2.804  0.8620 -1.3342  1.2305
19328TIP3   OH279474   5.824   2.760   5.789  0.2638 -0.5122 -0.5502
19328TIP3    H179475   5.856   2.784   5.876  1.2833  0.1817 -1.0943
19328TIP3    H279476   5.822   2.843   5.740  3.1977 -1.2895 -2.2620
19329TIP3   OH279477   3.830   6.642   1.657  0.3625 -0.5073  0.3718
19329TIP3    H179478   3.773   6.582   1.705 -1.3662  1.0455  0.4085
19329TIP3    H279479   3.840   6.717   1.716 -0.0922  0.5325 -0.8273
19330TIP3   OH279480   5.869   3.979  14.034 -0.0252 -0.3227  0.0669
19330TIP3    H179481   5.824   4.059  14.060 -0.4682 -0.1440 -1.1914
19330TIP3    H279482   5.920   4.004  13.957  0.4968 -1.0605  0.1561
19331TIP3   OH279483   2.262   6.609   4.008 -0.3072 -0.3378 -0.6973
19331TIP3    H179484   2.319   6.534   3.989 -0.1542 -0.3458 -0.2338
19331TIP3    H279485   2.195   6.573   4.067  0.1440  0.0329  0.0477
19332TIP3   OH279486   1.364   5.647  14.114 -0.3702  0.1648 -0.1114
19332TIP3    H179487   1.392   5.567  14.159 -1.0503  0.4908  0.9303
19332TIP3    H279488   1.304   5.618  14.046 -1.0730 -0.1686  0.6453
19333TIP3   OH279489   1.936   4.197  13.775 -0.1820  0.3929  0.2169
19333TIP3    H179490   1.916   4.143  13.698  0.6899  1.0271 -0.4836
19333TIP3    H279491   1.952   4.134  13.845 -1.7783 -0.1800  0.0995
19334TIP3   OH279492   0.293   5.925   0.740  0.3961  0.7785 -0.5178
19334TIP3    H179493   0.216   5.870   0.750 -1.5520  3.3553 -0.1588
19334TIP3    H279494   0.321   5.946   0.829  1.2632  0.2256 -0.6460
19335TIP3   OH279495   2.523   0.968   1.702  0.2353  0.2601  0.6034
19335TIP3    H179496   2.578   0.910   1.650  0.5035  1.1147 -0.0804
19335TIP3    H279497   2.479   0.910   1.764 -1.8692 -1.1355 -2.0151
19336TIP3   OH279498   0.185   4.374   3.791 -0.1067 -0.1250 -0.0754
19336TIP3    H179499   0.242   4.385   3.715 -0.6871  1.1163 -0.3574
19336TIP3    H279500   0.242   4.390   3.866  0.1263  0.2109 -0.3178
19337TIP3   OH279501   2.809   6.521  12.304  0.3511  0.3938 -0.4818
19337TIP3    H179502   2.726   6.476  12.287  0.7458 -0.0606 -1.2934
19337TIP3    H279503   2.854   6.520  12.219  1.4064  0.1605  0.0692
19338TIP3   OH279504   1.510   1.696   0.223 -0.3022  0.0739  0.2622
19338TIP3    H179505   1.474   1.670   0.138 -0.2748 -1.8288  0.7750
19338TIP3    H279506   1.472   1.634   0.285  0.3663  0.8652  1.5116
19339TIP3   OH279507   4.482   1.262   0.574  0.0751  0.4346 -0.1367
19339TIP3    H179508   4.544   1.313   0.626 -0.3823  1.1506 -0.2900
19339TIP3    H279509   4.397   1.276   0.616 -0.2850  0.9554 -1.0229
19340TIP3   OH279510   6.069   0.788   4.466  0.3677  0.7522  0.0122
19340TIP3    H179511   6.125   0.730   4.415 -0.4843  1.0010 -1.2561
19340TIP3    H279512   6.055   0.864   4.410 -2.1092  0.2154 -0.2288
19341TIP3   OH279513   5.326   5.265   6.218  0.3080  0.3669  0.1335
19341TIP3    H179514   5.303   5.261   6.311 -2.0976  0.0801 -0.4075
19341TIP3    H279515   5.385   5.340   6.212  0.2268  0.6219  1.8481
19342TIP3   OH279516   4.022   2.440   0.711  0.4825 -0.2820  0.2667
19342TIP3    H179517   4.110   2.478   0.704  0.2745  0.6282  1.8838
19342TIP3    H279518   4.025   2.391   0.793 -1.2162  1.9002  1.7398
19343TIP3   OH279519   6.229   1.113   0.339 -0.6317  0.2988 -0.1261
19343TIP3    H179520   6.269   1.141   0.256 -3.6458  1.5156 -1.2894
19343TIP3    H279521   6.284   1.153   0.407  1.6825 -0.3834 -1.4673
19344TIP3   OH279522   3.100   1.571   6.701  0.1498 -0.7621 -0.0035
19344TIP3    H179523   3.044   1.615   6.765 -1.6819  0.1018 -2.0646
19344TIP3    H279524   3.109   1.481   6.734  1.9581  0.3498  3.0399
19345TIP3   OH279525   4.207   2.742   3.166  0.1364  0.2757 -0.0522
19345TIP3    H179526   4.200   2.799   3.242 -1.0785 -1.1311  0.9424
19345TIP3    H279527   4.198   2.653   3.201 -0.4696 -0.4208 -1.8408
19346TIP3   OH279528   5.338   1.888  13.523 -0.0048  0.0477 -0.3643
19346TIP3    H179529   5.245   1.893  13.546 -0.1268 -0.5501 -0.7178
19346TIP3    H279530   5.352   1.963  13.466 -0.1871  0.3386 -0.0345
19347TIP3   OH279531   1.217   6.275  16.575 -0.0826  0.3725  0.5343
19347TIP3    H179532   1.148   6.209  16.568  0.2528 -0.2438  2.4432
19347TIP3    H279533   1.295   6.232  16.542 -0.3347  0.6288 -0.4145
19348TIP3   OH279534   6.625   6.427   3.662 -0.4254  0.3712 -0.5788
19348TIP3    H179535   6.628   6.380   3.578 -1.1395  0.0624 -0.4348
19348TIP3    H279536   6.550   6.485   3.655 -0.5364  0.2863 -0.1222
19349TIP3   OH279537   4.755   1.663  11.653 -0.5110 -0.2735  0.4695
19349TIP3    H179538   4.792   1.721  11.719 -0.3292 -0.8169  0.8531
19349TIP3    H279539   4.661   1.677  11.659 -0.3934  1.4553 -0.8258
19350TIP3   OH279540   0.579   2.534   2.973 -0.0646  0.0332 -0.7462
19350TIP3    H179541   0.519   2.510   3.044  0.6849 -0.7987 -0.3718
19350TIP3    H279542   0.524   2.538   2.895 -0.4750 -1.5383 -0.5628
19351TIP3   OH279543   2.724   2.090  12.684 -0.0363 -0.4383  0.2306
19351TIP3    H179544   2.810   2.098  12.642 -0.3810  0.8173 -0.2696
19351TIP3    H279545   2.710   1.995  12.690  0.7164 -0.6629 -1.0792
19352TIP3   OH279546   5.694   2.109  12.256  0.5003 -0.1934  0.4165
19352TIP3    H179547   5.686   2.065  12.171 -0.7175 -0.0376  0.4343
19352TIP3    H279548   5.781   2.150  12.253  0.8498 -0.9362 -0.3848
19353TIP3   OH279549   6.315   2.633  11.183 -0.0451 -0.4525 -0.5544
19353TIP3    H179550   6.316   2.638  11.087  1.2123 -2.0645 -0.6785
19353TIP3    H279551   6.397   2.589  11.205  0.1017  0.6561  1.3417
19354TIP3   OH279552   0.148   5.859   1.651 -0.3263  0.5901 -0.1750
19354TIP3    H179553   0.065   5.818   1.626 -1.1594  1.2056  1.3984
19354TIP3    H279554   0.214   5.792   1.636 -1.7169 -1.7343  3.0017
19355TIP3   OH279555   3.166   0.491   3.130 -0.3054  0.4578  0.8218
19355TIP3    H179556   3.118   0.471   3.210 -0.7036 -2.1562  0.0258
19355TIP3    H279557   3.098   0.508   3.065 -0.1722 -1.3006  0.1640
19356TIP3   OH279558   5.660   4.580   5.979 -0.0081  0.0934 -0.4338
19356TIP3    H179559   5.612   4.532   6.047  2.1408 -0.1473  0.9876
19356TIP3    H279560   5.701   4.511   5.927 -0.1502  0.3342 -0.8702
19357TIP3   OH279561   0.914   2.453   4.544 -0.1291  0.0771  0.1065
19357TIP3    H179562   0.914   2.359   4.561 -0.9549  0.1020  0.2878
19357TIP3    H279563   0.962   2.491   4.618 -0.3297 -0.1526  0.3543
19358TIP3   OH279564   1.737   0.355  13.267  0.0408  0.5043  0.1279
19358TIP3    H179565   1.644   0.370  13.285  0.2521  1.4354  0.4591
19358TIP3    H279566   1.781   0.436  13.293  1.2843 -0.7980  2.4265
19359TIP3   OH279567   5.053   5.382  16.690 -0.0201 -0.5129  0.4118
19359TIP3    H179568   5.061   5.306  16.748  2.8870 -0.8283 -0.2215
19359TIP3    H279569   5.036   5.455  16.748  0.6191 -1.1622  1.4449
19360TIP3   OH279570   3.994   3.989  12.274  0.9528  0.2442 -0.0866
19360TIP3    H179571   4.042   4.047  12.216  0.8207  1.3483  0.8825
19360TIP3    H279572   3.966   3.916  12.218  0.5469  1.4291 -1.4613
19361TIP3   OH279573   5.740   5.279   3.728  0.5533  0.7043  0.1834
19361TIP3    H179574   5.833   5.297   3.720  0.4482  1.5989  0.8302
19361TIP3    H279575   5.731   5.231   3.810  0.3400  1.4985  0.6348
19362TIP3   OH279576   6.140   5.682   5.659 -0.0693  0.4302 -0.1168
19362TIP3    H179577   6.082   5.609   5.635  0.0980  0.5701 -0.9646
19362TIP3    H279578   6.226   5.656   5.627 -0.1131  1.2352 -0.9197
19363TIP3   OH279579   3.637   2.141  12.151  0.4235 -0.1055  0.2293
19363TIP3    H179580   3.649   2.094  12.233 -1.1099  0.4274  0.7999
19363TIP3    H279581   3.626   2.072  12.085  1.7028 -0.5341  0.4449
19364TIP3   OH279582   1.307   5.674  12.517  0.2855  0.6603 -0.0215
19364TIP3    H179583   1.350   5.651  12.434 -0.0070  0.0848 -0.0178
19364TIP3    H279584   1.297   5.769  12.513  1.1421  0.7572 -0.2250
19365TIP3   OH279585   6.720   0.620  15.661  0.5022  0.0455  0.3430
19365TIP3    H179586   6.774   0.563  15.716  1.1982 -2.8601 -2.9727
19365TIP3    H279587   6.769   0.628  15.579 -1.1455  2.8260 -0.5114
19366TIP3   OH279588   0.942   5.811   4.355  0.0652  0.1348  0.5838
19366TIP3    H179589   0.854   5.808   4.317  0.0957 -1.8777  0.5646
19366TIP3    H279590   0.997   5.764   4.292  0.6042 -1.0285  1.8771
19367TIP3   OH279591   1.505   4.814   3.996  0.4108  0.3073 -0.4024
19367TIP3    H179592   1.525   4.798   4.089 -0.2563  0.3983 -0.2333
19367TIP3    H279593   1.585   4.853   3.961  0.6402  0.3644  0.1620
19368TIP3   OH279594   1.496   5.833  13.698  0.2050  0.1433  0.0970
19368TIP3    H179595   1.558   5.845  13.770  0.3520  0.0361 -0.0094
19368TIP3    H279596   1.422   5.788  13.739  0.7400 -0.8968 -0.0262
19369TIP3   OH279597   6.795   1.729  16.613 -0.2174  0.2573 -0.2573
19369TIP3    H179598   6.784   1.708  16.520 -0.2279  0.4410 -0.2974
19369TIP3    H279599   6.876   1.686  16.638 -0.2831  0.0953 -0.3184
19370TIP3   OH279600   0.851   2.268   1.480  0.3286 -0.0889  0.0662
19370TIP3    H179601   0.869   2.195   1.421 -1.0184  0.8766 -1.6261
19370TIP3    H279602   0.757   2.284   1.470  0.2991  0.8873  1.6076
19371TIP3   OH279603   1.800   1.037   5.522  0.3641  0.0337  0.0880
19371TIP3    H179604   1.748   1.046   5.443 -0.2611 -0.0318  0.4865
19371TIP3    H279605   1.867   0.972   5.500  1.1777  1.1553 -0.8780
19372TIP3   OH279606   4.147   6.658   4.828  0.3496 -0.3457 -0.5259
19372TIP3    H179607   4.146   6.710   4.908  2.5039 -2.2765  0.8865
19372TIP3    H279608   4.103   6.576   4.851  1.7931 -1.2947 -0.9688
19373TIP3   OH279609   1.781   5.166  11.409  0.1091  0.1957  0.8142
19373TIP3    H179610   1.868   5.139  11.437  0.3650  1.9639  1.9044
19373TIP3    H279611   1.777   5.145  11.316  1.2376 -1.0088  1.0240
19374TIP3   OH279612   4.953   6.009   2.112 -0.2976  0.3146  0.3077
19374TIP3    H179613   4.963   6.102   2.130 -1.9526  0.9844 -1.7806
19374TIP3    H279614   4.890   5.978   2.177  2.2273 -0.0820  2.7553
19375TIP3   OH279615   0.175   5.386  13.996 -0.3125 -0.1928 -1.0470
19375TIP3    H179616   0.251   5.394  13.938 -1.1877  1.1170 -2.0778
19375TIP3    H279617   0.143   5.476  14.006 -0.3180 -0.4046  1.3561
19376TIP3   OH279618   6.330   6.650  15.404  0.0915  0.3904 -0.2661
19376TIP3    H179619   6.390   6.653  15.330  1.4135  0.2361  0.7703
19376TIP3    H279620   6.359   6.720  15.462  0.7670 -1.1422  1.3416
19377TIP3   OH279621   2.380   5.382  12.342 -0.1341  1.0352  0.7041
19377TIP3    H179622   2.286   5.384  12.325 -0.3988 -0.0900  1.8778
19377TIP3    H279623   2.394   5.302  12.393  1.7463  0.1574 -1.0290
19378TIP3   OH279624   1.920   3.271  13.325  0.0198  0.2701 -0.8385
19378TIP3    H179625   1.938   3.224  13.244 -0.7238 -1.9768  0.2234
19378TIP3    H279626   1.831   3.304  13.314  0.5087  1.3930 -1.5521
19379TIP3   OH279627   0.094   4.977  16.142  0.1309 -0.5140  0.2407
19379TIP3    H179628   0.118   5.065  16.111 -1.4420 -0.3123 -0.5001
19379TIP3    H279629   0.158   4.919  16.102 -0.7625 -0.0552 -2.0096
19380TIP3   OH279630   6.416   6.032  13.041 -0.2934  0.5168 -1.3207
19380TIP3    H179631   6.491   6.070  13.088  0.3732 -0.9056 -1.1882
19380TIP3    H279632   6.419   6.073  12.955  1.3036 -0.2530 -1.6870
19381TIP3   OH279633   6.517   0.008   2.219 -0.5447 -0.3047 -0.1105
19381TIP3    H179634   6.430  -0.026   2.237 -0.4395 -0.7299 -0.4047
19381TIP3    H279635   6.576  -0.063   2.243 -0.2891 -0.0993 -0.1229
19382TIP3   OH279636   3.238   2.666   4.735 -0.7697 -0.3513  0.2306
19382TIP3    H179637   3.262   2.584   4.693 -0.1053  0.2527 -0.6106
19382TIP3    H279638   3.299   2.730   4.699 -1.0180  0.4413  1.1731
19383TIP3   OH279639   2.152   1.851   2.011  0.8543 -0.5541  0.2573
19383TIP3    H179640   2.130   1.944   2.007  3.2490  0.0961  0.8297
19383TIP3    H279641   2.172   1.834   2.103  0.6780 -1.6009  0.1246
19384TIP3   OH279642   6.530   1.421  13.038 -0.1358  0.5525  0.0942
19384TIP3    H179643   6.599   1.394  13.099  0.5961  1.0020 -0.5080
19384TIP3    H279644   6.483   1.341  13.016  0.4596  0.1700  0.2023
19385TIP3   OH279645   6.304   2.027   1.296  0.0360 -0.2031 -0.3517
19385TIP3    H179646   6.227   1.970   1.291 -0.4394  0.4585 -0.7506
19385TIP3    H279647   6.339   2.011   1.384  0.6524 -2.0240 -0.8815
19386TIP3   OH279648   2.807   0.038  11.325 -0.0397  0.8521 -0.3681
19386TIP3    H179649   2.713   0.020  11.328 -0.5148  2.8565 -1.3799
19386TIP3    H279650   2.848  -0.048  11.317 -1.8680  0.0130 -1.2586
19387TIP3   OH279651   0.521   3.131  12.122 -0.0463  0.8396 -0.2664
19387TIP3    H179652   0.433   3.148  12.089 -0.0327  0.1633 -0.6768
19387TIP3    H279653   0.565   3.216  12.120 -0.9608  1.3693  0.8096
19388TIP3   OH279654   6.184   3.633   5.621 -0.0223 -0.5205  0.4067
19388TIP3    H179655   6.156   3.723   5.637 -1.2710 -0.7514 -0.3402
19388TIP3    H279656   6.233   3.638   5.539  0.7018 -0.3798  0.8451
19389TIP3   OH279657   5.992   1.538  16.924  0.2083  0.5853  0.3118
19389TIP3    H179658   6.082   1.571  16.928  1.0104 -1.5179  1.0438
19389TIP3    H279659   5.972   1.515  17.014 -0.1548 -1.2047 -0.2005
19390TIP3   OH279660   1.714   5.571   3.912  0.6006  0.1140 -0.1199
19390TIP3    H179661   1.623   5.543   3.901  0.1423  1.7211 -0.7282
19390TIP3    H279662   1.765   5.508   3.860 -0.5121  1.1189 -2.6011
19391TIP3   OH279663   6.692   5.463  13.743 -0.2673  0.5078 -0.0638
19391TIP3    H179664   6.624   5.431  13.683  1.6695 -2.5766 -0.8708
19391TIP3    H279665   6.720   5.546  13.706 -3.3311  1.8057  0.1962
19392TIP3   OH279666   3.268   2.915   1.343  0.3875 -0.0709  0.3114
19392TIP3    H179667   3.354   2.889   1.376  0.1325 -0.7514  0.4624
19392TIP3    H279668   3.268   3.010   1.346  0.1035 -0.0813  3.0140
19393TIP3   OH279669   3.161   4.659  14.634 -0.0788  0.1090 -0.3371
19393TIP3    H179670   3.234   4.690  14.581  0.8446  1.3587  1.5550
19393TIP3    H279671   3.161   4.564  14.622  1.4514  0.1524 -0.8802
19394TIP3   OH279672   2.415   0.004   0.628 -0.2400  0.0347  0.4525
19394TIP3    H179673   2.410   0.043   0.716  0.2499  0.7089  0.1896
19394TIP3    H279674   2.437   0.078   0.571  0.1261 -0.5257 -0.1386
19395TIP3   OH279675   2.624   2.993  13.962 -0.2582 -0.0744  0.2063
19395TIP3    H179676   2.564   2.920  13.947 -0.0595 -0.8567  2.7319
19395TIP3    H279677   2.568   3.071  13.960 -0.4909 -0.2004 -2.3875
19396TIP3   OH279678   6.636   6.314   3.011 -0.2321  0.2127 -0.4577
19396TIP3    H179679   6.701   6.327   3.080  0.0772 -0.0445 -0.6930
19396TIP3    H279680   6.616   6.402   2.980 -0.1431  0.3078 -0.2448
19397TIP3   OH279681   3.436   3.341  11.906  0.0626  0.2076 -0.3561
19397TIP3    H179682   3.445   3.345  11.811 -1.5794  0.5247 -0.5265
19397TIP3    H279683   3.348   3.307  11.920  0.6917 -0.9320  1.0735
19398TIP3   OH279684   3.752   6.505   4.435  0.0334  0.2565 -0.3372
19398TIP3    H179685   3.716   6.528   4.349  1.4049  0.2566 -0.9364
19398TIP3    H279686   3.686   6.448   4.474 -1.4422  1.7027 -0.6228
19399TIP3   OH279687   0.275   1.167  15.080  0.3402 -0.5420 -0.0050
19399TIP3    H179688   0.239   1.082  15.105 -0.9794 -0.1405 -0.4443
19399TIP3    H279689   0.208   1.205  15.022  1.7185  0.0219 -1.3023
19400TIP3   OH279690   6.303   4.786   5.392 -0.0981  0.1851  0.1785
19400TIP3    H179691   6.234   4.750   5.337 -0.4404  1.2980 -0.1432
19400TIP3    H279692   6.366   4.825   5.331  0.0680  0.4672  0.5221
19401TIP3   OH279693   0.587   4.222   1.473 -0.0361  0.0762  0.3045
19401TIP3    H179694   0.651   4.275   1.520  1.7331 -1.0859 -0.7007
19401TIP3    H279695   0.629   4.138   1.461 -1.2005 -0.2962 -1.6264
19402TIP3   OH279696   3.569   2.939   2.382 -0.1468  0.3104 -0.2301
19402TIP3    H179697   3.477   2.922   2.403  0.2491  0.5141  1.8850
19402TIP3    H279698   3.592   3.015   2.435  0.8931  1.1541 -1.8031
19403TIP3   OH279699   4.238   1.649  14.501  0.1812  0.2418  0.2046
19403TIP3    H179700   4.213   1.705  14.575  1.5911 -0.5854  1.3575
19403TIP3    H279701   4.323   1.682  14.473  1.6035 -1.9420  1.6571
19404TIP3   OH279702   1.912   5.117  13.361  0.3254 -0.6026  0.2312
19404TIP3    H179703   1.842   5.177  13.387 -0.7257 -1.9727  0.6768
19404TIP3    H279704   1.983   5.136  13.422 -0.0337  0.0977  0.4479
19405TIP3   OH279705   0.889   0.485  12.321  0.4234 -0.6028 -0.0630
19405TIP3    H179706   0.883   0.450  12.410 -0.0674  0.9108  0.5418
19405TIP3    H279707   0.929   0.571  12.332 -0.0435 -0.2146 -1.2501
19406TIP3   OH279708   5.866   5.420  11.537 -0.2588  0.4890  0.3623
19406TIP3    H179709   5.782   5.466  11.535  0.8726  2.6667  0.5624
19406TIP3    H279710   5.923   5.472  11.481  0.7433 -1.5202 -0.6069
19407TIP3   OH279711   0.653   0.845   0.784  0.0028 -0.2594  0.6625
19407TIP3    H179712   0.589   0.795   0.834 -0.2410  0.0114  0.6250
19407TIP3    H279713   0.671   0.922   0.837 -0.7642  0.3607  0.0328
19408TIP3   OH279714   4.709   4.411  13.162  0.3229 -0.2534 -0.3576
19408TIP3    H179715   4.632   4.459  13.192 -0.9381 -1.6049 -1.2915
19408TIP3    H279716   4.783   4.466  13.186 -0.8931  0.8167  1.0833
19409TIP3   OH279717   5.073   2.821  13.488 -0.6331  0.1652  0.5453
19409TIP3    H179718   5.101   2.762  13.558 -2.8663  1.0070  2.2659
19409TIP3    H279719   5.046   2.762  13.417 -0.6832 -0.8224  1.3539
19410TIP3   OH279720   6.467   6.708   4.222  0.2718  0.5533  0.2668
19410TIP3    H179721   6.407   6.661   4.164 -0.0067  0.9300  0.2490
19410TIP3    H279722   6.419   6.716   4.304  0.4565  0.5021  0.3822
19411TIP3   OH279723   2.765   5.065   2.918 -0.3348 -0.6091  0.2485
19411TIP3    H179724   2.790   4.978   2.949  0.2713 -0.6315 -0.2729
19411TIP3    H279725   2.720   5.050   2.835  1.7642 -0.3282 -1.0204
19412TIP3   OH279726   0.000   6.331  14.346 -0.4266 -0.1953  0.2560
19412TIP3    H179727  -0.095   6.333  14.351 -0.3912  0.2928  0.7861
19412TIP3    H279728   0.025   6.420  14.321 -0.1014 -0.2795  0.2711
19413TIP3   OH279729   1.475   2.868   0.152  0.0041  0.1578 -0.3289
19413TIP3    H179730   1.444   2.958   0.146  0.3351  0.3985  1.2040
19413TIP3    H279731   1.439   2.825   0.075  0.4545  1.7776 -1.4979
19414TIP3   OH279732   0.191   6.032  13.596  0.4795  0.4813  0.0571
19414TIP3    H179733   0.148   5.967  13.540  0.0904 -0.7003  1.6623
19414TIP3    H279734   0.194   5.991  13.682  0.9823  2.2882  0.9413
19415TIP3   OH279735   1.702   0.456  16.580  0.1433 -0.1768 -0.0022
19415TIP3    H179736   1.689   0.503  16.497  0.7547  2.1969  1.1647
19415TIP3    H279737   1.771   0.392  16.560 -1.1383 -1.1140 -1.8008
19416TIP3   OH279738   4.640   1.392  14.892  0.2677  0.0343 -0.2829
19416TIP3    H179739   4.600   1.478  14.899 -0.6268 -0.4836  1.9600
19416TIP3    H279740   4.611   1.358  14.807 -0.5150  1.3629 -0.5701
19417TIP3   OH279741   0.511   5.523  15.747 -0.1387 -0.8273 -0.0716
19417TIP3    H179742   0.468   5.527  15.662  0.3369 -0.7959 -0.3122
19417TIP3    H279743   0.479   5.599  15.794 -0.1471 -0.6619 -0.3442
19418TIP3   OH279744   1.230   5.882   3.128 -0.2762 -0.1124  0.7008
19418TIP3    H179745   1.193   5.969   3.143 -0.5164 -0.0605 -0.1707
19418TIP3    H279746   1.193   5.827   3.198  2.0494  1.0800  3.0366
19419TIP3   OH279747   1.510   1.600   1.315  0.1469  0.1771 -0.4307
19419TIP3    H179748   1.480   1.518   1.276 -0.5178  0.2996 -0.1896
19419TIP3    H279749   1.533   1.577   1.405 -1.4715  0.5408  0.0937
19420TIP3   OH279750   6.819   1.636   3.187 -0.8014 -0.3453 -0.4428
19420TIP3    H179751   6.906   1.640   3.228 -1.3522 -1.0587  0.8381
19420TIP3    H279752   6.828   1.568   3.120  0.5672  1.9329 -2.7791
19421TIP3   OH279753   5.828   4.570   3.921 -0.5196 -0.1343  0.2125
19421TIP3    H179754   5.921   4.554   3.937 -0.1359  1.6792  0.0396
19421TIP3    H279755   5.783   4.501   3.970  0.8923 -0.6718  0.8179
19422TIP3   OH279756   2.083   2.744  12.818  0.3438 -1.0510  0.1642
19422TIP3    H179757   2.120   2.771  12.734 -2.2311  1.1191 -0.3838
19422TIP3    H279758   1.992   2.723  12.799 -0.4698  0.0448  2.4885
19423TIP3   OH279759   1.395   0.599   5.574 -0.3197  0.0165 -0.5050
19423TIP3    H179760   1.318   0.568   5.621  0.3162 -0.4332  0.2636
19423TIP3    H279761   1.462   0.612   5.641  0.6230 -0.6717 -1.2595
19424TIP3   OH279762   2.427   0.465  16.000  0.2840  0.2150 -0.2421
19424TIP3    H179763   2.351   0.492  15.948  0.7045  0.1307 -0.8954
19424TIP3    H279764   2.440   0.538  16.061  0.6071  0.9128 -1.1345
19425TIP3   OH279765   0.294   2.784   6.346  0.1681  0.2984  0.7551
19425TIP3    H179766   0.226   2.742   6.398 -1.8619  1.6303 -0.6783
19425TIP3    H279767   0.321   2.717   6.283  0.9487 -0.5560  1.9629
19426TIP3   OH279768   5.101   4.975   6.156  0.2741 -0.0412 -0.3072
19426TIP3    H179769   5.147   4.965   6.239 -0.6072  1.4037  0.4063
19426TIP3    H279770   5.011   4.949   6.177  0.1968 -0.3391 -1.0046
19427TIP3   OH279771   1.228   1.219  11.491 -0.0624  0.8355 -0.6245
19427TIP3    H179772   1.197   1.132  11.467 -1.7493  1.9072 -2.6516
19427TIP3    H279773   1.149   1.265  11.521  1.1293  1.1363  2.3879
19428TIP3   OH279774   5.873   6.489  13.474  0.5157  0.3710  0.0391
19428TIP3    H179775   5.952   6.437  13.482  1.5380  1.8239 -0.3017
19428TIP3    H279776   5.845   6.505  13.564  1.4088  1.0148  0.2106
19429TIP3   OH279777   0.015   1.900   5.450  0.3202 -0.2286  0.1420
19429TIP3    H179778  -0.052   1.870   5.389  0.8836 -0.2329 -0.4966
19429TIP3    H279779  -0.006   1.992   5.466 -0.6807 -0.5978  1.1156
19430TIP3   OH279780   3.938   5.880   5.345  0.4569 -0.0858  0.2295
19430TIP3    H179781   3.931   5.888   5.440 -1.0126 -1.0219  0.2463
19430TIP3    H279782   3.963   5.967   5.315  0.5478  0.3256  1.4481
19431TIP3   OH279783   6.547   6.764  11.962  0.0423  0.0466  0.2294
19431TIP3    H179784   6.495   6.737  11.886 -2.5935  0.3234  1.8144
19431TIP3    H279785   6.531   6.696  12.027  2.2154 -0.1550  0.6408
19432TIP3   OH279786   0.103   6.415   2.866  0.1578 -0.3977 -0.4077
19432TIP3    H179787   0.027   6.454   2.823  0.2250 -0.6260 -0.7338
19432TIP3    H279788   0.078   6.409   2.958 -0.0054  0.0463 -0.4221
19433TIP3   OH279789   5.498   4.616   4.812  0.7356  0.2318 -0.5220
19433TIP3    H179790   5.435   4.560   4.858 -0.2060 -0.1405 -2.1721
19433TIP3    H279791   5.550   4.655   4.882  1.9604 -3.2430  0.7289
19434TIP3   OH279792   0.854   6.757  13.787  0.3989  0.0352 -0.7354
19434TIP3    H179793   0.915   6.831  13.787 -0.0466  0.5317  1.8684
19434TIP3    H279794   0.850   6.731  13.879 -4.0486  0.7181 -0.5257
19435TIP3   OH279795   3.408   0.364   4.882  0.0750 -0.1864 -0.1449
19435TIP3    H179796   3.436   0.280   4.847  1.3754  0.5703 -1.0058
19435TIP3    H279797   3.443   0.429   4.821 -1.1040  0.9797  0.3621
19436TIP3   OH279798   6.554   3.133  13.631 -0.3070  0.8776 -0.6402
19436TIP3    H179799   6.634   3.082  13.616 -0.7794  0.1773 -0.8046
19436TIP3    H279800   6.488   3.067  13.655 -0.8260  1.4556 -0.4728
19437TIP3   OH279801   1.907   3.229   0.539 -0.4478  0.0550 -0.1658
19437TIP3    H179802   1.974   3.209   0.604 -1.4713  0.4395  1.0526
19437TIP3    H279803   1.824   3.226   0.588 -1.1831  1.1197 -1.2745
19438TIP3   OH279804   2.902   0.549   5.078  0.0043 -0.4119 -0.1301
19438TIP3    H179805   2.994   0.531   5.059 -0.7847 -1.7528 -3.3802
19438TIP3    H279806   2.867   0.465   5.109 -0.2672 -0.0483  0.5776
19439TIP3   OH279807   5.010   3.968   4.432 -0.1548 -0.0168 -0.0136
19439TIP3    H179808   4.995   4.061   4.446 -0.0559  0.2101 -1.3248
19439TIP3    H279809   4.949   3.924   4.491 -1.4338  0.8722 -0.6556
19440TIP3   OH279810   3.370   5.113  12.803 -0.4235 -0.4207  0.4213
19440TIP3    H179811   3.322   5.149  12.878  2.3195 -0.4630  2.3627
19440TIP3    H279812   3.410   5.188  12.761 -1.8804 -0.4099 -1.0144
19441TIP3   OH279813   4.133   0.915   3.103 -0.1603  0.8259  0.2827
19441TIP3    H179814   4.102   0.856   3.034 -0.3215 -1.8282  2.4555
19441TIP3    H279815   4.054   0.953   3.139 -0.5041 -1.0319  1.6469
19442TIP3   OH279816   6.471   2.601  11.965 -0.0384  0.4511 -0.0759
19442TIP3    H179817   6.521   2.682  11.965 -1.3996  1.3360 -1.1273
19442TIP3    H279818   6.528   2.537  11.922  1.2279  0.6727  1.1713
19443TIP3   OH279819   4.485   3.919   5.641  0.2648 -0.3958 -0.6049
19443TIP3    H179820   4.478   3.855   5.570 -1.0576 -1.2340  0.2422
19443TIP3    H279821   4.396   3.927   5.674  0.6764  0.7993  0.2672
19444TIP3   OH279822   1.174   4.213   5.780  0.4143  0.5788 -0.2287
19444TIP3    H179823   1.156   4.142   5.718 -0.2232 -1.4825  2.1348
19444TIP3    H279824   1.087   4.248   5.802  0.7306  2.2920 -1.4898
19445TIP3   OH279825   5.707   3.207   3.611 -0.1104 -1.3176 -0.1645
19445TIP3    H179826   5.752   3.203   3.526  1.5092 -1.5012  0.6590
19445TIP3    H279827   5.616   3.186   3.591  0.2041 -1.1797 -1.8836
19446TIP3   OH279828   0.943   0.125  14.447  0.0791 -0.1659 -0.5966
19446TIP3    H179829   0.905   0.084  14.369  0.0117  1.0943 -1.2484
19446TIP3    H279830   0.900   0.210  14.453  0.0557 -0.2548  0.8593
19447TIP3   OH279831   5.734   0.214  16.226 -0.3574  0.1609 -0.1573
19447TIP3    H179832   5.652   0.248  16.191 -0.4894  0.9452  0.8566
19447TIP3    H279833   5.794   0.212  16.152 -0.9346  0.7498 -0.6470
19448TIP3   OH279834   3.105   5.831   3.549 -0.2292  0.6329  0.4038
19448TIP3    H179835   3.089   5.925   3.536 -0.6873  0.3674 -1.1444
19448TIP3    H279836   3.073   5.814   3.638 -1.6318  1.6381  0.1318
19449TIP3   OH279837   4.917   6.728  14.026 -0.0448 -0.0762  0.1384
19449TIP3    H179838   4.905   6.798  14.090 -0.8842  0.3102 -0.4234
19449TIP3    H279839   4.905   6.772  13.941  2.1429 -0.3208 -0.3684
19450TIP3   OH279840   3.154   6.783   4.762  0.5554 -0.4083 -0.9708
19450TIP3    H179841   3.161   6.689   4.781 -0.9183 -0.7689 -1.9721
19450TIP3    H279842   3.138   6.824   4.847  1.2546 -1.0500 -0.5174
19451TIP3   OH279843   2.970   3.671  17.113  0.0881  0.6660 -0.1606
19451TIP3    H179844   3.042   3.668  17.050 -0.8148 -1.0889 -1.1635
19451TIP3    H279845   2.934   3.583  17.113 -1.7116  1.3504  0.7726
19452TIP3   OH279846   3.718   3.579  16.621  0.3276  0.5522  0.2493
19452TIP3    H179847   3.639   3.631  16.608 -0.0414 -0.0423  0.0994
19452TIP3    H279848   3.688   3.488  16.622  1.1449  0.2385 -0.9828
19453TIP3   OH279849   2.601   1.853   6.498 -0.5624 -0.0500  0.6883
19453TIP3    H179850   2.582   1.918   6.566  0.5088  0.9655  0.0530
19453TIP3    H279851   2.529   1.864   6.435 -0.6761  0.1463  0.8481
19454TIP3   OH279852   3.211   2.805   5.761 -0.0428  0.0448 -0.0438
19454TIP3    H179853   3.300   2.781   5.734  1.1741  1.8277  2.0322
19454TIP3    H279854   3.194   2.751   5.837 -0.0799  0.7888  0.4894
19455TIP3   OH279855   0.047   0.092   4.834  0.5840 -0.1884 -0.2603
19455TIP3    H179856  -0.032   0.145   4.830  0.8730  0.2144 -0.8402
19455TIP3    H279857   0.031   0.029   4.904  0.5787  1.2363  1.0775
19456TIP3   OH279858   5.494   6.084  16.901 -0.4201 -0.2498  0.3613
19456TIP3    H179859   5.444   6.152  16.855  1.1271  1.3052  0.8906
19456TIP3    H279860   5.576   6.078  16.853 -0.5781 -1.8781  0.2491
19457TIP3   OH279861   6.228   0.779   4.143  0.2958 -0.0289 -0.5736
19457TIP3    H179862   6.279   0.857   4.120 -0.8321  0.4693 -1.5236
19457TIP3    H279863   6.138   0.802   4.120 -0.1680 -1.3596 -0.1881
19458TIP3   OH279864   5.054   3.220   2.540 -0.3191  0.1702 -0.0682
19458TIP3    H179865   5.074   3.182   2.625 -0.3338  0.5387  0.0985
19458TIP3    H279866   5.112   3.295   2.532 -2.1230  1.7233  0.7510
19459TIP3   OH279867   1.538   1.124   3.827  0.1883  0.3186  0.1674
19459TIP3    H179868   1.542   1.143   3.733  1.9133  0.3573  0.2115
19459TIP3    H279869   1.587   1.196   3.867  2.2693 -1.3567  0.7908
19460TIP3   OH279870   4.655   4.039   5.413 -0.1360 -0.6795 -0.5422
19460TIP3    H179871   4.689   4.072   5.497  0.5360 -1.3194 -0.5441
19460TIP3    H279872   4.570   4.000   5.436  0.0374 -0.8406 -0.1556
19461TIP3   OH279873   1.787   6.002  15.460 -0.3241 -0.4847  0.0076
19461TIP3    H179874   1.875   6.012  15.425  0.8334 -0.9628  2.5672
19461TIP3    H279875   1.743   5.944  15.398  0.9600  0.1643 -1.5857
19462TIP3   OH279876   2.938   0.943  13.543  0.3654  0.3505 -0.3385
19462TIP3    H179877   2.864   1.000  13.562  1.6844  2.2585 -0.6470
19462TIP3    H279878   2.969   0.914  13.629 -0.6759 -0.4090 -0.2072
19463TIP3   OH279879   1.074   2.460  15.292  0.5810 -0.0391 -0.0850
19463TIP3    H179880   1.004   2.453  15.227  0.0249 -0.4766  0.5485
19463TIP3    H279881   1.148   2.496  15.243  0.5733 -1.5250 -1.2706
19464TIP3   OH279882   2.465   1.682  16.137  0.0726  0.2407 -0.1074
19464TIP3    H179883   2.443   1.589  16.122 -1.8430  0.5982  0.2575
19464TIP3    H279884   2.555   1.680  16.169  1.1045 -1.2737 -2.7308
19465TIP3   OH279885   5.580   1.988   3.192 -0.1945  0.5611  0.4600
19465TIP3    H179886   5.664   1.949   3.214 -0.2989 -0.6744 -1.1594
19465TIP3    H279887   5.523   1.965   3.266  0.7184  0.9269  1.2983
19466TIP3   OH279888   1.278   1.862   3.848  0.0855 -0.3300  0.2990
19466TIP3    H179889   1.183   1.854   3.833 -0.1058  0.5226  0.9540
19466TIP3    H279890   1.317   1.801   3.786 -0.9456 -1.6622  0.9148
19467TIP3   OH279891   1.113   2.936  14.884  0.1737 -0.0631  0.4528
19467TIP3    H179892   1.203   2.957  14.909 -0.0509 -0.3294  1.5348
19467TIP3    H279893   1.121   2.879  14.808  0.9844 -1.4971  1.5712
19468TIP3   OH279894   1.443   4.947   0.178 -0.3376 -0.1829  0.1546
19468TIP3    H179895   1.431   5.032   0.220 -0.6840  0.1155 -0.5247
19468TIP3    H279896   1.504   4.901   0.235  0.6903  0.9131 -0.0129
19469TIP3   OH279897   3.576   2.626   3.354 -0.4714  0.4340  0.6034
19469TIP3    H179898   3.668   2.606   3.338 -0.2173  1.4709  0.6423
19469TIP3    H279899   3.545   2.554   3.409 -0.6240 -1.7004 -2.1218
19470TIP3   OH279900   2.432   4.259  12.458  0.3077  0.2765 -0.2815
19470TIP3    H179901   2.396   4.188  12.404  2.2430 -1.2947  0.3407
19470TIP3    H279902   2.436   4.334  12.399  0.8462 -0.9312 -1.8927
19471TIP3   OH279903   4.018   0.284  12.868 -0.5895  0.0144  0.4876
19471TIP3    H179904   3.932   0.271  12.828 -1.0621 -1.1944  1.8523
19471TIP3    H279905   4.078   0.233  12.813 -0.9839 -0.3717  0.4119
19472TIP3   OH279906   3.787   6.649  16.654  0.4129  0.7294 -0.3842
19472TIP3    H179907   3.768   6.555  16.656 -2.1148  1.1598  1.8089
19472TIP3    H279908   3.876   6.656  16.686  0.3567 -0.8929  0.2106
19473TIP3   OH279909   3.083   0.775   6.035 -0.0568  0.3483 -0.7061
19473TIP3    H179910   3.006   0.730   6.002 -0.4066  0.1042  0.4002
19473TIP3    H279911   3.085   0.754   6.129  1.0618  0.7670 -0.6189
19474TIP3   OH279912   3.774   1.817   0.160 -0.5010 -0.3153  0.1643
19474TIP3    H179913   3.766   1.913   0.164  0.1136 -0.2980  1.1406
19474TIP3    H279914   3.683   1.786   0.159 -0.7068  0.2544  0.5548
19475TIP3   OH279915   2.656   0.571  11.612 -0.4378 -0.1068  0.2786
19475TIP3    H179916   2.605   0.641  11.653  0.1463  0.5642 -0.1028
19475TIP3    H279917   2.627   0.570  11.521  0.4364  0.5139 -0.0277
19476TIP3   OH279918   0.895   3.520  14.175 -0.3975  0.0600  0.7150
19476TIP3    H179919   0.900   3.426  14.157 -0.7333  0.0285  0.7722
19476TIP3    H279920   0.930   3.562  14.096  1.2133 -0.1391  1.2958
19477TIP3   OH279921   2.901   2.642  15.600 -0.1734  0.4877  0.1660
19477TIP3    H179922   2.987   2.620  15.638  0.6390  1.4800 -0.9973
19477TIP3    H279923   2.900   2.738  15.599 -0.8380  0.4840 -0.8265
19478TIP3   OH279924   3.556   4.008  11.587  0.4825 -0.0273 -0.3227
19478TIP3    H179925   3.636   4.061  11.588  0.4001  0.0840  0.2906
19478TIP3    H279926   3.496   4.054  11.645 -0.7913  1.0452 -2.3416
19479TIP3   OH279927   1.122   4.053   5.551  0.0131  0.3804 -0.2475
19479TIP3    H179928   1.053   4.002   5.507  1.0754  0.3040 -1.9096
19479TIP3    H279929   1.160   3.992   5.614  0.7913 -0.7279 -1.7151
19480TIP3   OH279930   5.015   2.079  15.847 -0.4398  0.1529  0.0479
19480TIP3    H179931   4.951   2.010  15.860  0.6615 -0.9027  0.0224
19480TIP3    H279932   4.975   2.157  15.886 -0.8581 -0.9515  1.9068
19481TIP3   OH279933   5.028   5.037  14.168 -0.8049 -0.3252 -0.2141
19481TIP3    H179934   4.989   5.097  14.104  0.1807 -0.3497 -0.8505
19481TIP3    H279935   5.109   5.079  14.194 -0.1620 -1.3090 -0.5656
19482TIP3   OH279936   5.351   2.589  11.305 -0.5052  0.2947 -0.1469
19482TIP3    H179937   5.372   2.599  11.212  0.6367 -0.5117 -0.0006
19482TIP3    H279938   5.317   2.500  11.312 -0.9821  0.5007  0.1398
19483TIP3   OH279939   0.765   5.662  12.595  0.1251  0.0801 -0.2902
19483TIP3    H179940   0.860   5.662  12.597  0.1440  0.2639  2.7409
19483TIP3    H279941   0.740   5.582  12.642 -1.0589  2.6916  4.0486
19484TIP3   OH279942   0.062   1.867   2.683 -0.5189  0.2628  0.0613
19484TIP3    H179943   0.112   1.901   2.609 -0.1910 -2.0820 -0.9045
19484TIP3    H279944   0.117   1.883   2.759  1.6137 -1.8185 -0.9041
19485TIP3   OH279945   4.488   1.910  11.071 -0.6045  0.1730  0.5346
19485TIP3    H179946   4.421   1.859  11.117 -0.9040 -0.7227 -0.8355
19485TIP3    H279947   4.560   1.848  11.057 -0.9400  0.1185 -1.0830
19486TIP3   OH279948   1.974   0.876   1.530  0.5564  0.4527 -0.4409
19486TIP3    H179949   2.001   0.910   1.445 -3.0414  0.3538 -1.7712
19486TIP3    H279950   1.988   0.781   1.523  0.2508  0.4431 -0.9365
19487TIP3   OH279951   0.815   1.365  13.889  0.0171  0.0414  0.3447
19487TIP3    H179952   0.745   1.359  13.825 -0.3626 -2.4584  0.9237
19487TIP3    H279953   0.781   1.423  13.958 -0.5346  0.7048 -0.4745
19488TIP3   OH279954   0.273   2.971   3.951 -0.2043 -0.2803  0.3425
19488TIP3    H179955   0.212   3.019   3.895 -0.1313 -2.3388 -1.6426
19488TIP3    H279956   0.232   2.973   4.038 -0.6500  2.4477  0.1620
19489TIP3   OH279957   3.096   4.079  12.408 -0.2624  0.1842 -0.1290
19489TIP3    H179958   3.134   4.052  12.325 -2.3426  1.5328 -1.6104
19489TIP3    H279959   3.137   4.164  12.427  0.3904 -0.2325  0.3987
19490TIP3   OH279960   6.374   6.604   1.074  0.7140  0.0539  0.4777
19490TIP3    H179961   6.319   6.612   0.996 -1.2930 -1.1839  1.6726
19490TIP3    H279962   6.357   6.684   1.124  1.3791  0.4695  0.0632
19491TIP3   OH279963   4.994   2.911  12.651  0.2127 -0.5067 -0.2514
19491TIP3    H179964   4.988   3.007  12.650  1.2986 -0.4258  0.1848
19491TIP3    H279965   5.064   2.892  12.713  1.4126 -1.5123 -1.8613
19492TIP3   OH279966   2.017   0.437  16.342  0.8080 -0.6460 -0.1259
19492TIP3    H179967   2.076   0.364  16.361  0.4551 -1.0236 -0.4804
19492TIP3    H279968   1.948   0.400  16.288  1.0620  0.1220 -1.0082
19493TIP3   OH279969   4.772   2.504  13.023 -0.6040  0.4870 -0.4769
19493TIP3    H179970   4.798   2.442  12.955 -0.5986  0.2225 -0.2373
19493TIP3    H279971   4.800   2.590  12.990 -1.1689  0.4444 -1.0845
19494TIP3   OH279972   1.502   2.945  12.904  0.2652  0.0800  0.1010
19494TIP3    H179973   1.543   2.896  12.975  1.0298  2.0857  1.1182
19494TIP3    H279974   1.419   2.974  12.940  0.1209  0.0997 -0.2463
19495TIP3   OH279975   6.553   0.341   0.150  0.7353 -0.2672 -0.3629
19495TIP3    H179976   6.597   0.282   0.089  3.5424  0.2974  0.9766
19495TIP3    H279977   6.544   0.423   0.102  1.0263 -0.4356 -0.7145
19496TIP3   OH279978   0.895   1.737   2.536 -0.1590  0.5303  0.0532
19496TIP3    H179979   0.978   1.701   2.507  1.3416  3.5107  0.1905
19496TIP3    H279980   0.834   1.718   2.464  1.3671  0.6663 -1.3440
19497TIP3   OH279981   3.240   1.766  14.392 -0.2775  0.6572  0.6381
19497TIP3    H179982   3.293   1.749  14.314 -0.3500 -2.3314  1.0962
19497TIP3    H279983   3.304   1.784  14.461  0.0373 -0.2261  0.5972
19498TIP3   OH279984   3.336   2.027  15.725 -0.1000 -0.5092  0.4281
19498TIP3    H179985   3.278   2.068  15.789 -0.1422 -0.8528  0.6118
19498TIP3    H279986   3.414   2.004  15.775  0.1672 -0.1192  0.1981
19499TIP3   OH279987   5.494   6.621   4.934 -0.3409  0.1577  0.3259
19499TIP3    H179988   5.413   6.572   4.917  0.2660 -2.1379  3.3402
19499TIP3    H279989   5.466   6.695   4.988 -0.6606  0.6091 -0.4364
19500TIP3   OH279990   1.758   6.625  17.181  0.2843 -0.0861 -0.3538
19500TIP3    H179991   1.704   6.658  17.109  1.3464 -3.4380 -2.9385
19500TIP3    H279992   1.716   6.543  17.208  1.6666 -0.5209  0.6161
19501TIP3   OH279993   0.626   3.725  13.682 -0.2907 -0.9755  0.4959
19501TIP3    H179994   0.550   3.711  13.625 -0.3048 -0.5952  0.4187
19501TIP3    H279995   0.597   3.791  13.745  0.7042  0.9705 -0.9658
19502TIP3   OH279996   0.531   3.223   0.200 -0.5615  0.4286  0.2603
19502TIP3    H179997   0.553   3.273   0.279 -0.1752  0.6174  0.0389
19502TIP3    H279998   0.570   3.274   0.129 -1.1214  0.3913 -0.0734
19503TIP3   OH279999   0.802   1.954   4.067 -0.0794 -0.2493  0.2841
19503TIP3    H180000   0.874   1.946   4.129  1.2479  0.5645 -1.0908
19503TIP3    H280001   0.764   2.040   4.084  1.0177  0.4704 -0.7259
19504TIP3   OH280002   0.905   5.209  16.909 -0.3258  0.5228 -0.3410
19504TIP3    H180003   0.919   5.144  16.840  0.9170 -1.9326  2.0238
19504TIP3    H280004   0.969   5.278  16.891  0.0164 -0.1022 -1.5868
19505TIP3   OH280005   0.403   0.841  14.961  0.5542 -0.1912 -0.1630
19505TIP3    H180006   0.472   0.805  15.016  0.2443 -0.4361  0.0747
19505TIP3    H280007   0.374   0.768  14.907 -0.3003 -0.3977  0.5492
19506TIP3   OH280008   2.519   0.636  12.451  0.4799 -0.1225  0.7774
19506TIP3    H180009   2.457   0.571  12.484 -0.4968 -0.3703 -1.3606
19506TIP3    H280010   2.602   0.589  12.445 -0.5781 -1.9316 -2.4856
19507TIP3   OH280011   6.609   4.342   3.328  0.0571  0.2378 -0.2129
19507TIP3    H180012   6.539   4.325   3.265  0.5943 -0.3736 -0.6711
19507TIP3    H280013   6.621   4.258   3.373  1.4991 -0.1227 -1.1973
19508TIP3   OH280014   6.806   4.237  13.176  0.0636  0.5130 -0.4256
19508TIP3    H180015   6.882   4.265  13.125  1.0964 -0.6718  0.4147
19508TIP3    H280016   6.773   4.160  13.131 -0.2978  0.6760 -0.4501
19509TIP3   OH280017   6.075   5.658  16.949 -0.2649  0.2522 -0.2256
19509TIP3    H180018   6.028   5.690  17.025  0.2579  1.7020 -0.4769
19509TIP3    H280019   6.150   5.610  16.985 -0.2892  0.5095  0.1710
19510TIP3   OH280020   1.865   4.367   5.607 -0.0977  0.1320  0.6313
19510TIP3    H180021   1.856   4.322   5.524 -1.1283 -1.7298  1.6848
19510TIP3    H280022   1.914   4.306   5.662 -1.4718  0.2826  2.0890
19511TIP3   OH280023   1.932   0.405   5.668 -0.6999 -0.3414  0.4969
19511TIP3    H180024   2.019   0.379   5.638 -0.7782  1.5732 -1.6274
19511TIP3    H280025   1.945   0.430   5.760  0.3299 -2.7352  1.1012
19512TIP3   OH280026   6.652   5.072   3.461  0.2354 -0.3552  0.2705
19512TIP3    H180027   6.711   5.002   3.433  0.4773  0.1011 -0.3822
19512TIP3    H280028   6.695   5.111   3.537  0.1206 -0.8838  0.6096
19513TIP3   OH280029   1.801   4.483  14.657  0.3746 -0.1426 -0.0978
19513TIP3    H180030   1.763   4.408  14.612 -1.0757  1.3641 -1.5653
19513TIP3    H280031   1.856   4.446  14.725 -1.5098 -2.5185  0.2476
19514TIP3   OH280032   1.649   6.408  17.284 -0.0093  0.3295  0.3846
19514TIP3    H180033   1.596   6.335  17.252  1.6304 -0.4878 -0.6421
19514TIP3    H280034   1.702   6.370  17.354  2.3032 -0.0818 -1.4755
19515TIP3   OH280035   4.688   6.206  13.534 -0.4294  0.2364  0.0246
19515TIP3    H180036   4.593   6.211  13.530 -0.3878  0.9460 -0.1182
19515TIP3    H280037   4.706   6.114  13.552 -1.0653 -0.3830 -2.1612
19516TIP3   OH280038   2.700   2.809  10.256 -0.1866  0.4121 -0.0192
19516TIP3    H180039   2.671   2.727  10.216  1.0023 -0.4714  0.8443
19516TIP3    H280040   2.741   2.782  10.338 -1.1190  2.0123  1.0376
19517TIP3   OH280041   1.190   4.903  10.896 -0.1438 -0.2890 -0.7923
19517TIP3    H180042   1.146   4.883  10.814 -1.5235  1.8251 -0.6620
19517TIP3    H280043   1.236   4.985  10.879 -1.3699  0.8020  0.7743
19518TIP3   OH280044   3.909   2.361   1.170  0.4849  0.1384 -0.5524
19518TIP3    H180045   3.892   2.422   1.242  1.7455 -0.5669  0.3760
19518TIP3    H280046   3.855   2.394   1.098  1.0034  2.2776 -0.0461
19519TIP3   OH280047   4.329   2.451  16.698 -0.2415  0.4151 -0.3759
19519TIP3    H180048   4.359   2.370  16.656  1.3046  0.5111  0.4845
19519TIP3    H280049   4.339   2.518  16.631  0.2584  0.2031 -0.5218
19520TIP3   OH280050   3.354   1.919   1.009  0.0736  0.2044 -0.3264
19520TIP3    H180051   3.265   1.954   1.001  0.6125  1.7329  0.0521
19520TIP3    H280052   3.403   1.987   1.055  1.4008 -0.7009 -0.3364
19521TIP3   OH280053   5.772   0.107   5.730 -0.2524  0.3207  0.5316
19521TIP3    H180054   5.810   0.169   5.667  0.3430  0.4209  0.9728
19521TIP3    H280055   5.688   0.082   5.692  0.1082  0.3532 -0.3147
19522TIP3   OH280056   1.462   3.812  14.645 -0.3027 -0.4223 -0.3057
19522TIP3    H180057   1.408   3.751  14.595  1.4115 -0.5277 -2.1610
19522TIP3    H280058   1.452   3.783  14.736 -1.0605 -2.2410 -0.9105
19523TIP3   OH280059   1.147   2.752  17.118 -0.0077 -0.7806  0.1008
19523TIP3    H180060   1.229   2.707  17.138 -0.4075 -1.1628  0.9723
19523TIP3    H280061   1.164   2.844  17.135 -0.2851 -1.0741  2.1751
19524TIP3   OH280062   6.810   0.335   5.464  0.2479  0.0035  0.0608
19524TIP3    H180063   6.746   0.265   5.450  1.0252 -1.6228  3.5234
19524TIP3    H280064   6.758   0.407   5.500 -0.3634  0.8284 -2.3263
19525TIP3   OH280065   6.280   3.643   3.777 -0.2790  0.0494 -0.4275
19525TIP3    H180066   6.222   3.705   3.732 -1.6972  0.9700  2.4417
19525TIP3    H280067   6.317   3.693   3.850 -0.6618 -2.1596  1.3796
19526TIP3   OH280068   2.745   4.742  14.334 -0.4258 -0.2346 -0.8614
19526TIP3    H180069   2.732   4.699  14.249 -0.0676 -1.3122 -0.3908
19526TIP3    H280070   2.667   4.718  14.384 -0.6614  0.4455 -0.8932
19527TIP3   OH280071   2.256   6.605   0.524 -0.1211 -0.3133  0.5813
19527TIP3    H180072   2.169   6.613   0.486  0.7641 -2.3758 -2.2311
19527TIP3    H280073   2.292   6.693   0.522 -0.5415 -0.1185 -2.6069
19528TIP3   OH280074   1.035   2.962  11.356 -0.1174  0.1244 -0.4336
19528TIP3    H180075   1.084   2.894  11.403 -2.6534 -1.6930 -0.1889
19528TIP3    H280076   1.025   2.928  11.268 -0.0469  0.9633 -0.7758
19529TIP3   OH280077   2.686   4.555   3.762  0.1079  0.1733 -0.5980
19529TIP3    H180078   2.739   4.595   3.831  0.4581  0.9599 -1.2976
19529TIP3    H280079   2.679   4.463   3.787  1.2047  0.2037 -0.1186
19530TIP3   OH280080   3.481   1.054  14.090 -0.1367 -0.0977  0.3200
19530TIP3    H180081   3.492   1.103  14.171 -0.4503 -0.3843  0.5413
19530TIP3    H280082   3.543   0.981  14.097 -1.0387 -0.8431  0.8813
19531TIP3   OH280083   3.763   1.575  15.926  0.1225  0.0380 -0.1781
19531TIP3    H180084   3.830   1.513  15.955  0.8596  0.7272 -0.3538
19531TIP3    H280085   3.708   1.589  16.002  1.5748  1.2417  0.7136
19532TIP3   OH280086   1.230   3.472   1.044  0.2471 -0.4547  0.9657
19532TIP3    H180087   1.320   3.491   1.071  0.0878  1.5612  0.2406
19532TIP3    H280088   1.239   3.408   0.973  1.0169 -1.0714  1.5946
19533TIP3   OH280089   6.343   3.405  13.770 -0.0849  0.1417  0.1080
19533TIP3    H180090   6.249   3.399  13.783 -0.1236 -0.1049 -0.2649
19533TIP3    H280091   6.374   3.315  13.774  0.0378  0.1545 -0.4497
19534TIP3   OH280092   2.486   1.157  15.476  0.0676 -0.2307  0.1744
19534TIP3    H180093   2.479   1.070  15.515  2.0393 -0.9353 -0.9514
19534TIP3    H280094   2.440   1.150  15.392 -1.0420  0.2718  0.7113
19535TIP3   OH280095   5.497   5.084   5.606  0.0468 -0.4774 -0.0931
19535TIP3    H180096   5.415   5.038   5.623 -0.0869 -0.8193 -1.5421
19535TIP3    H280097   5.536   5.096   5.692 -0.6257 -2.0049  0.4683
19536TIP3   OH280098   6.320   5.424   4.362  0.2157  0.7192  0.4872
19536TIP3    H180099   6.275   5.426   4.446 -0.0871 -1.1078  0.3904
19536TIP3    H280100   6.260   5.467   4.301  0.8805  3.0253  1.3516
19537TIP3   OH280101   1.964   4.633  12.768 -0.4060 -0.9045  0.0803
19537TIP3    H180102   1.926   4.554  12.728  1.0104 -1.4095 -0.3783
19537TIP3    H280103   2.059   4.621  12.756 -0.0970  0.2477  1.2026
19538TIP3   OH280104   4.709   3.014  11.453 -0.0822  0.3122 -0.0731
19538TIP3    H180105   4.707   2.927  11.413 -0.7140 -0.7592  2.0747
19538TIP3    H280106   4.709   3.075  11.380  0.6133 -1.4959 -1.6604
19539TIP3   OH280107   0.251   3.435   4.596 -0.4666 -0.5507 -0.1206
19539TIP3    H180108   0.328   3.387   4.564 -0.2827 -0.4807  0.2096
19539TIP3    H280109   0.188   3.368   4.618 -0.0910 -0.6624  0.6445
19540TIP3   OH280110   3.850   0.551  14.231 -0.0983 -0.3042 -0.8155
19540TIP3    H180111   3.942   0.544  14.254  0.2091  2.3911 -0.9090
19540TIP3    H280112   3.844   0.512  14.144  1.2519  0.6813 -1.3794
19541TIP3   OH280113   4.654   0.176  13.064 -0.0005  0.3863 -1.0849
19541TIP3    H180114   4.731   0.208  13.017 -0.7537  2.2850 -1.0891
19541TIP3    H280115   4.687   0.102  13.115  1.8892  1.2878 -0.9056
19542TIP3   OH280116   3.001   1.585  17.182 -0.3146  0.4106  0.4353
19542TIP3    H180117   2.969   1.512  17.129  1.0284  0.9297 -1.1584
19542TIP3    H280118   2.930   1.650  17.177 -1.1386 -0.3994  1.1462
19543TIP3   OH280119   2.170   4.476   4.649 -0.2283  0.1152 -0.1746
19543TIP3    H180120   2.252   4.490   4.695 -1.1194  0.9425  1.2334
19543TIP3    H280121   2.173   4.384   4.624  0.2980 -0.4093  1.6182
19544TIP3   OH280122   3.211   5.570   2.188 -0.0792  0.0522  0.3476
19544TIP3    H180123   3.196   5.635   2.256 -1.8072 -2.6563  2.8019
19544TIP3    H280124   3.127   5.526   2.178  0.9962 -1.8228 -1.1740
19545TIP3   OH280125   0.976   0.615  12.828 -0.6729 -0.2275 -0.4384
19545TIP3    H180126   0.881   0.623  12.815 -0.7189 -0.7015 -0.3797
19545TIP3    H280127   1.010   0.700  12.800 -1.2826  0.6100  1.2114
19546TIP3   OH280128   2.188   4.665  11.840  0.1638 -0.0328  0.2738
19546TIP3    H180129   2.215   4.622  11.759  1.3057  0.0826  0.5814
19546TIP3    H280130   2.094   4.679  11.829 -0.1630 -2.1419 -0.0465
19547TIP3   OH280131   4.453   1.885  15.092 -0.0553 -0.7722 -0.0878
19547TIP3    H180132   4.487   1.803  15.128 -0.9800 -1.8402 -1.5045
19547TIP3    H280133   4.392   1.917  15.158  0.1318 -1.3667  0.3801
19548TIP3   OH280134   6.343   0.374   2.885 -0.1444 -0.2024  0.1607
19548TIP3    H180135   6.320   0.464   2.908  0.2962  0.5007 -1.9951
19548TIP3    H280136   6.420   0.355   2.939 -1.2039  0.0847  1.8497
19549TIP3   OH280137   2.562   5.121  15.030 -0.3432 -0.3933  0.0917
19549TIP3    H180138   2.627   5.116  15.100  0.2755  0.2420 -0.4181
19549TIP3    H280139   2.599   5.183  14.967 -1.5115  0.1147 -0.1339
19550TIP3   OH280140   3.892   2.578   3.898  0.2188  0.1011  0.1562
19550TIP3    H180141   3.988   2.575   3.899  0.2692  0.0275 -1.5264
19550TIP3    H280142   3.867   2.508   3.838 -0.9367 -0.3740  1.1700
19551TIP3   OH280143   6.799   2.454  15.685 -0.0588 -0.5082 -0.2649
19551TIP3    H180144   6.861   2.381  15.688  1.2342  0.5250 -0.9945
19551TIP3    H280145   6.849   2.527  15.649 -1.2899  0.7799  0.5265
19552TIP3   OH280146   0.082   0.323   4.374  0.1855  0.2593 -0.4788
19552TIP3    H180147   0.115   0.260   4.439 -0.5529  0.5186  0.1681
19552TIP3    H280148   0.127   0.300   4.293  2.2838  0.8524  0.4271
19553TIP3   OH280149   6.095   1.923  14.159  0.6445 -0.0279  0.3288
19553TIP3    H180150   6.023   1.898  14.100  1.9358 -1.0127 -0.8987
19553TIP3    H280151   6.100   2.018  14.151 -0.5709  0.0692  0.5127
19554TIP3   OH280152   0.515   6.352   1.776  0.2334  0.2465 -0.3648
19554TIP3    H180153   0.427   6.390   1.780  1.3819  3.1546 -0.5670
19554TIP3    H280154   0.574   6.426   1.785  2.7171 -1.6346 -0.0832
19555TIP3   OH280155   2.169   3.500  16.410  1.0207 -0.0127  0.4116
19555TIP3    H180156   2.182   3.452  16.492  2.3265 -1.4308 -0.5745
19555TIP3    H280157   2.130   3.437  16.350 -0.4313  1.1607  0.0611
19556TIP3   OH280158   0.068   6.708   4.658 -0.4185 -0.2326  0.7206
19556TIP3    H180159  -0.012   6.674   4.618  0.2395 -0.7107 -0.2021
19556TIP3    H280160   0.037   6.775   4.719 -1.3818  1.3186 -1.3828
19557TIP3   OH280161   4.832   0.927   4.681 -0.2417  0.2226  0.1984
19557TIP3    H180162   4.915   0.971   4.697 -0.1323 -0.1913  0.8011
19557TIP3    H280163   4.780   0.991   4.632  0.2855  0.6318  0.1667
19558TIP3   OH280164   0.400   6.664  12.830 -0.1211 -0.1659  0.1089
19558TIP3    H180165   0.460   6.733  12.803  0.1586 -0.0396  1.0126
19558TIP3    H280166   0.456   6.597  12.869 -0.5256 -0.2188  0.6143
19559TIP3   OH280167   4.615   5.513  11.242 -0.5352 -0.0613 -0.1200
19559TIP3    H180168   4.695   5.549  11.282 -1.4747  1.6771  0.2910
19559TIP3    H280169   4.598   5.569  11.167 -1.4404 -0.3359 -0.1340
19560TIP3   OH280170   1.950   0.062   2.224  0.1741  0.5595 -0.5481
19560TIP3    H180171   2.030   0.058   2.172  0.8825  1.3308  0.4198
19560TIP3    H280172   1.965   0.134   2.285  0.2702 -1.5519  2.1130
19561TIP3   OH280173   2.719   1.935   2.476  0.4724  0.1959 -0.2890
19561TIP3    H180174   2.641   1.901   2.520  1.0271  0.1763  0.6828
19561TIP3    H280175   2.684   2.000   2.414 -0.3018  0.2878  0.2295
19562TIP3   OH280176   3.099   3.053  13.028 -0.6268  0.5217 -0.2593
19562TIP3    H180177   3.048   2.991  12.975 -1.7308  0.3325  0.9746
19562TIP3    H280178   3.148   3.104  12.964 -1.5132 -0.0489 -1.4353
19563TIP3   OH280179   1.510   1.049  10.744 -0.2456  0.4007 -0.0624
19563TIP3    H180180   1.545   0.970  10.702  2.5672 -0.0036  2.7153
19563TIP3    H280181   1.556   1.121  10.702  0.9415  0.1551  0.7829
19564TIP3   OH280182   5.839   0.526  14.950  0.9084 -0.0299  0.6323
19564TIP3    H180183   5.925   0.484  14.954  0.3176 -1.2469  0.9212
19564TIP3    H280184   5.853   0.603  14.895  1.1526 -2.7538 -3.5654
19565TIP3   OH280185   1.265   0.295   3.016  0.2442  0.2938  0.1347
19565TIP3    H180186   1.285   0.239   3.091 -0.8406 -0.0914  0.1559
19565TIP3    H280187   1.347   0.300   2.968  0.6644 -0.3728  0.7479
19566TIP3   OH280188   0.586   3.936  12.106 -0.1605  0.0061 -0.0289
19566TIP3    H180189   0.669   3.946  12.154 -1.2048  0.6052  1.7703
19566TIP3    H280190   0.584   3.845  12.079  2.0341  0.4589 -2.0153
19567TIP3   OH280191   3.238   6.794   0.195  0.1840 -0.0022  0.3656
19567TIP3    H180192   3.246   6.851   0.119  2.8912  0.7477  1.0924
19567TIP3    H280193   3.183   6.721   0.165 -0.0275  0.9881 -1.8239
19568TIP3   OH280194   2.372   0.593  14.018 -0.3022  0.2853 -0.5095
19568TIP3    H180195   2.466   0.575  14.021 -0.1369  1.1966  1.2871
19568TIP3    H280196   2.332   0.509  14.000  0.7761 -0.5078  0.6221
19569TIP3   OH280197   6.070   1.868  15.436 -0.1161  0.1164  0.0655
19569TIP3    H180198   6.066   1.831  15.347  0.5672 -1.4229  0.6349
19569TIP3    H280199   6.152   1.917  15.438  0.4643 -0.8367  0.1852
19570TIP3   OH280200   4.602   6.112  12.482  0.3465  0.9873 -0.1054
19570TIP3    H180201   4.698   6.117  12.479  0.2841  1.7055 -1.7336
19570TIP3    H280202   4.574   6.128  12.392 -1.2805 -0.2487  0.1319
19571TIP3   OH280203   3.390   3.748  10.902  0.0459 -0.2851 -0.0391
19571TIP3    H180204   3.327   3.772  10.835  1.9140  1.6102 -1.2449
19571TIP3    H280205   3.475   3.755  10.859  1.2982  0.4719  2.3611
19572TIP3   OH280206   4.339   4.695   3.051 -0.2288 -0.3297  0.0174
19572TIP3    H180207   4.293   4.619   3.015 -1.3501  1.0303 -1.5537
19572TIP3    H280208   4.270   4.749   3.090  0.6056 -0.2885  1.5191
19573TIP3   OH280209   6.323   6.422   0.595 -0.3359  0.3057 -0.2955
19573TIP3    H180210   6.243   6.370   0.584  0.4911 -1.3273  0.8374
19573TIP3    H280211   6.393   6.365   0.561  0.4960  1.1419 -0.0301
19574TIP3   OH280212   1.666   3.029   1.582 -0.1317  0.3254 -0.1570
19574TIP3    H180213   1.705   3.050   1.497  0.9449  1.5509  0.6060
19574TIP3    H280214   1.581   3.072   1.580 -0.5568 -0.5021 -0.9758
19575TIP3   OH280215   2.678   0.317   3.369 -0.0954  0.1855  0.4514
19575TIP3    H180216   2.592   0.295   3.332 -0.5504  0.5583  1.2426
19575TIP3    H280217   2.741   0.275   3.311 -0.7717  0.7288 -0.7102
19576TIP3   OH280218   0.145   2.876  13.612  0.0115 -0.8877 -0.2506
19576TIP3    H180219   0.175   2.967  13.615 -1.3686 -0.4370  1.1749
19576TIP3    H280220   0.127   2.859  13.520  0.3492  0.2611 -0.5410
19577TIP3   OH280221   6.592   2.191   2.259  0.0675 -0.3611 -0.3839
19577TIP3    H180222   6.601   2.139   2.179 -1.1396 -0.3185 -0.5574
19577TIP3    H280223   6.617   2.131   2.329  0.8701 -0.4798 -0.7513
19578TIP3   OH280224   1.712   1.900  12.940  0.2706 -0.0891 -0.1546
19578TIP3    H180225   1.670   1.881  13.024 -0.2789 -0.5368 -0.5224
19578TIP3    H280226   1.788   1.954  12.963  0.4222 -0.6321  0.6737
19579TIP3   OH280227   3.333   3.920   0.870  0.7096 -0.0017  0.1228
19579TIP3    H180228   3.392   3.950   0.939 -0.3780  0.1964  1.0121
19579TIP3    H280229   3.303   4.000   0.827  1.1171 -0.1048 -0.3631
19580TIP3   OH280230   5.864   5.408  16.525 -0.5667 -0.0314 -0.0558
19580TIP3    H180231   5.794   5.394  16.589 -0.7647 -2.1129 -0.6469
19580TIP3    H280232   5.945   5.401  16.575 -0.7375  1.6501  0.5058
19581TIP3   OH280233   6.078   0.794   2.309 -0.0564 -0.1778  0.5510
19581TIP3    H180234   6.072   0.730   2.380  2.1597 -0.4414  0.5728
19581TIP3    H280235   6.105   0.875   2.352  0.2693 -0.0678  0.1464
19582TIP3   OH280236   0.137   6.637  12.920  0.0246 -0.0678 -0.4614
19582TIP3    H180237   0.219   6.645  12.872  0.7145  0.5075  0.7677
19582TIP3    H280238   0.139   6.548  12.957  0.4520  0.2011  0.1776
19583TIP3   OH280239   4.927   5.223  14.749 -0.0404  0.0796 -0.1481
19583TIP3    H180240   4.934   5.229  14.654 -0.2174 -2.2688 -0.3707
19583TIP3    H280241   4.957   5.134  14.769 -1.7129 -0.1036  1.7944
19584TIP3   OH280242   6.374   0.972   4.369 -0.3315 -0.8261  0.6983
19584TIP3    H180243   6.307   1.030   4.333 -0.1595 -1.9161 -1.6286
19584TIP3    H280244   6.327   0.917   4.431 -1.1594 -0.2671  0.5864
19585TIP3   OH280245   0.666   5.378  13.916  0.4772 -0.4931 -0.1647
19585TIP3    H180246   0.742   5.436  13.916  0.4132 -0.4096  0.0981
19585TIP3    H280247   0.680   5.321  13.840 -0.7159  1.4739 -1.9502
19586TIP3   OH280248   5.042   2.207  16.566 -0.3514 -0.3768 -0.1644
19586TIP3    H180249   5.119   2.161  16.533 -0.9868 -1.4812 -0.1290
19586TIP3    H280250   5.005   2.249  16.489  0.4385  0.4207 -0.1329
19587TIP3   OH280251   1.756   3.645   3.357  0.0358  0.3195 -0.2841
19587TIP3    H180252   1.678   3.646   3.413 -0.7788  1.3505 -1.3757
19587TIP3    H280253   1.776   3.552   3.346 -0.5308  0.0662  0.6841
19588TIP3   OH280254   6.450   0.806   3.881 -0.0117 -0.1040 -0.5745
19588TIP3    H180255   6.392   0.882   3.878 -1.2103 -0.9838 -0.4381
19588TIP3    H280256   6.512   0.825   3.951 -0.3625  0.6946 -0.4704
19589TIP3   OH280257   0.692   1.231   0.735  0.5174 -0.4639  0.0647
19589TIP3    H180258   0.670   1.317   0.770  1.0603 -0.3072  0.0246
19589TIP3    H280259   0.652   1.169   0.796  1.0616 -0.1905  0.7174
19590TIP3   OH280260   5.222   2.847  16.271 -0.1679 -0.4499  0.0062
19590TIP3    H180261   5.195   2.802  16.191 -0.4164 -0.9793  0.3768
19590TIP3    H280262   5.316   2.834  16.276 -0.3027 -1.3362  0.3483
19591TIP3   OH280263   3.895   3.881   0.769 -0.4393 -0.4746  0.4098
19591TIP3    H180264   3.959   3.939   0.810 -2.2030  0.9656  1.2910
19591TIP3    H280265   3.892   3.910   0.678 -1.4648  1.0622  0.8899
19592TIP3   OH280266   5.482   4.869  11.745  0.2984 -0.3836 -0.6176
19592TIP3    H180267   5.542   4.886  11.671  2.7827 -1.2127  1.0637
19592TIP3    H280268   5.449   4.956  11.768  1.0901  0.1629 -1.4399
19593TIP3   OH280269   3.845   1.294   6.037 -0.1040 -0.2322  0.4511
19593TIP3    H180270   3.885   1.358   5.977 -1.6121  1.2511  0.9375
19593TIP3    H280271   3.916   1.233   6.057  0.8689  0.0926 -1.6241
19594TIP3   OH280272   4.880   2.105  13.366  0.2890 -0.2497 -0.2775
19594TIP3    H180273   4.834   2.111  13.450  0.7814 -1.6705  0.1376
19594TIP3    H280274   4.908   2.194  13.347 -0.6436  0.2461  0.5986
19595TIP3   OH280275   2.422   5.241   1.734  0.4970  0.3474 -0.4605
19595TIP3    H180276   2.333   5.210   1.751  0.2509  1.7961  1.1304
19595TIP3    H280277   2.471   5.162   1.710 -1.1582 -0.5026 -1.2119
19596TIP3   OH280278   6.018   1.602  10.587  0.6767 -0.0129  0.4649
19596TIP3    H180279   6.061   1.567  10.665  0.6987 -0.3211  0.3134
19596TIP3    H280280   5.947   1.541  10.568  0.7450 -0.0043  0.1731
19597TIP3   OH280281   1.051   1.813  15.815 -0.3334 -0.2401  0.2033
19597TIP3    H180282   0.982   1.751  15.790 -0.0808  0.3210 -2.0740
19597TIP3    H280283   1.013   1.899  15.799 -0.4535  0.2477  2.7341
19598TIP3   OH280284   1.107   2.546  11.057  0.0815  0.3004 -0.3975
19598TIP3    H180285   1.099   2.463  11.104  0.6535  1.4458  1.8100
19598TIP3    H280286   1.196   2.545  11.022 -0.1254 -0.2650 -0.9422
19599TIP3   OH280287   2.053   3.855  13.201 -0.3815 -0.4102 -0.1521
19599TIP3    H180288   2.030   3.947  13.206 -0.3863 -0.3365 -1.2950
19599TIP3    H280289   1.971   3.810  13.180 -0.9473 -1.0188  2.8553
19600TIP3   OH280290   3.685   4.407   0.027  0.4603 -0.4968  0.2271
19600TIP3    H180291   3.640   4.354  -0.040  2.8868 -1.0156 -1.0974
19600TIP3    H280292   3.758   4.447  -0.019  0.7161  1.2718  2.0297
19601TIP3   OH280293   0.569   1.867  13.147 -0.6877 -0.3552  0.2225
19601TIP3    H180294   0.659   1.857  13.177 -1.2324 -0.0736  2.0647
19601TIP3    H280295   0.577   1.905  13.059  0.9692 -0.2879  0.3705
19602TIP3   OH280296   4.623   2.880  10.194  0.5764  0.3434  0.8049
19602TIP3    H180297   4.552   2.930  10.233  1.5309  0.3703  2.5955
19602TIP3    H280298   4.580   2.803  10.156 -0.6498  1.4474 -0.1507
19603TIP3   OH280299   3.102   5.237   5.860  0.3252  0.8005  0.4093
19603TIP3    H180300   3.176   5.288   5.826  1.8732 -1.2832  0.4228
19603TIP3    H280301   3.108   5.247   5.955  1.5480 -0.4765  0.5114
19604TIP3   OH280302   0.177   0.215   4.017  0.3876 -0.8967  0.9596
19604TIP3    H180303   0.082   0.211   4.025  0.5825 -4.5352  3.6321
19604TIP3    H280304   0.196   0.167   3.936 -0.0116  0.3000  0.1328
19605TIP3   OH280305   0.329   6.418  12.609 -0.2444  0.9988  0.3999
19605TIP3    H180306   0.280   6.337  12.593  0.1721  1.0707 -1.3706
19605TIP3    H280307   0.273   6.488  12.576  0.8698  1.1063 -1.3615
19606TIP3   OH280308   6.548   3.718   1.452  0.1862 -0.1626 -0.1951
19606TIP3    H180309   6.582   3.679   1.532  0.8561  0.2536 -0.2685
19606TIP3    H280310   6.617   3.703   1.387 -0.2353 -0.2630 -0.6268
19607TIP3   OH280311   5.570   5.189  13.706 -0.7567 -0.0705 -0.1024
19607TIP3    H180312   5.511   5.265  13.701 -0.5316  0.1306  0.2644
19607TIP3    H280313   5.642   5.211  13.646  0.2128  0.8156  1.3332
19608TIP3   OH280314   5.313   4.335   4.165  0.3624 -0.2662  0.2230
19608TIP3    H180315   5.281   4.410   4.216  0.8554 -1.2534  2.0826
19608TIP3    H280316   5.247   4.323   4.097 -1.1495  0.2307  1.5267
19609TIP3   OH280317   5.824   1.029  17.036 -0.0986 -0.6292  0.2101
19609TIP3    H180318   5.771   1.029  17.116  0.3240 -0.9280  0.4942
19609TIP3    H280319   5.908   0.992  17.063  0.3950  0.2161 -0.1548
19610TIP3   OH280320   4.507   3.261   2.130 -0.4485 -0.2228 -0.6526
19610TIP3    H180321   4.429   3.314   2.115 -1.6106 -1.7516 -0.3634
19610TIP3    H280322   4.511   3.202   2.055  0.0906 -0.5598 -0.3659
19611TIP3   OH280323   4.932   5.210   3.124  0.2037 -0.2462  0.4442
19611TIP3    H180324   4.989   5.138   3.098 -0.0680 -0.2366 -0.1845
19611TIP3    H280325   4.872   5.171   3.188  0.8944 -0.2611  1.1000
19612TIP3   OH280326   2.641   3.565  16.846  0.1775  0.7697  0.1933
19612TIP3    H180327   2.689   3.600  16.920 -1.7523 -0.2704  2.0582
19612TIP3    H280328   2.634   3.471  16.864  0.5122  0.3048 -1.8485
19613TIP3   OH280329   5.855   0.104  16.465  0.0186  0.1953  0.0618
19613TIP3    H180330   5.815   0.160  16.531 -0.3112  0.1693 -0.1145
19613TIP3    H280331   5.819   0.134  16.382 -1.0370 -0.9976  0.0608
19614TIP3   OH280332   0.898   2.766  11.557 -0.1753 -0.6599 -0.4768
19614TIP3    H180333   0.877   2.820  11.481 -3.2893  1.8442  1.8960
19614TIP3    H280334   0.938   2.826  11.620  1.7025 -2.5168  0.2227
19615TIP3   OH280335   6.824   2.960  16.581  0.2387 -0.1714 -0.5491
19615TIP3    H180336   6.770   3.037  16.593 -0.3023 -0.2675 -2.1145
19615TIP3    H280337   6.820   2.914  16.665  0.8950  1.6611  0.5543
19616TIP3   OH280338   1.493   6.365  14.432 -0.0442  0.4806 -0.0772
19616TIP3    H180339   1.455   6.278  14.438 -0.3416  0.5697 -0.6154
19616TIP3    H280340   1.484   6.389  14.340 -2.0454  2.0045  0.4571
19617TIP3   OH280341   1.631   3.820   0.825  0.1731  0.2553  0.2539
19617TIP3    H180342   1.569   3.852   0.890  1.0579  0.2177  1.1457
19617TIP3    H280343   1.579   3.765   0.767 -0.7719  0.8472  0.5125
19618TIP3   OH280344   1.217   1.774  15.445  0.5433  0.0475 -0.0959
19618TIP3    H180345   1.220   1.852  15.390 -0.6784  0.2864  0.1467
19618TIP3    H280346   1.135   1.731  15.422  1.0824 -1.0492 -0.0546
19619TIP3   OH280347   6.352   2.166  12.963 -0.1511  0.2071 -0.5476
19619TIP3    H180348   6.299   2.240  12.934  0.4416  0.5300 -0.8153
19619TIP3    H280349   6.330   2.155  13.056 -0.4566  0.5313 -0.5822
19620TIP3   OH280350   2.280   3.423  10.905 -0.4925  0.1987  0.4129
19620TIP3    H180351   2.196   3.455  10.939 -1.3056  0.3276 -1.5838
19620TIP3    H280352   2.265   3.330  10.887 -0.2511  0.2467 -0.0577
19621TIP3   OH280353   0.255   4.204   2.625  0.5605  0.1744 -0.9363
19621TIP3    H180354   0.305   4.260   2.566  0.5263  2.4845  1.0658
19621TIP3    H280355   0.168   4.245   2.629  0.4758 -0.0755  0.4450
19622TIP3   OH280356   0.133   5.297   5.495 -0.5971 -0.2697 -0.4728
19622TIP3    H180357   0.137   5.211   5.537 -0.6232  0.0999  0.3042
19622TIP3    H280358   0.110   5.278   5.404  3.6883 -1.4811 -1.5783
19623TIP3   OH280359   2.611   1.406  15.251  0.3066  0.5430  0.2811
19623TIP3    H180360   2.669   1.338  15.286  0.1313 -0.0201 -0.4924
19623TIP3    H280361   2.592   1.462  15.326  2.7109  1.3840  0.3625
19624TIP3   OH280362   1.996   4.029  14.225 -0.7083  0.0244  0.1790
19624TIP3    H180363   2.029   4.000  14.310 -0.4044  1.5088  0.6067
19624TIP3    H280364   1.922   4.086  14.246 -2.2848 -1.5894 -0.6926
19625TIP3   OH280365   2.999   6.105  14.286  0.0741  0.2062 -0.0050
19625TIP3    H180366   2.926   6.059  14.327  0.5741  0.1866  0.9028
19625TIP3    H280367   3.076   6.073  14.333  0.7313 -0.1714 -1.2948
19626TIP3   OH280368   2.537   5.120  15.798 -0.1750  0.4591 -0.5320
19626TIP3    H180369   2.518   5.081  15.713 -3.3509 -0.4840  0.4678
19626TIP3    H280370   2.603   5.062  15.836 -1.4274 -1.3582 -0.9496
19627TIP3   OH280371   2.680   2.174   3.799  0.0349 -0.6707 -0.2440
19627TIP3    H180372   2.774   2.191   3.798  0.2847 -2.0094 -0.8187
19627TIP3    H280373   2.664   2.135   3.885 -0.7180  3.0960  1.5262
19628TIP3   OH280374   0.405   2.575   6.238 -0.1595  0.3715 -0.1251
19628TIP3    H180375   0.446   2.502   6.286  2.1178 -0.0525 -2.4819
19628TIP3    H280376   0.338   2.533   6.185 -0.2562  0.2930  0.0597
19629TIP3   OH280377   0.065   4.482  16.471 -0.1246  0.1379 -0.2384
19629TIP3    H180378   0.110   4.418  16.416 -0.7366  0.5779 -1.2761
19629TIP3    H280379   0.024   4.542  16.409  0.6818  1.7205  0.7046
19630TIP3   OH280380   2.155   1.279   3.010  0.0045 -0.0619  0.5161
19630TIP3    H180381   2.198   1.307   3.091  1.2077  0.4665 -0.2922
19630TIP3    H280382   2.100   1.353   2.986 -1.5727 -0.7953  1.6318
19631TIP3   OH280383   3.037   5.853   0.878  0.1109 -0.6509 -0.6319
19631TIP3    H180384   3.073   5.941   0.891 -1.1188 -0.2653  0.3608
19631TIP3    H280385   3.108   5.804   0.838  1.1141  0.5644 -0.4118
19632TIP3   OH280386   5.419   1.637   4.564  0.8342  0.1979 -0.4255
19632TIP3    H180387   5.425   1.680   4.479  1.1294 -0.7446 -0.8973
19632TIP3    H280388   5.339   1.586   4.560  0.5959  0.5271  0.0469
19633TIP3   OH280389   0.969   3.224  14.115 -0.1620 -0.1507 -0.2145
19633TIP3    H180390   1.030   3.261  14.180 -0.6511 -0.5504  0.4796
19633TIP3    H280391   1.025   3.204  14.039  0.5385 -0.3226  0.3341
19634TIP3   OH280392   5.067   3.160  13.281  0.0757  0.0521 -0.5557
19634TIP3    H180393   5.077   3.150  13.376  0.5124 -0.4481 -0.6551
19634TIP3    H280394   5.156   3.165  13.248 -0.0754 -0.0294 -0.9739
19635TIP3   OH280395   5.987   3.304  14.570  0.1921 -0.0324  0.2766
19635TIP3    H180396   5.932   3.375  14.535  1.4916  1.3957  0.9865
19635TIP3    H280397   6.069   3.347  14.593  1.2198 -1.8967  0.2773
19636TIP3   OH280398   6.243   5.254   0.439  0.0358 -0.5074  0.3386
19636TIP3    H180399   6.256   5.159   0.439 -0.3412 -0.6700 -3.0553
19636TIP3    H280400   6.153   5.265   0.470 -0.4841 -1.4134 -0.7725
19637TIP3   OH280401   5.020   1.368  16.877  0.4495 -0.7077  0.0329
19637TIP3    H180402   4.974   1.418  16.810  1.0198  0.8192  0.7451
19637TIP3    H280403   4.982   1.398  16.959  1.0738 -1.1762  0.5010
19638TIP3   OH280404   6.349   5.761  15.287  0.2950  0.2548  0.2901
19638TIP3    H180405   6.443   5.773  15.297  0.0891  2.4398  0.0503
19638TIP3    H280406   6.310   5.812  15.359 -0.7369  1.7927 -1.2863
19639TIP3   OH280407   3.120   5.995  16.728  0.0831 -0.9176  0.5849
19639TIP3    H180408   3.135   6.019  16.637 -1.4049  1.6450  0.8955
19639TIP3    H280409   3.200   5.951  16.756  2.3529  1.9815 -0.8007
19640TIP3   OH280410   6.703   6.570   5.524 -0.3897  0.0804  0.5992
19640TIP3    H180411   6.715   6.618   5.605  1.4983 -0.8183  0.9040
19640TIP3    H280412   6.636   6.505   5.544 -1.3952  1.1619  0.8144
19641TIP3   OH280413   6.016   3.454   2.455 -0.0971 -0.3849  0.1403
19641TIP3    H180414   6.065   3.372   2.458  0.4322 -0.1846 -1.8083
19641TIP3    H280415   6.078   3.519   2.488  0.0312 -0.5244  0.1763
19642TIP3   OH280416   6.466   3.143  11.268  0.6157  0.2760  0.0193
19642TIP3    H180417   6.547   3.176  11.230  0.3275  0.2745 -0.5998
19642TIP3    H280418   6.492   3.062  11.312  0.7339 -0.3800 -1.2298
19643TIP3   OH280419   1.349   4.613   4.600  0.6319  0.3260  0.3289
19643TIP3    H180420   1.385   4.677   4.661  0.8378 -0.2942  0.8737
19643TIP3    H280421   1.425   4.570   4.562  0.4960  0.4003 -0.0271
19644TIP3   OH280422   1.863   4.860   0.815 -0.1794  0.2731  0.0705
19644TIP3    H180423   1.870   4.782   0.761 -0.9243  1.3086 -1.5979
19644TIP3    H280424   1.954   4.886   0.831  0.0684  0.4365 -1.4620
19645TIP3   OH280425   3.855   0.879   3.489 -0.2117 -0.0513  0.2059
19645TIP3    H180426   3.849   0.972   3.510 -1.3711 -0.2813  0.9984
19645TIP3    H280427   3.903   0.841   3.563 -1.5049 -0.3739  0.9053
19646TIP3   OH280428   0.287   3.539   4.927 -0.2462  0.1970 -0.1965
19646TIP3    H180429   0.298   3.545   5.022 -1.3971 -0.8520  0.0370
19646TIP3    H280430   0.272   3.629   4.899  0.7744  0.6013  0.5182
19647TIP3   OH280431   1.986   2.911  15.757  0.4229  0.1626  0.1834
19647TIP3    H180432   1.928   2.894  15.832  0.3067 -0.6871 -0.0877
19647TIP3    H280433   2.029   2.993  15.779  0.4689 -0.1263  1.2378
19648TIP3   OH280434   5.638   1.171  11.422 -0.3855 -0.3763  0.2247
19648TIP3    H180435   5.577   1.201  11.355  2.2356  1.5399 -1.5150
19648TIP3    H280436   5.708   1.127  11.373  1.2193  0.3474  1.7485
19649TIP3   OH280437   1.026   5.054   3.307 -0.0629 -0.0920 -0.3730
19649TIP3    H180438   1.024   5.148   3.289 -0.4127  0.0114  0.1683
19649TIP3    H280439   1.080   5.017   3.237 -0.7258  0.3866 -1.1595
19650TIP3   OH280440   1.015   0.389  13.429  0.8096 -0.3756 -0.4074
19650TIP3    H180441   1.018   0.481  13.455  1.8134 -0.7277  0.8074
19650TIP3    H280442   0.924   0.374  13.403  1.0762  1.4981 -2.7781
19651TIP3   OH280443   2.826   1.478  14.567  0.0628 -0.2669 -0.0186
19651TIP3    H180444   2.922   1.480  14.571  0.0220  0.5527  1.5859
19651TIP3    H280445   2.798   1.539  14.635 -1.6170 -1.9717  0.9274
19652TIP3   OH280446   1.051   0.427   2.937  0.3650  0.5990 -0.2759
19652TIP3    H180447   1.127   0.377   2.965  0.1530 -1.3296 -2.7680
19652TIP3    H280448   1.078   0.469   2.856 -0.6720  1.3985 -0.2319
19653TIP3   OH280449   5.484   3.795   0.013 -0.0320 -0.1106 -0.3457
19653TIP3    H180450   5.414   3.854   0.039 -1.1412 -1.6161  0.2096
19653TIP3    H280451   5.491   3.732   0.085  0.3755 -1.2860 -1.3619
19654TIP3   OH280452   1.712   1.988   6.136  0.2927 -0.6621  0.1969
19654TIP3    H180453   1.761   1.905   6.138  1.9289  0.1128 -2.4957
19654TIP3    H280454   1.777   2.054   6.160  0.2493  0.2522 -2.0576
19655TIP3   OH280455   2.516   4.190   6.240  0.2899  0.3134  0.7825
19655TIP3    H180456   2.477   4.241   6.311  0.1169  0.8676  0.2941
19655TIP3    H280457   2.441   4.159   6.188  0.4692  0.9906  0.1084
19656TIP3   OH280458   2.336   3.011   2.138 -0.1454 -0.4688 -0.4512
19656TIP3    H180459   2.415   2.957   2.141 -0.9284 -1.6189  0.7584
19656TIP3    H280460   2.285   2.976   2.065 -0.2811 -0.8204 -0.1873
19657TIP3   OH280461   4.905   6.384   5.238 -0.3696  0.0234  0.3145
19657TIP3    H180462   5.000   6.389   5.225 -0.4579  0.5624 -0.1379
19657TIP3    H280463   4.876   6.475   5.239 -0.5979 -0.0305  2.6760
19658TIP3   OH280464   0.368   6.479  11.603  0.0124  0.1434 -0.1601
19658TIP3    H180465   0.412   6.436  11.530  1.4865  0.7597  0.3267
19658TIP3    H280466   0.315   6.410  11.643 -0.6050 -0.2671 -1.6149
19659TIP3   OH280467   1.670   5.897  14.089  0.1622  0.1139  0.1979
19659TIP3    H180468   1.737   5.907  14.021 -0.7802 -0.0318 -0.7829
19659TIP3    H280469   1.590   5.878  14.041 -0.2389 -1.5907  1.4316
19660TIP3   OH280470   0.153   2.642  16.649 -0.3056 -0.0841 -0.0404
19660TIP3    H180471   0.158   2.591  16.730 -0.1443  1.5360  0.9980
19660TIP3    H280472   0.235   2.692  16.647 -1.7643  2.4930  0.6055
19661TIP3   OH280473   3.805   0.400  15.140  0.4241  0.2285 -0.0596
19661TIP3    H180474   3.853   0.376  15.061 -1.1777 -0.1379 -0.9778
19661TIP3    H280475   3.768   0.486  15.120 -1.3748 -0.5749 -0.4351
19662TIP3   OH280476   5.550   0.539  13.133  0.0604 -0.0820  0.0281
19662TIP3    H180477   5.529   0.461  13.184  0.3420 -0.0666  0.1696
19662TIP3    H280478   5.579   0.505  13.048  2.9560 -0.3131  0.9960
19663TIP3   OH280479   6.635   5.649  11.530  0.1107  0.6329  0.1866
19663TIP3    H180480   6.658   5.565  11.568  0.8044  0.7293 -0.0150
19663TIP3    H280481   6.683   5.714  11.582 -0.8725  0.9682  0.7248
19664TIP3   OH280482   6.089   3.921   2.462  0.0587  0.1381 -0.3058
19664TIP3    H180483   6.088   3.940   2.368  1.1920  1.0032 -0.1694
19664TIP3    H280484   6.173   3.957   2.492 -0.0774 -0.5597  0.9490
19665TIP3   OH280485   0.209   0.711  11.923 -0.7339 -0.3955 -0.3840
19665TIP3    H180486   0.190   0.805  11.914 -0.4366 -0.5126 -3.2031
19665TIP3    H280487   0.125   0.668  11.904 -0.3516 -0.6896 -1.5254
19666TIP3   OH280488   3.503   0.054  16.096  0.0746 -0.0040 -0.1698
19666TIP3    H180489   3.583   0.002  16.093 -0.3819 -0.7209 -3.5531
19666TIP3    H280490   3.432  -0.010  16.107 -0.2292  0.3619  0.0628
19667TIP3   OH280491   2.534   1.922   5.761  0.1662 -0.4102 -0.0060
19667TIP3    H180492   2.569   1.836   5.736  0.3074 -0.1626 -0.6648
19667TIP3    H280493   2.561   1.933   5.853  0.2488 -1.0143  0.0455
19668TIP3   OH280494   1.972   2.199  11.730  0.0905 -0.1385 -0.0317
19668TIP3    H180495   1.884   2.190  11.764 -0.0704 -1.2675 -0.7006
19668TIP3    H280496   2.021   2.126  11.768  0.3568 -0.3682 -0.7900
19669TIP3   OH280497   5.192   0.624  14.852 -0.0076 -0.0757  0.6430
19669TIP3    H180498   5.205   0.676  14.772 -0.3567 -1.2447 -0.2002
19669TIP3    H280499   5.119   0.668  14.897 -0.2334  0.2313 -0.0017
19670TIP3   OH280500   3.110   0.978  15.929 -0.0251  0.2507  0.1746
19670TIP3    H180501   3.126   0.886  15.950  0.1927  0.1899 -0.2402
19670TIP3    H280502   3.160   1.027  15.995  0.4467  0.0666 -0.0376
19671TIP3   OH280503   4.507   2.580   4.064 -0.3659 -0.7353 -0.7044
19671TIP3    H180504   4.457   2.499   4.068 -1.8147  0.1704  1.1318
19671TIP3    H280505   4.542   2.590   4.153 -1.8037  1.5647 -0.3231
19672TIP3   OH280506   2.804   3.772  16.370 -0.9627 -0.1470 -0.0094
19672TIP3    H180507   2.899   3.788  16.362 -0.8570 -0.9207 -0.3617
19672TIP3    H280508   2.764   3.845  16.322 -0.6116  1.1136  1.5178
19673TIP3   OH280509   4.309   4.677  16.181  0.2392  0.1555  0.2405
19673TIP3    H180510   4.363   4.612  16.138  0.7958 -0.3840  1.6734
19673TIP3    H280511   4.324   4.758  16.132 -0.6591 -0.8050 -1.7224
19674TIP3   OH280512   2.347   5.213   5.299  0.1572 -0.3593 -0.5187
19674TIP3    H180513   2.257   5.184   5.287  0.1170  0.3439 -2.2442
19674TIP3    H280514   2.399   5.133   5.297 -0.2887 -0.6378 -1.3778
19675TIP3   OH280515   3.863   2.171   1.464  0.2337 -0.4469 -0.2703
19675TIP3    H180516   3.786   2.225   1.475  0.6063  0.0064  0.1832
19675TIP3    H280517   3.936   2.233   1.458  0.5850 -0.8706 -0.4960
19676TIP3   OH280518   4.069   6.204  12.625  0.2819  0.7542  0.1634
19676TIP3    H180519   4.094   6.227  12.536  1.2057  0.6399  0.3795
19676TIP3    H280520   4.127   6.257  12.681  0.5496 -0.0562  0.6782
19677TIP3   OH280521   2.760   1.616  12.956  0.2146  0.4366  0.5068
19677TIP3    H180522   2.715   1.590  13.037 -1.1184 -2.7385 -1.0923
19677TIP3    H280523   2.850   1.588  12.969  0.0967  0.2844  1.0138
19678TIP3   OH280524   2.406   6.741  15.561 -0.0518  0.0150  0.4812
19678TIP3    H180525   2.476   6.676  15.556 -0.7189 -0.7636  0.9064
19678TIP3    H280526   2.448   6.819  15.598  0.6086 -0.4114  0.6478
19679TIP3   OH280527   6.280   3.970   2.927 -0.4711  0.1949  0.2871
19679TIP3    H180528   6.375   3.978   2.919 -0.4503 -0.5637 -0.2701
19679TIP3    H280529   6.261   4.008   3.013  0.7925 -3.0089  2.2032
19680TIP3   OH280530   5.269   3.830  14.445  0.1100 -0.1471  0.3380
19680TIP3    H180531   5.177   3.816  14.467  0.2233  0.4685  1.2736
19680TIP3    H280532   5.275   3.923  14.426  0.8466  0.1660  1.9569
19681TIP3   OH280533   1.738   0.766  12.154  0.2808 -0.2741 -0.3867
19681TIP3    H180534   1.657   0.778  12.203  1.0421  0.9017  0.6513
19681TIP3    H280535   1.805   0.807  12.209  1.1763  1.2193 -2.4717
19682TIP3   OH280536   3.649   1.121   3.961  0.0133  0.5495  0.3363
19682TIP3    H180537   3.742   1.134   3.978  0.1503  0.0803 -0.0546
19682TIP3    H280538   3.612   1.099   4.047  0.2901  0.5712  0.4621
19683TIP3   OH280539   1.576   6.240  12.850  0.0684  0.5150  0.5331
19683TIP3    H180540   1.598   6.308  12.914 -2.6916  0.5854  1.5417
19683TIP3    H280541   1.573   6.286  12.766  1.9447  0.7857  0.5615
19684TIP3   OH280542   6.446   3.069  12.845  0.3802  0.0108  0.5110
19684TIP3    H180543   6.439   3.164  12.854  0.0119  0.0072  0.2694
19684TIP3    H280544   6.403   3.034  12.923  1.0184  0.0493  0.8839
19685TIP3   OH280545   1.609   4.886  13.403 -0.2496  0.2535  0.6192
19685TIP3    H180546   1.550   4.830  13.455 -0.4015 -1.0883 -0.9275
19685TIP3    H280547   1.561   4.968  13.394 -2.5941 -1.1922 -1.6560
19686TIP3   OH280548   0.070   0.482   5.229  0.0920 -0.5703  0.1741
19686TIP3    H180549   0.040   0.457   5.317 -0.1531 -0.9183 -0.0081
19686TIP3    H280550   0.073   0.400   5.180 -3.4045 -0.0358 -1.2709
19687TIP3   OH280551   5.220   2.068   4.547  0.4249 -0.7935  0.2709
19687TIP3    H180552   5.197   2.021   4.627 -0.0651 -1.1218 -0.0599
19687TIP3    H280553   5.138   2.074   4.498  0.3802  0.7818  0.4919
19688TIP3   OH280554   5.036   6.390   0.347  0.2492  0.4792 -0.2274
19688TIP3    H180555   4.960   6.437   0.381  1.2273  1.4032  0.7642
19688TIP3    H280556   5.104   6.457   0.337  0.8656 -0.2776 -1.3520
19689TIP3   OH280557   2.217   1.151  16.462  0.5392 -0.0852 -0.1028
19689TIP3    H180558   2.158   1.078  16.480  0.0578  0.2387 -0.3354
19689TIP3    H280559   2.300   1.125  16.501  0.1797 -0.4448  0.4364
19690TIP3   OH280560   2.559   1.040   2.456  0.0894 -0.1140 -0.5871
19690TIP3    H180561   2.597   1.112   2.406  1.2927 -0.9501 -0.9297
19690TIP3    H280562   2.545   0.970   2.391 -0.0839 -0.5624 -0.0812
19691TIP3   OH280563   5.762   1.428   1.521 -0.2002 -0.1777  0.6653
19691TIP3    H180564   5.706   1.407   1.596 -0.8243  0.4155  0.3819
19691TIP3    H280565   5.843   1.460   1.560 -0.3705 -0.2575  1.0915
19692TIP3   OH280566   4.970   6.217   4.271  0.1245  0.7986  0.0362
19692TIP3    H180567   4.929   6.137   4.303 -0.0779 -0.0738 -2.2538
19692TIP3    H280568   4.945   6.284   4.336 -1.8959 -0.4311  0.6152
19693TIP3   OH280569   4.964   4.989   4.998 -0.0164  0.0448 -0.1029
19693TIP3    H180570   5.055   4.997   5.027  0.6853 -3.6655 -0.7768
19693TIP3    H280571   4.919   4.946   5.071 -0.5935 -0.4876 -0.7564
19694TIP3   OH280572   4.217   5.878  10.482 -0.4023  0.3973 -0.4435
19694TIP3    H180573   4.148   5.944  10.492  0.2586  0.7667  2.2436
19694TIP3    H280574   4.295   5.918  10.518  0.4121 -1.2823 -0.2336
19695TIP3   OH280575   1.603   5.600  14.360 -0.6150  0.3824  0.3417
19695TIP3    H180576   1.608   5.566  14.270 -0.9972  1.2351 -0.0146
19695TIP3    H280577   1.581   5.524  14.413 -1.5653  0.0858 -0.4488
19696TIP3   OH280578   1.790   4.706  12.108  0.6359 -0.2999 -0.4193
19696TIP3    H180579   1.817   4.654  12.183 -0.6559 -0.8930 -0.3342
19696TIP3    H280580   1.736   4.776  12.146  0.0231 -0.5715 -0.7771
19697TIP3   OH280581   2.100   5.121  12.893 -0.4386  0.3357 -0.2732
19697TIP3    H180582   2.043   5.196  12.875  1.5735  2.1352  0.3578
19697TIP3    H280583   2.107   5.119  12.989  0.8496  0.4387 -0.3431
19698TIP3   OH280584   2.548   3.831   5.888 -0.0881 -0.1112 -0.8179
19698TIP3    H180585   2.454   3.828   5.909 -0.5235  0.6984 -2.4701
19698TIP3    H280586   2.573   3.923   5.902  1.0273 -0.6891  1.6249
19699TIP3   OH280587   1.010   2.083   3.809 -0.5025  0.3127  0.1802
19699TIP3    H180588   1.092   2.100   3.856 -0.1028 -0.2629 -0.2953
19699TIP3    H280589   1.031   2.013   3.747 -0.7535  1.7357 -1.5830
19700TIP3   OH280590   2.316   2.662  16.791 -0.0162  1.2309  0.2342
19700TIP3    H180591   2.288   2.583  16.838 -0.3285  1.3434  0.2356
19700TIP3    H280592   2.353   2.629  16.709  0.6647  1.0236  0.6172
19701TIP3   OH280593   3.365   4.342   3.890 -0.5428 -0.1915 -0.2962
19701TIP3    H180594   3.413   4.390   3.957  1.8405 -2.5288 -0.1582
19701TIP3    H280595   3.329   4.409   3.833  0.7851  1.7674  1.0587
19702TIP3   OH280596   6.773   4.745  14.512  0.0170 -0.4351 -0.0789
19702TIP3    H180597   6.769   4.727  14.606  1.8913  0.7872  0.2862
19702TIP3    H280598   6.779   4.841  14.506 -0.7052 -0.4527 -1.4919
19703TIP3   OH280599   6.073   5.120  14.033  0.4371  0.0973 -0.3889
19703TIP3    H180600   5.978   5.122  14.029  0.3404 -1.0762  0.7952
19703TIP3    H280601   6.095   5.029  14.053  1.7689  0.5075  0.1202
19704TIP3   OH280602   1.328   6.229   0.657 -0.2142 -0.7319 -0.3439
19704TIP3    H180603   1.421   6.238   0.641 -0.1061 -0.4142  0.4112
19704TIP3    H280604   1.287   6.295   0.600  0.2028  0.8419  1.0805
19705TIP3   OH280605   4.845   0.798   4.247 -0.3162  0.5579  0.8257
19705TIP3    H180606   4.869   0.742   4.321 -1.0999  0.1260  0.7571
19705TIP3    H280607   4.805   0.875   4.287  1.5669  1.5220  0.9706
19706TIP3   OH280608   2.431   1.117   6.685 -0.2029 -0.2030  0.8522
19706TIP3    H180609   2.520   1.080   6.679 -0.2317 -0.0324 -0.9396
19706TIP3    H280610   2.375   1.051   6.646 -0.6889  0.3262  0.6511
19707TIP3   OH280611   0.784   0.692  13.048 -0.0999 -0.6550 -0.2096
19707TIP3    H180612   0.778   0.765  12.987 -0.0731 -0.6000 -0.1481
19707TIP3    H280613   0.871   0.700  13.087 -0.8146  0.4674  1.2637
19708TIP3   OH280614   6.011   4.404  16.616 -0.0089 -0.1998  0.1284
19708TIP3    H180615   5.924   4.432  16.646 -0.7131 -0.9777 -1.0752
19708TIP3    H280616   5.997   4.313  16.588  1.8288 -1.3204  2.4882
19709TIP3   OH280617   2.094   0.995   3.406 -0.5500  0.2413  1.0090
19709TIP3    H180618   2.175   0.975   3.360 -1.0177  0.6015  0.0066
19709TIP3    H280619   2.122   1.045   3.484  0.1823  0.3654  0.6725
19710TIP3   OH280620   4.401   3.905  15.740 -0.7324 -0.7601  0.3960
19710TIP3    H180621   4.480   3.945  15.777 -1.0477 -1.1050  1.4592
19710TIP3    H280622   4.350   3.877  15.815 -2.1584 -0.0359 -0.2535
19711TIP3   OH280623   5.021   3.516   0.151 -0.1638  0.6228  0.1053
19711TIP3    H180624   4.973   3.573   0.091  0.0257 -0.3477 -1.0128
19711TIP3    H280625   5.014   3.429   0.112  1.9319  0.3395  0.2494
19712TIP3   OH280626   0.271   5.091   2.017 -0.1494  0.0300  0.2147
19712TIP3    H180627   0.212   5.119   1.947 -0.5757 -0.9627  0.1550
19712TIP3    H280628   0.296   5.001   1.993  2.2044  0.7375 -0.3007
19713TIP3   OH280629   1.091   5.818   1.784  0.0199  0.9520  0.6126
19713TIP3    H180630   1.103   5.814   1.689  0.9939  0.0360  0.7608
19713TIP3    H280631   1.008   5.864   1.795  0.0207  1.3095 -0.6740
19714TIP3   OH280632   5.837   6.465   5.509 -0.3029 -0.1995  0.3119
19714TIP3    H180633   5.866   6.434   5.423 -0.2129  2.0016 -0.5189
19714TIP3    H280634   5.832   6.560   5.500 -0.5938  0.0779  2.6690
19715TIP3   OH280635   0.747   5.964  16.567 -0.5198 -0.2392 -0.3257
19715TIP3    H180636   0.707   5.884  16.599  1.2658 -1.2909 -0.5850
19715TIP3    H280637   0.748   5.954  16.471  0.2253 -0.2031 -0.3335
19716TIP3   OH280638   6.277   5.994  16.511  0.3594  0.3250 -0.4945
19716TIP3    H180639   6.344   5.948  16.460  1.0966  0.1192  0.6118
19716TIP3    H280640   6.195   5.976  16.465  0.4864 -2.6978  0.2341
19717TIP3   OH280641   1.055   3.820  16.902  0.1466 -0.2999  0.0641
19717TIP3    H180642   1.085   3.901  16.943  0.4437 -0.3512 -0.0453
19717TIP3    H280643   1.027   3.846  16.814 -0.4226 -0.2018  0.2725
19718TIP3   OH280644   5.461   3.262  16.690 -0.3060  0.0427  0.4874
19718TIP3    H180645   5.472   3.231  16.780  2.7823  0.4942  0.3785
19718TIP3    H280646   5.469   3.184  16.636 -0.6171 -0.0194  0.5294
19719TIP3   OH280647   3.626   3.487  10.935 -0.4871  0.0238 -0.3054
19719TIP3    H180648   3.586   3.470  11.020 -0.1614 -1.0154 -0.3369
19719TIP3    H280649   3.658   3.577  10.940 -0.5911  0.0156  0.6175
19720TIP3   OH280650   5.230   4.462  14.092  0.2565 -0.0057 -0.3541
19720TIP3    H180651   5.286   4.387  14.073  1.8493  1.5572 -2.1884
19720TIP3    H280652   5.283   4.518  14.149 -0.0731  0.7540 -0.7859
19721TIP3   OH280653   5.335   4.198   1.109 -0.0887 -0.3307  0.3371
19721TIP3    H180654   5.280   4.252   1.052  0.8372  0.8440  0.5171
19721TIP3    H280655   5.327   4.109   1.073  1.4156  0.5386 -2.4083
19722TIP3   OH280656   3.151   2.413   1.825 -0.2025  0.5636  0.0647
19722TIP3    H180657   3.197   2.342   1.781  0.4277  1.3710 -0.6001
19722TIP3    H280658   3.059   2.399   1.803 -0.0937 -0.0770 -0.0032
19723TIP3   OH280659   2.711   3.836  11.751 -0.4522  0.0315  0.3786
19723TIP3    H180660   2.728   3.926  11.777  1.2384 -0.1959  0.2295
19723TIP3    H280661   2.708   3.838  11.655 -2.8313  0.2715  0.4125
19724TIP3   OH280662   0.631   1.023  14.491  0.2919 -0.5949  0.0150
19724TIP3    H180663   0.550   1.072  14.498  1.5820  1.8989 -1.2852
19724TIP3    H280664   0.618   0.947  14.548 -1.9417  1.0830  1.9354
19725TIP3   OH280665   5.654   0.090  11.890 -0.2312 -0.1154 -0.4603
19725TIP3    H180666   5.621   0.153  11.954  1.0691  1.6593 -1.4531
19725TIP3    H280667   5.575   0.055  11.849 -1.0207  0.0534  0.8542
19726TIP3   OH280668   2.274   5.089   4.085 -0.0699  0.4435 -0.1509
19726TIP3    H180669   2.348   5.029   4.091  0.1641  0.8414  1.1789
19726TIP3    H280670   2.314   5.172   4.058 -0.3759  0.0865 -1.8601
19727TIP3   OH280671   1.261   3.562   4.468  0.2079  0.5474 -0.1032
19727TIP3    H180672   1.291   3.574   4.558 -1.4311  0.4980  0.4690
19727TIP3    H280673   1.217   3.477   4.468  1.4102 -0.1256 -1.3167
19728TIP3   OH280674   3.259   2.714  15.307 -0.7174  0.3558  0.0598
19728TIP3    H180675   3.331   2.672  15.354 -1.0846  1.7903  2.0322
19728TIP3    H280676   3.284   2.806  15.304 -0.2543  0.2375 -3.5445
19729TIP3   OH280677   3.922   5.955   0.143  0.0481  0.0552 -0.6655
19729TIP3    H180678   3.911   5.862   0.124  1.1629 -0.0058 -1.0811
19729TIP3    H280679   3.852   5.975   0.205  0.5271 -1.3535  0.3881
19730TIP3   OH280680   1.941   1.420   5.358 -0.2926 -0.3265 -0.2890
19730TIP3    H180681   2.021   1.399   5.310  0.1268  3.6179 -1.7098
19730TIP3    H280682   1.870   1.407   5.294 -0.1078  1.5064 -0.9228
19731TIP3   OH280683   5.420   6.079  16.237  0.2535  0.1568  0.1645
19731TIP3    H180684   5.459   6.053  16.321 -0.9730  0.2445  0.7844
19731TIP3    H280685   5.392   6.170  16.251  0.6209  0.3939 -0.5683
19732TIP3   OH280686   1.901   4.875  16.232 -0.0409  0.1081  0.2320
19732TIP3    H180687   1.908   4.964  16.265  1.2705  0.2857 -0.4457
19732TIP3    H280688   1.840   4.881  16.158 -0.7586  0.2338  0.8223
19733TIP3   OH280689   0.856   2.715  14.177  0.2576  0.5723 -0.5146
19733TIP3    H180690   0.942   2.690  14.142  1.3458  0.4228  2.0641
19733TIP3    H280691   0.822   2.635  14.217 -1.7795  0.2657 -2.6733
19734TIP3   OH280692   3.945   5.652  17.300  0.0613 -0.3988  0.6081
19734TIP3    H180693   3.932   5.570  17.347 -0.9680 -0.8203 -0.3647
19734TIP3    H280694   4.006   5.629  17.229  1.1381  0.0937  1.3572
19735TIP3   OH280695   1.446   2.111   4.786  0.0254  0.2497 -0.1541
19735TIP3    H180696   1.483   2.023   4.794 -3.4729 -1.4504 -0.9983
19735TIP3    H280697   1.447   2.129   4.692  0.5716  1.0773 -0.0006
19736TIP3   OH280698   1.754   3.747  12.425  0.2011  0.2803 -0.2169
19736TIP3    H180699   1.711   3.734  12.341 -1.9115  0.2308  0.7953
19736TIP3    H280700   1.737   3.839  12.447  0.9549  0.3641  0.0628
19737TIP3   OH280701   1.435   0.481  11.614  0.7031 -0.0103  0.2286
19737TIP3    H180702   1.392   0.397  11.597  0.2130  0.0608  1.0648
19737TIP3    H280703   1.473   0.506  11.530  0.7167 -0.9905 -0.0661
19738TIP3   OH280704   0.070   1.067  15.425 -0.3227  0.4875 -0.4434
19738TIP3    H180705  -0.019   1.073  15.461  0.2056 -1.5397  1.4504
19738TIP3    H280706   0.076   1.141  15.365 -2.2537  2.5541  1.6593
19739TIP3   OH280707   5.623   4.795   3.742 -0.8316 -0.4221 -0.2703
19739TIP3    H180708   5.628   4.886   3.714  1.2508  0.3173  2.0696
19739TIP3    H280709   5.697   4.752   3.698  0.9298  0.1747  1.8779
19740TIP3   OH280710   0.655   1.234  17.222 -0.2135  0.3015 -0.5254
19740TIP3    H180711   0.699   1.170  17.165  0.3202 -0.3473  0.5643
19740TIP3    H280712   0.642   1.311  17.167  0.4869 -0.2205 -1.4516
19741TIP3   OH280713   1.094   5.889  10.585 -0.0668  0.0493  0.4184
19741TIP3    H180714   1.079   5.954  10.516 -0.4739  1.0235  1.4054
19741TIP3    H280715   1.054   5.809  10.551 -2.0553  1.0212  0.3475
19742TIP3   OH280716   6.615   4.047   4.824  0.1556  0.3279 -0.0361
19742TIP3    H180717   6.704   4.061   4.793 -0.1842 -0.7914 -1.6726
19742TIP3    H280718   6.614   3.956   4.854 -0.1278  0.7172  1.2060
19743TIP3   OH280719   1.151   6.041   6.265  0.0385 -0.1493  0.3331
19743TIP3    H180720   1.119   6.131   6.272  1.3935  0.6569 -2.4265
19743TIP3    H280721   1.073   5.990   6.243 -0.9118  0.1116  2.7802
19744TIP3   OH280722   3.167   5.350   4.638 -0.2008 -0.1171  0.7383
19744TIP3    H180723   3.104   5.283   4.612  1.1869 -1.0621 -0.3541
19744TIP3    H280724   3.185   5.332   4.730 -0.0076 -1.1162  0.5092
19745TIP3   OH280725   0.428   1.634   2.202  0.2345 -0.0222 -0.1146
19745TIP3    H180726   0.339   1.619   2.171 -0.4153  0.2921  1.4870
19745TIP3    H280727   0.464   1.546   2.215 -0.6652 -0.1962  1.3987
19746TIP3   OH280728   4.036   1.432   0.999 -0.2321  0.1682 -0.0966
19746TIP3    H180729   3.968   1.450   0.935 -0.9162  1.7048  0.9929
19746TIP3    H280730   4.093   1.509   0.996  0.1131 -0.0438  0.6757
19747TIP3   OH280731   0.427   0.387  17.110 -0.0208 -0.0162 -0.1560
19747TIP3    H180732   0.500   0.449  17.102 -1.3481  1.3734 -2.9528
19747TIP3    H280733   0.462   0.305  17.073  0.2596  0.5364 -1.1554
19748TIP3   OH280734   1.936   0.351   6.207  0.4820  0.6820  0.4558
19748TIP3    H180735   2.010   0.409   6.188  0.4870  0.8516  0.9810
19748TIP3    H280736   1.911   0.316   6.122  2.1656 -0.6002  0.4410
19749TIP3   OH280737   5.553   3.258   4.574  0.0606 -0.1661 -0.0380
19749TIP3    H180738   5.557   3.219   4.487  0.3374 -0.3005  0.0331
19749TIP3    H280739   5.554   3.352   4.558  2.5898 -0.1273 -0.1163
19750TIP3   OH280740   1.472   2.324  14.909 -0.5478  0.0465  0.4227
19750TIP3    H180741   1.396   2.374  14.938 -0.3607  0.3104  0.4633
19750TIP3    H280742   1.539   2.342  14.975  0.2042  1.4332 -0.6501
19751TIP3   OH280743   4.897   6.713  14.423  0.3286  0.3662  0.2655
19751TIP3    H180744   4.920   6.797  14.384 -2.2596  0.7213 -0.6824
19751TIP3    H280745   4.834   6.675  14.362  0.3350 -1.6227  1.4182
19752TIP3   OH280746   4.769   3.735   2.181  0.3258  0.1116  0.0273
19752TIP3    H180747   4.797   3.752   2.271 -0.8645  0.3249  0.3784
19752TIP3    H280748   4.842   3.764   2.127  0.9613  0.2003  0.9145
19753TIP3   OH280749   1.367   0.691   6.736 -0.3954 -0.2792 -0.1945
19753TIP3    H180750   1.448   0.721   6.694 -0.4324  1.4356  0.8606
19753TIP3    H280751   1.300   0.699   6.668 -0.5359  2.8108  0.1880
19754TIP3   OH280752   6.033   5.420   6.487  0.0188 -0.6593  0.3560
19754TIP3    H180753   6.094   5.364   6.439 -1.6360 -2.7949  0.5968
19754TIP3    H280754   6.082   5.450   6.563  0.7379 -2.5163  0.6689
19755TIP3   OH280755   1.194   0.908  15.721  0.4249 -0.0096 -0.2582
19755TIP3    H180756   1.174   0.935  15.811  0.4171 -1.3763  0.1679
19755TIP3    H280757   1.131   0.956  15.667 -1.6503 -1.4854  0.7292
19756TIP3   OH280758   1.324   5.763  16.372 -0.2702 -0.3965  0.4723
19756TIP3    H180759   1.342   5.804  16.457 -0.9689 -0.9731  0.9077
19756TIP3    H280760   1.400   5.786  16.319  0.2474 -0.1388  1.2952
19757TIP3   OH280761   3.931   6.462   1.133  0.2731  0.2025 -0.0015
19757TIP3    H180762   3.859   6.509   1.175 -0.4961 -0.6027 -0.3698
19757TIP3    H280763   3.907   6.461   1.040  0.1660 -1.0611  0.0233
19758TIP3   OH280764   4.905   5.308  15.514 -0.4344  0.0642  0.0934
19758TIP3    H180765   4.951   5.388  15.489 -2.9919  2.5315  2.5362
19758TIP3    H280766   4.916   5.303  15.609 -1.2448 -1.9217  0.1244
19759TIP3   OH280767   5.042   1.428  15.504 -0.0864  0.0090 -0.6451
19759TIP3    H180768   4.989   1.396  15.576 -2.8860  0.8885 -2.1580
19759TIP3    H280769   4.994   1.505  15.471  2.0328  0.7441 -2.2857
19760TIP3   OH280770   0.006   0.353  16.111  0.7316  0.1663 -0.3359
19760TIP3    H180771   0.046   0.281  16.159 -1.2936 -0.3573  0.7132
19760TIP3    H280772  -0.082   0.322  16.091  1.1495  0.7660 -3.5793
19761TIP3   OH280773   0.911   0.027   0.316  0.2694 -0.2995 -0.5043
19761TIP3    H180774   0.905   0.112   0.361  0.3345 -1.7354  2.3998
19761TIP3    H280775   0.824  -0.011   0.326  0.1952 -0.5763 -1.9312
19762TIP3   OH280776   3.780   4.082   3.992  1.1353  0.7666  0.0652
19762TIP3    H180777   3.748   4.166   3.959  2.3555  1.7628  1.3204
19762TIP3    H280778   3.783   4.093   4.087 -0.1652 -1.2527  0.4248
19763TIP3   OH280779   4.285   5.450   5.400  0.1792 -0.1601 -0.3686
19763TIP3    H180780   4.206   5.496   5.371 -1.5542 -2.0637  1.0496
19763TIP3    H280781   4.281   5.454   5.496  0.5873 -2.1638 -0.2225
19764TIP3   OH280782   0.313   5.144  13.747 -0.4313 -0.2683  0.1063
19764TIP3    H180783   0.352   5.129  13.661  1.3072 -0.0500  0.8292
19764TIP3    H280784   0.236   5.198  13.728 -0.4178 -0.7080 -1.3631
19765TIP3   OH280785   2.872   4.325   2.968  0.3945 -0.0510 -0.1413
19765TIP3    H180786   2.788   4.281   2.954  0.2023  0.0318  0.7042
19765TIP3    H280787   2.901   4.295   3.054  0.9693  0.3451 -0.1908
19766TIP3   OH280788   4.562   2.667   3.278  0.1604 -0.5029 -0.2192
19766TIP3    H180789   4.588   2.577   3.295 -0.5292 -1.0215 -1.7279
19766TIP3    H280790   4.471   2.673   3.308  0.1172 -0.3867 -0.3688
19767TIP3   OH280791   1.989   5.514   4.973 -0.1996  0.1110  0.0286
19767TIP3    H180792   1.942   5.562   5.041 -0.5464  1.2182 -0.9631
19767TIP3    H280793   1.946   5.539   4.891  0.7093 -0.5817 -0.6878
19768TIP3   OH280794   4.115   2.350   2.985 -0.2382 -0.2872 -0.1910
19768TIP3    H180795   4.203   2.332   3.017  0.5515  0.3612 -1.8661
19768TIP3    H280796   4.127   2.421   2.922 -1.7854 -1.0138 -1.3585
19769TIP3   OH280797   1.656   3.893  15.393 -0.2291  0.4672 -1.1205
19769TIP3    H180798   1.684   3.962  15.454  0.9578  0.4577 -1.6346
19769TIP3    H280799   1.581   3.931  15.348  0.5223  1.5187 -1.5254
19770TIP3   OH280800   0.831   0.097  15.045 -0.1018 -0.0739  0.4523
19770TIP3    H180801   0.746   0.118  15.084 -0.6001 -0.4798 -0.3621
19770TIP3    H280802   0.828   0.137  14.958  1.1109  1.1039  0.9277
19771TIP3   OH280803   2.940   3.442   1.592 -0.2023  0.1375  0.4647
19771TIP3    H180804   3.030   3.474   1.594 -0.0973 -0.1368  0.0867
19771TIP3    H280805   2.898   3.485   1.667 -0.1845  1.5186 -0.2882
19772TIP3   OH280806   5.342   3.019  12.005  0.2828  0.0000 -0.1150
19772TIP3    H180807   5.264   3.022  12.061  1.4933  0.2571  1.6578
19772TIP3    H280808   5.409   2.977  12.060  1.3551 -0.3521 -1.6368
19773TIP3   OH280809   6.708   5.585  17.082 -0.1371  0.3583 -0.5424
19773TIP3    H180810   6.635   5.609  17.024 -0.5029  1.0671  0.1886
19773TIP3    H280811   6.769   5.537  17.025 -1.3279 -0.5655 -1.0891
19774TIP3   OH280812   1.522   1.058  14.988 -0.3360 -0.3368 -0.3870
19774TIP3    H180813   1.554   0.990  14.929  1.4752 -1.7876  2.0570
19774TIP3    H280814   1.455   1.014  15.041  1.2367 -0.5227  1.5837
19775TIP3   OH280815   4.309   4.264  13.510  0.1778  0.3423 -0.1352
19775TIP3    H180816   4.352   4.181  13.489 -1.2635  0.0908 -2.6113
19775TIP3    H280817   4.302   4.265  13.605 -1.7585 -3.5259 -0.0193
19776TIP3   OH280818   0.511   0.944  15.366 -0.0340 -0.0338  0.1217
19776TIP3    H180819   0.604   0.923  15.370 -0.4261 -1.8937  0.3628
19776TIP3    H280820   0.499   1.015  15.430  1.3597  0.8982 -0.6222
19777TIP3   OH280821   4.621   2.791  13.784 -1.0343  0.0984  0.5775
19777TIP3    H180822   4.609   2.877  13.744 -1.2070  0.0996  0.6303
19777TIP3    H280823   4.536   2.748  13.775 -0.3872 -0.8955 -1.3496
19778TIP3   OH280824   0.909   0.638  13.751 -0.5266  0.7838 -0.3970
19778TIP3    H180825   0.963   0.640  13.672 -0.8127  0.7680 -0.5967
19778TIP3    H280826   0.971   0.642  13.823  0.1032 -3.2173 -0.4865
19779TIP3   OH280827   4.111   4.604  10.985  0.5113  0.6165  0.4860
19779TIP3    H180828   4.074   4.673  10.930  1.5608 -0.3501 -1.5487
19779TIP3    H280829   4.046   4.590  11.054 -0.8653  1.8901 -0.5053
19780TIP3   OH280830   5.356   6.476  15.197  0.0945  0.1551  0.3511
19780TIP3    H180831   5.358   6.384  15.222  0.1028 -0.7410 -2.5823
19780TIP3    H280832   5.269   6.489  15.161 -0.7179  1.9751  2.7302
19781TIP3   OH280833   2.455   1.151  14.849 -0.3622 -0.5486  0.1597
19781TIP3    H180834   2.364   1.153  14.878 -0.0537 -0.2208  1.1522
19781TIP3    H280835   2.468   1.234  14.805  0.2120  0.7125  2.5230
19782TIP3   OH280836   2.383   5.936   1.722 -0.6951 -0.0342 -0.0436
19782TIP3    H180837   2.303   5.989   1.715 -1.3536 -1.0245 -0.3394
19782TIP3    H280838   2.416   5.930   1.633 -0.9753 -0.6209 -0.1153
19783TIP3   OH280839   1.999   2.773   0.681 -0.8869  0.3276 -0.0096
19783TIP3    H180840   1.933   2.730   0.627 -0.3187  0.9774 -1.2731
19783TIP3    H280841   1.952   2.842   0.727 -1.4771 -0.5535  0.7644
19784TIP3   OH280842   5.997   3.643   2.219 -0.1687  0.1849 -0.3156
19784TIP3    H180843   6.003   3.582   2.293  0.6320  1.3858  0.6627
19784TIP3    H280844   5.938   3.712   2.250 -0.9911 -0.0208 -1.3711
19785TIP3   OH280845   0.538   6.343   6.233  0.8250  0.7730 -0.0088
19785TIP3    H180846   0.631   6.362   6.239  1.6563 -2.5780 -0.4436
19785TIP3    H280847   0.526   6.309   6.145 -0.6170  0.2924  0.3498
19786TIP3   OH280848   0.211   0.632   1.175  0.3964 -0.2893 -0.5707
19786TIP3    H180849   0.188   0.724   1.185 -0.8070 -0.6971  0.8285
19786TIP3    H280850   0.128   0.589   1.155  0.9071 -1.0901 -1.0125
19787TIP3   OH280851   4.168   6.297  14.321 -0.1052  0.5872 -0.6376
19787TIP3    H180852   4.260   6.315  14.340  0.0183 -1.8105  1.6525
19787TIP3    H280853   4.120   6.360  14.374  0.1399  2.0148 -2.0313
19788TIP3   OH280854   0.151   5.531  15.394 -0.2836  0.2319  0.1885
19788TIP3    H180855   0.098   5.513  15.317 -1.1910  0.5207  0.7364
19788TIP3    H280856   0.091   5.571  15.456  0.3920 -0.1723  1.1223
19789TIP3   OH280857   3.604   5.965   4.284  0.2162  0.0455  0.6995
19789TIP3    H180858   3.594   6.003   4.372 -0.2081 -1.7868  1.4982
19789TIP3    H280859   3.528   5.908   4.275  0.0946  0.4394 -1.0198
19790TIP3   OH280860   2.419   2.205   4.791 -0.0527  0.2891 -0.1783
19790TIP3    H180861   2.323   2.214   4.790 -0.0845 -0.0121 -1.6507
19790TIP3    H280862   2.435   2.111   4.783  0.3895  0.1614  1.6599
19791TIP3   OH280863   6.350   1.264  13.314 -0.2369 -0.0632  0.0248
19791TIP3    H180864   6.435   1.240  13.351 -0.2938 -1.1763 -0.4999
19791TIP3    H280865   6.366   1.270  13.220 -0.3286  1.6714  0.0931
19792TIP3   OH280866   0.594   2.162  17.116 -0.4710  0.2850 -0.2698
19792TIP3    H180867   0.679   2.169  17.073 -0.2923  1.1043  0.2029
19792TIP3    H280868   0.547   2.097  17.065 -0.7178  2.0761 -2.4677
19793TIP3   OH280869   1.304   0.728   3.922  0.1308  0.0030 -0.0633
19793TIP3    H180870   1.388   0.730   3.967  1.5110 -1.5507 -2.3755
19793TIP3    H280871   1.298   0.813   3.879 -0.2549  0.7066  1.3049
19794TIP3   OH280872   3.422   2.366   5.750  0.3123 -0.1791  0.2252
19794TIP3    H180873   3.378   2.451   5.754 -0.2847 -0.4592 -0.2903
19794TIP3    H280874   3.399   2.331   5.665  0.5600 -0.8606  0.4339
19795TIP3   OH280875   6.167   4.066   4.193 -0.2440  0.6758 -0.8893
19795TIP3    H180876   6.106   4.011   4.144 -0.3286 -0.1016  0.0386
19795TIP3    H280877   6.254   4.037   4.165 -0.2838  1.3118 -1.7071
19796TIP3   OH280878   6.759   3.133  15.218 -0.4002  0.4989 -0.4077
19796TIP3    H180879   6.747   3.038  15.230  0.6720  0.4115  0.1445
19796TIP3    H280880   6.803   3.140  15.133  0.5036  0.4077  0.0418
19797TIP3   OH280881   2.705   2.286   4.994 -0.0552 -0.9247  0.4920
19797TIP3    H180882   2.702   2.200   5.036  1.1561 -0.4550  1.5935
19797TIP3    H280883   2.769   2.336   5.044 -0.0734  0.3489 -0.6724
19798TIP3   OH280884   4.164   3.716  15.356 -0.6211 -0.9406  0.0917
19798TIP3    H180885   4.181   3.716  15.450 -1.4434 -2.9799  0.3130
19798TIP3    H280886   4.247   3.741  15.316  0.2685 -1.7840  1.3343
19799TIP3   OH280887   5.502   1.360   3.512 -0.1443 -0.0037 -0.1235
19799TIP3    H180888   5.581   1.350   3.459 -1.0341 -3.3769 -1.0407
19799TIP3    H280889   5.475   1.450   3.497  1.5068  0.1748 -2.7176
19800TIP3   OH280890   2.497   1.505  13.587 -0.0202 -0.0599  0.4044
19800TIP3    H180891   2.412   1.475  13.617  0.8950 -1.4333  1.7626
19800TIP3    H280892   2.544   1.529  13.668  0.2899  2.4410 -0.4199
19801TIP3   OH280893   0.626   6.750   3.994  0.1630  0.1144 -0.3499
19801TIP3    H180894   0.680   6.815   4.039  1.8913  0.0293 -2.1689
19801TIP3    H280895   0.596   6.692   4.065 -1.0501  2.5326  1.2502
19802TIP3   OH280896   1.396   3.897  11.790  0.0591  0.0191 -0.1811
19802TIP3    H180897   1.343   3.859  11.720 -1.8674  0.3909  0.9907
19802TIP3    H280898   1.418   3.985  11.758  0.2714 -0.2629 -0.8261
19803TIP3   OH280899   3.516   6.134  12.688  0.0188 -0.4768  0.6622
19803TIP3    H180900   3.553   6.191  12.620  0.0550 -0.0192  1.0564
19803TIP3    H280901   3.566   6.053  12.682 -0.1265 -0.5261 -0.0013
19804TIP3   OH280902   3.491   4.656  16.692 -0.4732  0.8263 -0.2964
19804TIP3    H180903   3.552   4.645  16.764 -2.0854 -0.3537  0.9624
19804TIP3    H280904   3.511   4.584  16.632 -3.7978 -3.0166  2.6225
19805TIP3   OH280905   3.132   3.980  14.275 -0.2067 -0.3429  0.0034
19805TIP3    H180906   3.199   4.028  14.325 -0.4706 -0.8532  0.8635
19805TIP3    H280907   3.148   4.006  14.184  0.8047 -0.0226  0.2488
19806TIP3   OH280908   3.164   2.482  15.074 -0.2067 -0.0989 -0.2795
19806TIP3    H180909   3.214   2.405  15.100 -1.9157 -1.2122 -0.1254
19806TIP3    H280910   3.229   2.541  15.036  1.1000 -1.7542 -0.7442
19807TIP3   OH280911   2.319   0.942   4.168  0.5059  0.6475  0.2310
19807TIP3    H180912   2.284   0.895   4.245 -0.2796  1.1604  0.1977
19807TIP3    H280913   2.413   0.928   4.173  0.2227 -2.0317 -0.4886
19808TIP3   OH280914   0.532   3.563  13.343  0.6754  0.3280 -0.4982
19808TIP3    H180915   0.467   3.498  13.316  0.1283  1.0938 -1.0926
19808TIP3    H280916   0.480   3.638  13.372  1.2877  1.0092 -1.1156
19809TIP3   OH280917   4.280   0.847  12.333 -0.4451  0.1615  0.0870
19809TIP3    H180918   4.185   0.855  12.326 -0.5012 -1.4398 -1.4226
19809TIP3    H280919   4.295   0.759  12.368  0.4899  0.4059  0.3384
19810TIP3   OH280920   5.832   4.727  15.477 -0.0559  0.3719  0.5160
19810TIP3    H180921   5.747   4.689  15.501 -0.5869  0.1418 -1.4967
19810TIP3    H280922   5.884   4.652  15.447  0.2488  0.7200  0.1657
19811TIP3   OH280923   6.733   5.446  11.715  0.1439 -0.1843 -0.5373
19811TIP3    H180924   6.706   5.376  11.774 -1.0026  0.8621  0.2391
19811TIP3    H280925   6.816   5.417  11.679  0.7698 -0.9802  1.4278
19812TIP3   OH280926   0.829   2.644  13.758 -0.2164  0.1054 -0.7468
19812TIP3    H180927   0.890   2.711  13.788 -0.9383  0.8140 -0.8397
19812TIP3    H280928   0.746   2.666  13.800 -0.4831 -0.6866 -0.8389
19813TIP3   OH280929   4.273   4.697  12.660 -0.0275  0.1674  0.5618
19813TIP3    H180930   4.253   4.755  12.587 -0.4913  1.0905  1.4041
19813TIP3    H280931   4.322   4.625  12.620 -0.8629  0.2953 -0.7650
19814TIP3   OH280932   3.943   4.956  14.909  0.3258  0.2903 -0.5686
19814TIP3    H180933   4.021   4.942  14.963 -1.0637  0.4228  1.5484
19814TIP3    H280934   3.952   4.893  14.837  1.7167 -0.6123  0.3524
19815TIP3   OH280935   4.413   5.724  12.270 -0.5519  0.2180 -0.9549
19815TIP3    H180936   4.413   5.659  12.199 -0.4065  0.4667 -1.1843
19815TIP3    H280937   4.329   5.710  12.314 -1.5673  1.4006 -2.4264
19816TIP3   OH280938   6.690   4.679  12.673 -0.0082  0.3371  0.2284
19816TIP3    H180939   6.719   4.645  12.757  0.0485  0.4390  0.2507
19816TIP3    H280940   6.662   4.769  12.691 -1.7075 -0.2048  0.4993
19817TIP3   OH280941   4.586   3.372  13.670  0.3802  0.1813 -0.1313
19817TIP3    H180942   4.571   3.437  13.739 -2.0686 -1.0033  0.5486
19817TIP3    H280943   4.502   3.364  13.625  0.2448 -3.1940  0.4516
19818TIP3   OH280944   1.982   5.961  14.346 -0.1887 -0.0382 -0.5076
19818TIP3    H180945   1.897   5.917  14.353  0.0104 -0.7672 -2.3180
19818TIP3    H280946   1.960   6.050  14.320 -0.4451  0.2113  0.4946
19819TIP3   OH280947   2.620   4.661   1.445 -0.0284 -0.0956  0.0148
19819TIP3    H180948   2.706   4.687   1.412  0.6850 -0.0196  1.8502
19819TIP3    H280949   2.578   4.619   1.370  1.2359  0.6848 -1.1850
19820TIP3   OH280950   0.657   0.333  13.496 -0.2856 -0.2153  0.3555
19820TIP3    H180951   0.606   0.253  13.507  0.8795 -1.1714 -0.9043
19820TIP3    H280952   0.683   0.357  13.585  0.9639 -2.3459  0.6359
19821TIP3   OH280953   1.725   0.463  14.968  0.1366 -0.2192  0.0094
19821TIP3    H180954   1.638   0.426  14.954  0.2628 -0.3299 -0.5004
19821TIP3    H280955   1.776   0.432  14.894  0.4138  0.4468 -0.0810
19822TIP3   OH280956   3.982   6.540   0.300  0.0798 -0.0423 -0.0254
19822TIP3    H180957   3.932   6.620   0.289  2.1717  1.0616 -2.4186
19822TIP3    H280958   3.946   6.480   0.235  0.3383 -0.0539 -0.1600
19823TIP3   OH280959   1.490   5.155  14.653  0.2045 -0.0600  0.3728
19823TIP3    H180960   1.424   5.102  14.610 -0.6070  0.7432  0.6027
19823TIP3    H280961   1.489   5.126  14.744  0.6720 -0.5332  0.2306
19824TIP3   OH280962   3.218   6.639  13.711 -0.8689 -0.3228  0.3612
19824TIP3    H180963   3.244   6.636  13.619  0.1415 -0.9336  0.6370
19824TIP3    H280964   3.279   6.701  13.751  0.3690 -1.8829  1.0520
19825TIP3   OH280965   0.410   0.370   5.728  0.0939  0.1428 -0.3815
19825TIP3    H180966   0.335   0.323   5.763  0.0094 -0.6152 -1.5050
19825TIP3    H280967   0.396   0.461   5.754 -1.2650  0.0348 -0.6597
19826TIP3   OH280968   2.901   5.909  13.807 -0.6279  0.0700 -0.6640
19826TIP3    H180969   2.887   5.954  13.890  1.2232 -1.3111  0.4726
19826TIP3    H280970   2.983   5.947  13.773  1.2254 -2.5775  0.5442
19827TIP3   OH280971   6.499   5.533   1.087  0.5981  0.1699 -0.0091
19827TIP3    H180972   6.496   5.507   1.179  1.0429 -0.6632 -0.2225
19827TIP3    H280973   6.409   5.520   1.057  0.7774 -1.0498 -0.0770
19828TIP3   OH280974   4.924   4.771  17.075 -0.7141  0.1856 -0.5378
19828TIP3    H180975   4.893   4.683  17.096  0.4553 -0.4626 -1.3689
19828TIP3    H280976   5.017   4.758  17.053  0.2998  2.0231  2.0820
19829TIP3   OH280977   0.721   2.608   3.216 -0.4445  0.5063  0.0175
19829TIP3    H180978   0.698   2.537   3.156  0.0454 -0.1856  0.6307
19829TIP3    H280979   0.803   2.643   3.182 -0.0821  0.0072  0.3691
19830TIP3   OH280980   0.980   6.596  15.155 -0.5648 -0.3710 -0.2982
19830TIP3    H180981   1.072   6.603  15.182 -0.5033  0.1488 -0.6255
19830TIP3    H280982   0.969   6.665  15.090 -0.9881 -0.9278 -0.8336
19831TIP3   OH280983   3.414   3.750   0.265  0.1644  0.2412 -0.3909
19831TIP3    H180984   3.386   3.814   0.330  2.4652  0.4786  0.4840
19831TIP3    H280985   3.337   3.695   0.250 -0.7946  0.9059  1.6654
19832TIP3   OH280986   0.601   6.641  16.931  0.1467  0.5506 -0.1235
19832TIP3    H180987   0.663   6.654  16.859 -0.6513 -2.3667 -1.4479
19832TIP3    H280988   0.615   6.718  16.987  2.5966  1.6686 -2.0330
19833TIP3   OH280989   6.384   3.941   0.501 -0.2907  0.2430 -1.3170
19833TIP3    H180990   6.378   4.029   0.463 -0.2006  1.0260  0.3916
19833TIP3    H280991   6.340   3.949   0.585  1.2755 -0.8770 -0.3516
19834TIP3   OH280992   4.225   0.331   1.658 -0.3537  0.2299  0.7408
19834TIP3    H180993   4.305   0.298   1.698 -0.9233 -0.4778  1.3283
19834TIP3    H280994   4.166   0.346   1.732 -1.7346 -1.9345  0.1775
19835TIP3   OH280995   3.567   6.080  16.665  0.2425 -0.0414 -0.2936
19835TIP3    H180996   3.637   6.048  16.722  0.4601 -1.4515 -1.2902
19835TIP3    H280997   3.487   6.057  16.711  0.4171  0.5484  0.3194
19836TIP3   OH280998   4.251   4.690   4.051  0.2287  0.3505  0.3778
19836TIP3    H180999   4.214   4.726   4.131  0.4955  0.3030  0.5243
19836TIP3    H281000   4.249   4.595   4.064  1.1696  0.3686  0.7423
19837TIP3   OH281001   5.393   4.953   3.533 -0.3715  0.1234  0.0074
19837TIP3    H181002   5.478   4.971   3.575 -0.3587 -1.0569  0.5138
19837TIP3    H281003   5.403   4.867   3.494 -0.6391  0.8880 -1.8462
19838TIP3   OH281004   4.091   3.146  16.391 -0.2120 -0.0377 -0.5463
19838TIP3    H181005   4.098   3.203  16.314  0.4493  2.0577  0.9931
19838TIP3    H281006   4.179   3.143  16.427 -0.8903  0.6058  1.2236
19839TIP3   OH281007   2.753   4.412   5.246  0.0593 -0.7104  0.2452
19839TIP3    H181008   2.784   4.499   5.270  0.5435 -0.6463 -0.5831
19839TIP3    H281009   2.711   4.424   5.160 -0.3766 -1.1919  0.3803
19840TIP3   OH281010   6.117   5.360  15.235  0.1975  0.2665  0.6702
19840TIP3    H181011   6.115   5.324  15.146 -0.3858  0.2164  0.7011
19840TIP3    H281012   6.185   5.427  15.232 -3.1148  3.9611 -1.2957
19841TIP3   OH281013   1.234   1.498  17.069 -0.0735  0.4431 -0.3550
19841TIP3    H181014   1.236   1.491  16.974  2.6395 -1.5577 -0.2741
19841TIP3    H281015   1.183   1.421  17.097 -2.3962  1.9505 -0.1130
19842TIP3   OH281016   5.297   0.717   3.717  0.2627 -0.0009  0.2264
19842TIP3    H181017   5.387   0.720   3.751  1.0645 -2.2040 -1.4786
19842TIP3    H281018   5.262   0.804   3.735  2.3545  0.5781  1.9176
19843TIP3   OH281019   5.514   1.661  13.789 -0.7233 -0.0776 -0.4835
19843TIP3    H181020   5.606   1.651  13.813 -0.2511  1.0010 -1.6967
19843TIP3    H281021   5.516   1.669  13.693 -1.7579  2.7385 -0.3639
19844TIP3   OH281022   6.375   0.681   5.567 -0.3226 -0.7735 -0.1442
19844TIP3    H181023   6.286   0.712   5.551 -0.0506 -0.1616 -0.5362
19844TIP3    H281024   6.430   0.758   5.550  0.2421 -1.0105  0.5757
19845TIP3   OH281025   2.024   0.172  12.566 -0.1176  0.1284 -0.5770
19845TIP3    H181026   1.965   0.146  12.637  0.0501 -1.3195 -0.9342
19845TIP3    H281027   2.001   0.263  12.547 -1.0683  0.1114  0.4361
19846TIP3   OH281028   4.753   2.394  14.615 -0.5706 -1.0455 -0.2298
19846TIP3    H181029   4.723   2.476  14.577  1.6104  0.0484  0.2108
19846TIP3    H281030   4.723   2.327  14.555 -1.2057  0.2122 -1.3582
19847TIP3   OH281031   1.516   5.532   4.695 -0.2886 -0.1478 -0.4067
19847TIP3    H181032   1.446   5.473   4.668  0.4377 -0.8841 -0.6952
19847TIP3    H281033   1.536   5.583   4.616 -1.3037  0.9148 -0.0128
19848TIP3   OH281034   5.246   1.763   4.337 -0.1784  0.4004  0.0662
19848TIP3    H181035   5.170   1.821   4.332 -0.6963 -0.1443  1.1666
19848TIP3    H281036   5.229   1.707   4.414  0.6127 -0.7548 -0.5585
19849TIP3   OH281037   4.801   1.896   0.858 -0.2254 -0.3373 -0.2129
19849TIP3    H181038   4.873   1.928   0.912 -1.1277  1.6798 -0.1330
19849TIP3    H281039   4.826   1.920   0.768 -0.2151 -0.8088 -0.3397
19850TIP3   OH281040   6.682   4.252   6.215 -0.4014  0.2894 -0.4301
19850TIP3    H181041   6.769   4.281   6.243 -1.1878  0.7568  1.6977
19850TIP3    H281042   6.649   4.324   6.161 -0.1975  0.9837  0.3456
19851TIP3   OH281043   1.250   1.097   5.418 -0.0681  0.1697  0.1599
19851TIP3    H181044   1.312   1.033   5.451  0.4591  1.2316  1.3185
19851TIP3    H281045   1.259   1.092   5.323  0.9851 -0.4761  0.2743
19852TIP3   OH281046   0.075   5.986  15.649 -0.4633  0.5647  0.6311
19852TIP3    H181047   0.130   5.912  15.676  0.4000  0.4891 -1.2248
19852TIP3    H281048   0.002   5.945  15.602  0.3151  0.8965 -0.9009
19853TIP3   OH281049   3.052   4.469  17.171  0.1225  0.0628 -0.0439
19853TIP3    H181050   3.075   4.465  17.264 -2.2185  1.6381  0.7042
19853TIP3    H281051   3.059   4.561  17.147  1.6513 -0.4437 -1.7593
19854TIP3   OH281052   4.611   4.759   1.005 -0.1034  0.1315 -0.0218
19854TIP3    H181053   4.565   4.676   0.997 -1.5002  0.7909  0.9236
19854TIP3    H281054   4.679   4.755   0.937 -0.9400 -1.2466 -0.8181
19855TIP3   OH281055   5.041   3.839  14.778  0.5935  0.0271  0.4973
19855TIP3    H181056   4.959   3.811  14.737 -1.4724  1.6175  3.1886
19855TIP3    H281057   5.046   3.933  14.761  2.3959 -0.1979 -0.3949
19856TIP3   OH281058   1.783   4.065  15.580 -0.1600 -0.4154  0.0478
19856TIP3    H181059   1.874   4.042  15.565 -0.1257 -0.3980  0.2175
19856TIP3    H281060   1.771   4.148  15.534  0.3598  0.4235  1.3638
19857TIP3   OH281061   3.612   3.199  12.675  0.3173 -0.4603  0.5718
19857TIP3    H181062   3.603   3.105  12.689 -0.0617 -0.8854 -1.9360
19857TIP3    H281063   3.686   3.206  12.614 -0.3737  0.7446 -0.1590
19858TIP3   OH281064   3.660   0.981  16.386 -0.1060 -0.3943 -0.1553
19858TIP3    H181065   3.654   1.015  16.297  0.6426 -1.4268 -0.6214
19858TIP3    H281066   3.740   1.020  16.422 -1.7092  2.0731  1.0274
19859TIP3   OH281067   1.729   1.469  11.900 -0.0374 -0.2953  0.3296
19859TIP3    H181068   1.648   1.499  11.942 -0.1040  0.2636 -0.1842
19859TIP3    H281069   1.799   1.503  11.956 -0.1019  1.0444 -0.3559
19860TIP3   OH281070   6.122   3.813   6.129 -0.4714 -0.2603 -0.1760
19860TIP3    H181071   6.090   3.815   6.219 -1.5415 -2.5000 -0.4271
19860TIP3    H281072   6.085   3.732   6.092  2.8425 -1.3352 -1.5226
19861TIP3   OH281073   3.875   4.526   0.938  0.4640  0.3340  0.4202
19861TIP3    H181074   3.784   4.497   0.934  0.6009 -0.2261  1.2158
19861TIP3    H281075   3.908   4.491   1.020  1.1080  1.4009  0.6379
19862TIP3   OH281076   2.574   5.819   4.538 -0.5327  0.4156  0.2940
19862TIP3    H181077   2.552   5.726   4.546  0.3732  0.2507  0.9311
19862TIP3    H281078   2.518   5.862   4.603 -0.1110  0.1731  0.8257
19863TIP3   OH281079   4.188   1.946  16.172  0.0380 -0.2739  0.1213
19863TIP3    H181080   4.124   2.003  16.215 -1.5293 -1.4640 -0.5227
19863TIP3    H281081   4.135   1.876  16.132  1.7424 -1.2579 -0.5331
19864TIP3   OH281082   0.093   1.230  13.799 -0.0666  0.1592 -0.0299
19864TIP3    H181083   0.065   1.143  13.826 -1.0026  0.3580 -0.3237
19864TIP3    H281084   0.052   1.290  13.862 -0.2298  0.4487 -0.4036
19865TIP3   OH281085   1.276   3.330   3.311  0.4543 -0.6460  0.1574
19865TIP3    H181086   1.303   3.268   3.243  0.7030 -1.2828  0.8159
19865TIP3    H281087   1.181   3.336   3.302  0.6628  0.7882 -1.4939
19866TIP3   OH281088   2.257   1.296   5.900  0.5385  0.4382  0.2411
19866TIP3    H181089   2.227   1.213   5.863 -0.5564  2.7583 -4.9092
19866TIP3    H281090   2.177   1.337   5.934  0.2540  0.9752 -1.0034
19867TIP3   OH281091   2.802   6.666  14.083 -0.2728 -0.2005  0.1970
19867TIP3    H181092   2.752   6.743  14.056 -0.8690 -0.7198 -0.2145
19867TIP3    H281093   2.876   6.701  14.133 -0.2023  0.6708 -0.4982
19868TIP3   OH281094   0.734   5.402   4.521 -0.1131  0.4814 -0.1696
19868TIP3    H181095   0.651   5.434   4.484  0.3232  0.5177 -1.1473
19868TIP3    H281096   0.795   5.474   4.507  1.0195 -0.8839 -2.8849
19869TIP3   OH281097   2.378   2.806  11.483 -0.1320  0.3714  0.3826
19869TIP3    H181098   2.438   2.870  11.445  0.3717  0.1893  0.8573
19869TIP3    H281099   2.371   2.737  11.418 -0.7122  0.9173 -0.1532
19870TIP3   OH281100   0.882   4.009   1.767  0.1185 -0.5596 -0.8739
19870TIP3    H181101   0.923   4.003   1.853  0.3242  0.1111 -0.9177
19870TIP3    H281102   0.955   4.011   1.705 -0.0045 -0.1714 -1.0076
19871TIP3   OH281103   6.372   1.920   4.607  0.1705 -0.8506 -0.2014
19871TIP3    H181104   6.369   2.008   4.570 -0.2047 -0.2727  1.1221
19871TIP3    H281105   6.457   1.885   4.581 -0.3040 -0.7240 -2.0539
19872TIP3   OH281106   4.517   2.717   5.574  0.6899  0.0037 -0.3735
19872TIP3    H181107   4.573   2.679   5.642 -1.3430 -0.1760  1.2869
19872TIP3    H281108   4.449   2.764   5.622 -0.8200 -0.1142 -2.2900
19873TIP3   OH281109   6.015   4.323   6.599 -0.1273  0.1216 -0.1578
19873TIP3    H181110   6.057   4.360   6.521 -1.5689  0.1100 -0.9661
19873TIP3    H281111   6.045   4.378   6.671  2.1049 -0.5247 -0.5178
19874TIP3   OH281112   1.889   2.701   2.563 -1.2095 -0.0114 -0.2552
19874TIP3    H181113   1.879   2.795   2.581 -1.2690  0.4593 -2.4267
19874TIP3    H281114   1.970   2.695   2.513 -0.3694 -1.3626  1.2119
19875TIP3   OH281115   2.382   1.645   4.019 -0.4658  0.4573  0.4764
19875TIP3    H181116   2.353   1.708   3.953 -0.7415 -0.6925 -0.5535
19875TIP3    H281117   2.340   1.673   4.100 -3.6770 -0.4572 -0.7168
19876TIP3   OH281118   4.828   5.492  15.145  0.1161  0.3111  0.3462
19876TIP3    H181119   4.841   5.399  15.167  1.8340  0.7214  1.2378
19876TIP3    H281120   4.903   5.513  15.089 -1.4597  0.6233 -1.7311
19877TIP3   OH281121   5.417   5.373  14.364 -0.2325  0.2322 -0.7366
19877TIP3    H181122   5.390   5.464  14.360  0.2768  0.3486 -1.6786
19877TIP3    H281123   5.346   5.325  14.321 -0.9320  0.0712  0.5555
19878TIP3   OH281124   0.597   1.813  15.756  0.6212  0.0386 -0.1832
19878TIP3    H181125   0.622   1.850  15.672  1.6544  2.7585  1.2016
19878TIP3    H281126   0.538   1.877  15.794 -0.9285 -1.7775  0.6651
19879TIP3   OH281127   3.913   6.808  12.940 -0.3755  0.2795 -0.6886
19879TIP3    H181128   3.990   6.797  12.996 -0.7675  0.8522 -0.0274
19879TIP3    H281129   3.947   6.850  12.861 -0.0678  0.9163 -0.2281
19880TIP3   OH281130   3.612   1.164  13.329  0.0246  0.1975 -0.4107
19880TIP3    H181131   3.705   1.187  13.335  0.0185  0.4133 -0.9925
19880TIP3    H281132   3.575   1.191  13.413  0.3128  0.9565 -0.5122
19881TIP3   OH281133   1.024   6.822  16.616 -0.1235 -0.1656  0.2785
19881TIP3    H181134   1.089   6.890  16.598 -0.3810 -0.0104 -0.0899
19881TIP3    H281135   1.005   6.784  16.530 -0.9530  0.1899  0.2915
19882TIP3   OH281136   3.173   0.201   4.289 -0.3294 -0.0141 -0.1838
19882TIP3    H181137   3.218   0.271   4.241  2.7515 -1.3484  0.4813
19882TIP3    H281138   3.224   0.192   4.370 -1.0006 -2.6192  0.0166
19883TIP3   OH281139   1.351   1.949   1.845 -0.0273  0.1579  0.5334
19883TIP3    H181140   1.316   1.896   1.773  0.0511  1.3470 -0.4039
19883TIP3    H281141   1.287   2.018   1.858  0.6982  0.8433  0.5618
19884TIP3   OH281142   1.194   4.518   0.716 -0.4373  0.9354  0.7599
19884TIP3    H181143   1.128   4.508   0.784 -0.6372  0.3528  0.4838
19884TIP3    H281144   1.262   4.455   0.738 -1.2651 -0.4418 -0.4632
19885TIP3   OH281145   0.872   4.916  12.115  0.0852 -0.1193 -0.3181
19885TIP3    H181146   0.925   4.836  12.124  0.4137  0.2456  1.2666
19885TIP3    H281147   0.816   4.917  12.193  0.6589  1.5852  0.1283
19886TIP3   OH281148   2.292   0.093  13.017  0.1886  0.1600 -0.2478
19886TIP3    H181149   2.287   0.181  13.054 -0.3944 -0.5577  1.4752
19886TIP3    H281150   2.247   0.037  13.081  3.9858 -2.0396  0.8416
19887TIP3   OH281151   5.288   2.616   0.035  0.4623  0.5299  0.5857
19887TIP3    H181152   5.375   2.590   0.007 -0.0590 -0.2153 -0.4190
19887TIP3    H281153   5.261   2.549   0.098  0.8985  1.1863  1.5012
19888TIP3   OH281154   0.471   3.523   3.004 -0.2482  0.2679  0.3608
19888TIP3    H181155   0.454   3.550   2.914  1.6819 -1.0259 -0.4552
19888TIP3    H281156   0.470   3.427   3.001  1.3124  0.1841  1.3837
19889TIP3   OH281157   3.155   3.956  12.924  0.0987 -0.8267 -0.0473
19889TIP3    H181158   3.092   4.028  12.925 -0.1643 -1.0146  1.9482
19889TIP3    H281159   3.230   3.989  12.974 -0.1091 -1.9725  1.0732
19890TIP3   OH281160   6.463   5.044   4.433 -0.1920 -0.5908 -0.1619
19890TIP3    H181161   6.394   5.105   4.408 -0.1566 -0.5129 -0.0707
19890TIP3    H281162   6.541   5.077   4.388  0.3433  0.7309  1.5930
19891TIP3   OH281163   1.713   1.116  13.440  0.4532  0.3072 -0.3003
19891TIP3    H181164   1.626   1.104  13.479  0.9412  0.1796  0.7577
19891TIP3    H281165   1.741   1.202  13.469  0.9295  0.1077 -0.1685
19892TIP3   OH281166   3.758   2.263  14.975 -0.9160 -0.2091  0.3087
19892TIP3    H181167   3.810   2.203  14.921 -1.5440 -0.7166  0.2530
19892TIP3    H281168   3.672   2.223  14.978 -0.8107 -0.3653  1.9788
19893TIP3   OH281169   1.966   4.837   3.598  0.0506 -0.1521  0.4017
19893TIP3    H181170   1.912   4.772   3.644 -0.6104  1.6878  2.4284
19893TIP3    H281171   2.035   4.859   3.660  0.6189  0.6140 -0.4810
19894TIP3   OH281172   4.448   4.863  14.208  0.2281  0.2466  0.1066
19894TIP3    H181173   4.407   4.937  14.253  0.4867 -0.4745  1.6018
19894TIP3    H281174   4.538   4.862  14.240  0.6596  0.1763 -1.0580
19895TIP3   OH281175   3.537   5.113  16.549  0.7777 -1.0319  0.5588
19895TIP3    H181176   3.596   5.188  16.539 -0.8167  0.3261  0.8697
19895TIP3    H281177   3.577   5.060  16.618  0.7365  0.8313  2.1105
19896TIP3   OH281178   0.689   3.693   0.631  0.0789 -0.3535  0.2287
19896TIP3    H181179   0.741   3.713   0.553 -0.8098  1.1828 -0.0102
19896TIP3    H281180   0.716   3.605   0.656  1.1744 -0.4464 -1.1759
19897TIP3   OH281181   2.922   5.329  13.239 -0.2255 -0.1224 -0.1922
19897TIP3    H181182   2.912   5.401  13.176 -2.9392  0.2526  0.5407
19897TIP3    H281183   2.904   5.369  13.324  4.0614 -0.4557  1.1073
19898TIP3   OH281184   3.830   1.860  12.748 -0.3838  0.3104 -0.0414
19898TIP3    H181185   3.825   1.768  12.725  0.7606  0.6407 -1.7817
19898TIP3    H281186   3.750   1.898  12.713 -0.0981  0.2447 -0.7898
19899TIP3   OH281187   4.139   2.846  15.579 -0.2848  0.2227 -0.3483
19899TIP3    H181188   4.060   2.854  15.525 -0.2321 -0.0731 -0.4757
19899TIP3    H281189   4.163   2.936  15.601  0.1270  0.4000 -1.4457
19900TIP3   OH281190   6.738   0.817  12.645  0.2567  0.6092 -0.0255
19900TIP3    H181191   6.808   0.851  12.589 -0.1272  0.3878 -0.6504
19900TIP3    H281192   6.690   0.757  12.589 -0.2795  0.5637  0.4770
19901TIP3   OH281193   4.388   3.726   1.972  0.3629  0.3028  0.6834
19901TIP3    H181194   4.390   3.811   1.927  3.4240  0.9346  1.7409
19901TIP3    H281195   4.335   3.671   1.915  0.8641  2.0886 -1.7171
19902TIP3   OH281196   2.392   3.777  16.117  0.6259  0.2699 -0.3956
19902TIP3    H181197   2.344   3.858  16.105  1.4305  0.8829  0.4198
19902TIP3    H281198   2.385   3.732  16.032 -0.5287  0.7928 -0.5838
19903TIP3   OH281199   5.170   1.885  13.169  0.6117  0.2735 -0.6610
19903TIP3    H181200   5.104   1.934  13.119  0.0924  0.0640 -0.1942
19903TIP3    H281201   5.245   1.879  13.110  1.0411  2.4111 -0.4274
19904TIP3   OH281202   0.751   2.551   0.788  0.8597  0.5476  0.2596
19904TIP3    H181203   0.701   2.573   0.866 -0.0708  1.8172 -0.6509
19904TIP3    H281204   0.719   2.465   0.762  1.1803  0.1079  1.2489
19905TIP3   OH281205   6.007   3.130   5.209 -0.6986 -0.0612  0.3343
19905TIP3    H181206   6.044   3.218   5.219  0.4923 -0.3708 -1.0112
19905TIP3    H281207   6.051   3.094   5.132 -0.9514 -1.9539  1.0200
19906TIP3   OH281208   3.327   2.658   6.365 -0.1382 -0.4608  0.5121
19906TIP3    H181209   3.242   2.640   6.327 -0.8751 -0.3839  2.0628
19906TIP3    H281210   3.354   2.576   6.406  0.5639 -0.4963  0.0130
19907TIP3   OH281211   5.006   3.509   2.890 -0.0291  0.3431  0.3433
19907TIP3    H181212   4.986   3.509   2.796  1.5477 -0.0645 -0.0197
19907TIP3    H281213   4.987   3.420   2.919 -1.9101  0.8305  0.7750
19908TIP3   OH281214   4.659   3.184  11.197 -0.1058  0.3932 -1.0263
19908TIP3    H181215   4.614   3.252  11.247 -0.0516 -0.1731 -0.1984
19908TIP3    H281216   4.750   3.213  11.192  0.6524 -1.1048  2.0878
19909TIP3   OH281217   6.287   5.805  16.204  0.4677 -0.0590  0.3826
19909TIP3    H181218   6.261   5.713  16.198 -2.6508  0.7905 -3.4535
19909TIP3    H281219   6.217   5.846  16.254 -0.3311  0.7506 -1.3361
19910TIP3   OH281220   4.503   1.791   2.788 -0.5213  0.0811  0.1875
19910TIP3    H181221   4.593   1.766   2.769 -0.3512  0.9592 -0.2277
19910TIP3    H281222   4.463   1.712   2.826  0.2938 -0.4419 -0.0214
19911TIP3   OH281223   5.057   0.964   5.002 -0.0509  0.1365 -0.0426
19911TIP3    H181224   5.121   1.000   4.940 -0.6357  1.0992 -0.1079
19911TIP3    H281225   4.978   1.016   4.986 -0.8661 -1.0781 -0.0037
19912TIP3   OH281226   5.817   5.842   1.574  0.3104 -0.0156 -0.2311
19912TIP3    H181227   5.911   5.859   1.568  0.5396 -1.3339 -0.5870
19912TIP3    H281228   5.807   5.793   1.656 -0.2054  0.9224  0.2861
19913TIP3   OH281229   6.422   6.258  16.922 -0.2342  0.2039  0.2399
19913TIP3    H181230   6.483   6.322  16.886 -0.6305  0.4383 -0.0300
19913TIP3    H281231   6.416   6.190  16.855 -0.2492  0.1709  0.2746
19914TIP3   OH281232   6.520   3.761   4.639 -0.0732 -0.0794  0.7256
19914TIP3    H181233   6.472   3.695   4.690  1.5398 -0.7915  1.3818
19914TIP3    H281234   6.596   3.782   4.693  2.2424 -1.5468 -1.7657
19915TIP3   OH281235   0.231   5.541  11.843  0.3755  0.0537  0.1136
19915TIP3    H181236   0.150   5.549  11.893  0.4217 -1.4166  0.4693
19915TIP3    H281237   0.257   5.632  11.825 -1.8339  0.5516 -0.8441
19916TIP3   OH281238   4.676   4.687  15.102 -0.5049 -0.0130 -0.4644
19916TIP3    H181239   4.639   4.775  15.103  0.8798  0.6378 -1.9184
19916TIP3    H281240   4.763   4.697  15.141  0.6116 -0.2234 -2.7748
19917TIP3   OH281241   5.776   1.534  16.321  0.1749 -0.5454 -0.2510
19917TIP3    H181242   5.870   1.537  16.341  0.6092  0.5914 -2.2292
19917TIP3    H281243   5.765   1.453  16.273  0.0242 -0.9148  0.3884
19918TIP3   OH281244   4.238   2.126  11.664  0.3678 -0.5064  0.5391
19918TIP3    H181245   4.240   2.220  11.651  2.1517 -0.7333 -1.2725
19918TIP3    H281246   4.302   2.110  11.733  2.0505 -0.5784 -0.9856
19919TIP3   OH281247   5.511   2.745  12.644  0.3460 -0.2914  0.0627
19919TIP3    H181248   5.462   2.801  12.584  1.5994 -0.2739 -1.0045
19919TIP3    H281249   5.529   2.666  12.594 -0.7558 -1.3669  1.3084
19920TIP3   OH281250   3.582   3.262   0.717  0.4162  0.1571  0.4078
19920TIP3    H181251   3.505   3.241   0.769  0.7576 -0.4334  0.6872
19920TIP3    H281252   3.608   3.350   0.745 -0.7735  0.8134 -0.4564
19921TIP3   OH281253   4.635   4.855   0.521 -0.6993 -0.2070 -0.0018
19921TIP3    H181254   4.681   4.785   0.566 -1.3735  0.1315  1.2624
19921TIP3    H281255   4.639   4.831   0.428 -0.4494 -1.6213  0.3543
19922TIP3   OH281256   1.582   5.097   3.579 -0.6074 -0.1088 -0.2673
19922TIP3    H181257   1.639   5.110   3.654 -0.8505  0.2458 -0.1428
19922TIP3    H281258   1.627   5.031   3.526  0.5690  1.0928 -0.8230
19923TIP3   OH281259   1.341   0.690   3.383  0.2415 -0.1289  0.5316
19923TIP3    H181260   1.437   0.688   3.382  0.2530  0.4588  0.3795
19923TIP3    H281261   1.318   0.719   3.471  0.1137 -3.8231  1.8866
19924TIP3   OH281262   3.008   6.604  10.757 -0.1880 -0.1312 -0.1113
19924TIP3    H181263   3.093   6.578  10.793 -0.8315  0.0578  1.6306
19924TIP3    H281264   2.972   6.523  10.720  1.0281 -0.0640 -1.5462
19925TIP3   OH281265   3.927   5.538   3.153  0.1485 -0.2497  0.1135
19925TIP3    H181266   3.997   5.503   3.209  0.7405  1.2972  0.3961
19925TIP3    H281267   3.888   5.461   3.112  1.5613 -1.2031  0.4920
19926TIP3   OH281268   3.298   0.772  16.277 -0.0389 -0.2032  0.4090
19926TIP3    H181269   3.277   0.863  16.299 -1.1751 -0.3067 -0.1493
19926TIP3    H281270   3.392   0.772  16.263 -0.0486  0.9366  0.2081
19927TIP3   OH281271   6.685   1.115  11.451  0.5382 -0.5546  0.0511
19927TIP3    H181272   6.626   1.052  11.411  0.3335 -0.8191  0.7567
19927TIP3    H281273   6.729   1.067  11.521  1.9078 -0.4741 -0.7394
19928TIP3   OH281274   2.888   2.094   5.893 -0.3151 -0.7772 -0.5319
19928TIP3    H181275   2.919   2.144   5.968 -0.1276  1.5309 -2.0647
19928TIP3    H281276   2.811   2.047   5.926 -0.4297  0.4209  1.0083
19929TIP3   OH281277   4.825   0.355   4.192 -0.3728  0.3523  0.4181
19929TIP3    H181278   4.864   0.279   4.149 -0.3552  0.0780  0.9143
19929TIP3    H281279   4.858   0.352   4.282 -0.8637  0.5940  0.6125
19930TIP3   OH281280   3.907   1.509  17.259  0.7596 -0.0045 -0.7359
19930TIP3    H181281   3.958   1.470  17.188  3.9102 -0.5581  1.6386
19930TIP3    H281282   3.955   1.589  17.282 -1.5963  1.5436 -0.7555
19931TIP3   OH281283   1.633   2.204   5.018  0.3589  0.1834 -0.1398
19931TIP3    H181284   1.582   2.283   4.998  0.6027  0.3146 -0.2458
19931TIP3    H281285   1.713   2.237   5.058 -0.0521 -0.0639  0.9407
19932TIP3   OH281286   4.867   2.283   1.672  0.7050 -0.4356  0.1317
19932TIP3    H181287   4.853   2.254   1.762 -0.8916 -0.9313 -0.2569
19932TIP3    H281288   4.859   2.203   1.619 -2.3949  0.3742 -0.8199
19933TIP3   OH281289   3.041   5.676   5.935 -0.0535 -0.1288 -0.4797
19933TIP3    H181290   3.071   5.632   6.015  0.5337  1.8827  0.4740
19933TIP3    H281291   2.950   5.650   5.926 -0.0396 -0.6374  0.6624
19934TIP3   OH281292   2.920   2.363   1.356  0.0052  0.0548 -0.8416
19934TIP3    H181293   2.825   2.361   1.342 -0.2874  1.7050  0.5943
19934TIP3    H281294   2.953   2.416   1.283 -0.3158  0.4262 -0.7217
19935TIP3   OH281295   0.609   2.958   0.238 -0.3229  0.4514 -0.5095
19935TIP3    H181296   0.704   2.965   0.248 -0.5171  0.2041  2.3427
19935TIP3    H281297   0.579   3.049   0.227  0.1716  0.5939 -0.6932
19936TIP3   OH281298   3.893   1.077   5.349  0.1516  0.0655 -0.0250
19936TIP3    H181299   3.804   1.111   5.362 -0.3035 -1.1065  0.0467
19936TIP3    H281300   3.943   1.113   5.422  0.0504  1.7273 -0.7322
19937TIP3   OH281301   4.483   4.942   2.676 -0.5643 -0.2229  0.3569
19937TIP3    H181302   4.449   4.925   2.764 -0.9372  1.4764  0.5859
19937TIP3    H281303   4.404   4.946   2.621 -0.3909 -0.5577  0.0850
19938TIP3   OH281304   0.696   3.845  14.125 -0.6802 -0.4081 -0.0631
19938TIP3    H181305   0.781   3.871  14.090 -1.6382 -0.6625 -2.8064
19938TIP3    H281306   0.715   3.766  14.176  0.7454 -0.3475 -0.4500
19939TIP3   OH281307   2.040   3.039   2.041 -0.7071 -0.1635  0.1284
19939TIP3    H181308   2.103   2.993   1.984 -0.5292 -0.1905  0.3475
19939TIP3    H281309   2.065   3.013   2.129 -1.6874 -1.0150  0.1679
19940TIP3   OH281310   5.871   2.234  12.585  0.1414  0.6761 -0.4233
19940TIP3    H181311   5.795   2.176  12.589  1.9055 -1.9593 -1.7468
19940TIP3    H281312   5.915   2.210  12.503  1.2206  3.7217 -0.8671
19941TIP3   OH281313   2.820   3.454   1.346  0.1042  0.1545 -0.3250
19941TIP3    H181314   2.859   3.457   1.433 -1.2079 -1.6016  0.3964
19941TIP3    H281315   2.821   3.544   1.315 -0.1782  0.9707  1.8718
19942TIP3   OH281316   4.330   3.293   3.077  0.5978 -0.1000 -0.4539
19942TIP3    H181317   4.412   3.341   3.086  0.2522  0.1004  2.7747
19942TIP3    H281318   4.303   3.308   2.986  3.2114  1.2637 -1.0913
19943TIP3   OH281319   4.854   6.295  17.121  0.4591 -0.2660 -0.6644
19943TIP3    H181320   4.869   6.207  17.086  0.3356 -0.9599  0.9431
19943TIP3    H281321   4.805   6.281  17.201  1.2281  1.2090  0.1125
19944TIP3   OH281322   5.195   0.228  14.511  0.5768  0.0703  0.6856
19944TIP3    H181323   5.109   0.270  14.520  0.2909  0.1869 -1.8782
19944TIP3    H281324   5.228   0.222  14.600 -1.4420  1.4128  1.5964
19945TIP3   OH281325   0.785   2.270   5.317  0.1684 -0.4852 -0.5476
19945TIP3    H181326   0.767   2.191   5.367 -1.2948 -0.4049 -0.9030
19945TIP3    H281327   0.843   2.322   5.373 -0.3867 -0.9732  0.5021
19946TIP3   OH281328   2.274   3.356   1.755  0.3469  0.0538  0.4559
19946TIP3    H181329   2.249   3.448   1.759  0.6948  0.1828 -0.1601
19946TIP3    H281330   2.225   3.314   1.825  1.1635  0.9318  1.5754
19947TIP3   OH281331   6.404   1.528   5.513 -0.5427 -0.2834 -0.3770
19947TIP3    H181332   6.407   1.454   5.573  0.8131 -0.8070 -1.0473
19947TIP3    H281333   6.314   1.561   5.519 -0.4473 -0.3228  1.8859
19948TIP3   OH281334   0.903   0.770   4.438 -0.3233 -0.7291  0.0200
19948TIP3    H181335   0.965   0.713   4.391 -0.6115 -0.3333 -0.8656
19948TIP3    H281336   0.920   0.753   4.530  1.7065 -0.0057 -0.1765
19949TIP3   OH281337   2.495   1.899  14.630 -0.3479  0.1025  0.1760
19949TIP3    H181338   2.522   1.922  14.719  0.0760  0.3078 -0.0035
19949TIP3    H281339   2.571   1.919  14.576 -0.4662 -0.3867 -0.1807
19950TIP3   OH281340   3.289   5.403  12.215 -0.2158 -0.3313 -0.1283
19950TIP3    H181341   3.266   5.349  12.291 -1.4030 -0.9958 -0.9111
19950TIP3    H281342   3.306   5.339  12.146  1.5820  0.2457 -0.2585
19951TIP3   OH281343   3.272   1.193  14.544 -0.1559  0.2586  0.3625
19951TIP3    H181344   3.362   1.188  14.510 -0.1501  0.1068  0.3981
19951TIP3    H281345   3.278   1.253  14.618 -0.0130 -0.0303  0.5865
19952TIP3   OH281346   2.028   0.620  11.676  0.5902  0.8481  0.1405
19952TIP3    H181347   2.102   0.672  11.708  1.3508 -0.3675  0.4290
19952TIP3    H281348   2.067   0.535  11.652 -0.6114  0.3969 -0.3093
19953TIP3   OH281349   5.339   5.426   4.348 -0.0407 -0.3448  0.1511
19953TIP3    H181350   5.304   5.362   4.286 -0.4253  2.2149 -2.5244
19953TIP3    H281351   5.433   5.427   4.329  0.1096 -0.7651  0.8579
19954TIP3   OH281352   2.090   1.755  10.959 -0.3919 -0.8293  0.0689
19954TIP3    H181353   2.147   1.752  10.882 -0.7676 -1.8011 -0.1901
19954TIP3    H281354   2.012   1.802  10.929  0.0162 -0.0064  0.2601
19955TIP3   OH281355   3.356   0.765  14.047 -0.1852 -0.1938 -0.1797
19955TIP3    H181356   3.429   0.827  14.045 -1.1989  1.0332 -0.5866
19955TIP3    H281357   3.279   0.819  14.065 -0.8880 -1.5819  1.3412
19956TIP3   OH281358   2.367   0.418  16.696  0.2194  0.3290 -0.2909
19956TIP3    H181359   2.349   0.449  16.785 -1.2971  2.5205 -1.2725
19956TIP3    H281360   2.445   0.467  16.669  0.0443  0.4702 -0.5411
19957TIP3   OH281361   2.097   4.064  11.736 -0.3618  0.7231 -0.5136
19957TIP3    H181362   2.044   4.052  11.658 -1.7283  0.5935  0.4008
19957TIP3    H281363   2.178   4.016  11.718 -1.5720 -1.2378 -0.9626
19958TIP3   OH281364   5.608   2.649   3.042 -0.0346  0.0218  0.0227
19958TIP3    H181365   5.611   2.556   3.061  0.7715  0.3525  1.7694
19958TIP3    H281366   5.664   2.689   3.109 -2.4206  2.0224  0.9936
19959TIP3   OH281367   5.938   1.435   5.874 -0.0797 -0.4385 -0.2251
19959TIP3    H181368   5.952   1.405   5.964  1.4019  1.6884  0.3198
19959TIP3    H281369   5.853   1.477   5.875 -0.0418 -0.3747  0.2055
19960TIP3   OH281370   3.208   1.600   1.900  0.7151  0.4340 -0.0318
19960TIP3    H181371   3.235   1.674   1.846  2.1300  1.2296  1.6492
19960TIP3    H281372   3.149   1.638   1.965  0.7288 -0.0827  0.2896
19961TIP3   OH281373   4.689   5.735   2.813 -0.2837  0.5015  0.0257
19961TIP3    H181374   4.614   5.773   2.860 -1.3838  0.4562 -1.6332
19961TIP3    H281375   4.763   5.753   2.870 -1.3692  1.6221  1.1641
19962TIP3   OH281376   6.711   6.622  13.188 -0.0430 -0.2822 -0.0327
19962TIP3    H181377   6.696   6.609  13.095 -0.3624 -1.2209  0.1349
19962TIP3    H281378   6.806   6.613  13.199 -0.2413 -3.2249  0.1187
19963TIP3   OH281379   3.417   1.312   1.929  0.5984 -0.0529 -0.4032
19963TIP3    H181380   3.503   1.313   1.886  1.5015 -0.9543  1.2774
19963TIP3    H281381   3.401   1.220   1.948  0.9380  0.3877  2.4362
19964TIP3   OH281382   0.082   0.554   4.535 -0.3378 -0.4349 -0.4844
19964TIP3    H181383   0.037   0.484   4.489  0.5976  0.8640 -3.6117
19964TIP3    H281384   0.112   0.514   4.617 -4.3561 -2.1636  0.3766
19965TIP3   OH281385   5.490   4.357  14.118  0.2052  0.0809 -0.6651
19965TIP3    H181386   5.519   4.447  14.133 -1.2269  0.6134 -0.9026
19965TIP3    H281387   5.565   4.303  14.143  0.1673  1.2027  2.2458
19966TIP3   OH281388   0.930   0.440   1.754 -0.5779 -0.0570 -0.2331
19966TIP3    H181389   0.860   0.409   1.698 -0.4784  1.6447 -1.3735
19966TIP3    H281390   0.885   0.483   1.828 -0.7793  1.1375 -1.0213
19967TIP3   OH281391   6.349   3.702  16.952  0.1749 -0.1478  0.5979
19967TIP3    H181392   6.297   3.775  16.987 -1.1141 -0.2511 -1.0171
19967TIP3    H281393   6.416   3.687  17.019 -2.0086 -0.2061  2.9471
19968TIP3   OH281394   3.603   4.253  17.112 -0.6424  0.2231  0.7307
19968TIP3    H181395   3.515   4.243  17.149 -0.8518 -0.4606  0.0880
19968TIP3    H281396   3.589   4.256  17.018  0.0551 -0.3755  0.5930
19969TIP3   OH281397   5.035   1.224  15.771 -0.3545  0.4195  0.3882
19969TIP3    H181398   5.019   1.144  15.720  2.1429  0.1013 -0.0456
19969TIP3    H281399   5.063   1.192  15.857  2.2181  0.6634 -0.2623
19970TIP3   OH281400   1.179   2.742  14.560 -0.3357  0.0639 -0.6519
19970TIP3    H181401   1.145   2.719  14.473 -0.8099 -0.8226 -0.2523
19970TIP3    H281402   1.132   2.822  14.584  0.5536  0.9106 -1.6299
19971TIP3   OH281403   3.648   5.915   3.309  0.3029  0.5737  0.1062
19971TIP3    H181404   3.702   5.900   3.386  2.7315 -1.4424 -1.7988
19971TIP3    H281405   3.590   5.839   3.306  1.5677 -0.4069 -0.9948
19972TIP3   OH281406   5.060   5.840   0.378 -0.2971  0.4979  0.0989
19972TIP3    H181407   5.047   5.915   0.436 -1.3107 -0.1918  0.7900
19972TIP3    H281408   5.052   5.764   0.435 -0.3123 -0.1685 -0.7764
19973TIP3   OH281409   3.391   1.980  12.410  0.2343  0.0189  0.3409
19973TIP3    H181410   3.419   1.993  12.320  0.5137 -1.6023  0.1571
19973TIP3    H281411   3.297   1.996  12.409 -0.0364 -1.4221 -0.5984
19974TIP3   OH281412   2.373   0.291   0.521  0.1351  0.1866  0.0415
19974TIP3    H181413   2.307   0.346   0.562 -2.0997 -0.5956 -2.2543
19974TIP3    H281414   2.344   0.281   0.430  2.3607 -1.8571 -0.5714
19975TIP3   OH281415   2.567   5.549   5.735  0.0959 -0.1182  0.3684
19975TIP3    H181416   2.523   5.611   5.678  0.9055  1.0183  0.9331
19975TIP3    H281417   2.628   5.503   5.678 -0.6818 -0.5836 -0.1020
19976TIP3   OH281418   5.964   4.331  16.137  0.0455 -0.0888 -0.0166
19976TIP3    H181419   5.882   4.335  16.185  1.0622 -1.6146  1.9921
19976TIP3    H281420   5.981   4.238  16.125  0.4603  0.2093 -2.3481
19977TIP3   OH281421   2.966   6.573   1.467 -0.0099 -0.0893  0.2581
19977TIP3    H181422   2.952   6.478   1.462 -0.1993 -0.0527  0.0588
19977TIP3    H281423   3.061   6.583   1.471  0.0434 -0.2552 -0.4502
19978TIP3   OH281424   6.638   6.259  15.221  0.1654 -0.2488  0.4808
19978TIP3    H181425   6.613   6.314  15.295  0.2241  1.6966 -0.8496
19978TIP3    H281426   6.734   6.254  15.227  0.0298 -2.2558  1.9165
19979TIP3   OH281427   4.932   3.180   1.992  0.5503  0.4072 -0.3976
19979TIP3    H181428   4.868   3.227   1.937  0.1051 -0.2045 -0.4173
19979TIP3    H281429   4.976   3.121   1.931  1.0649  0.7440 -0.3595
19980TIP3   OH281430   0.214   3.433  11.488  0.1628  0.1884 -0.3850
19980TIP3    H181431   0.290   3.409  11.435  2.9065 -0.2510  3.3547
19980TIP3    H281432   0.233   3.521  11.520 -0.9852  0.1539  0.4737
19981TIP3   OH281433   6.751   2.391   2.322 -0.2726 -0.3638 -0.7632
19981TIP3    H181434   6.723   2.463   2.267 -0.0425  0.9807  0.7922
19981TIP3    H281435   6.690   2.320   2.303 -2.4659  1.2621 -0.1487
19982TIP3   OH281436   1.497   6.537   0.463 -0.0555 -0.3911 -0.0473
19982TIP3    H181437   1.532   6.451   0.440 -0.7479 -1.2606  1.9123
19982TIP3    H281438   1.409   6.538   0.427  0.4925  0.1464 -1.4166
19983TIP3   OH281439   6.536   0.500  14.529  0.3224  0.5273 -0.3757
19983TIP3    H181440   6.496   0.567  14.585  1.9953  1.7536 -0.5686
19983TIP3    H281441   6.510   0.525  14.440 -0.0624  0.1807 -0.3648
19984TIP3   OH281442   4.443   5.880  15.111 -0.1128  0.0790  0.2310
19984TIP3    H181443   4.406   5.802  15.152  0.0946  0.2484  0.7399
19984TIP3    H281444   4.530   5.853  15.081 -0.0952  0.0763  0.2851
19985TIP3   OH281445   5.927   6.477  11.739 -0.0013 -0.0581 -0.0872
19985TIP3    H181446   5.868   6.402  11.747  1.0958 -1.2745 -2.3466
19985TIP3    H281447   6.008   6.449  11.782 -0.1228  0.4852  0.5027
19986TIP3   OH281448   0.063   0.392  16.573  0.1388  0.2001 -0.4718
19986TIP3    H181449   0.078   0.453  16.501  0.8794  1.0225  0.3645
19986TIP3    H281450   0.149   0.353  16.591 -0.2529 -0.8416 -0.7555
19987TIP3   OH281451   2.024   3.272  11.938  0.1422 -0.3330  0.1057
19987TIP3    H181452   2.106   3.257  11.986  1.8841  0.1832 -2.5233
19987TIP3    H281453   2.026   3.208  11.867 -1.1608  0.4923 -0.7034
19988TIP3   OH281454   2.942   2.254   3.364 -0.3746 -0.4830  0.4982
19988TIP3    H181455   2.930   2.161   3.343  0.5611 -0.6362  0.5939
19988TIP3    H281456   3.030   2.275   3.331 -0.7631  0.4968  0.0439
19989TIP3   OH281457   2.356   6.563   3.607 -0.5085 -0.3624 -0.4883
19989TIP3    H181458   2.408   6.620   3.664  0.4561 -1.5966 -0.0997
19989TIP3    H281459   2.347   6.481   3.655 -3.6113  0.0328 -0.1533
19990TIP3   OH281460   1.242   6.277   6.114  0.2000 -1.0599  0.3016
19990TIP3    H181461   1.325   6.286   6.162  0.4249  0.5861 -0.3293
19990TIP3    H281462   1.176   6.268   6.182  0.4892  1.3708  1.0005
19991TIP3   OH281463   5.531   6.454  16.951  0.2768  0.9478 -0.0214
19991TIP3    H181464   5.466   6.475  17.018 -0.3271 -0.9901  0.0835
19991TIP3    H281465   5.615   6.479  16.989  0.0275 -0.7620  1.8158
19992TIP3   OH281466   3.140   6.002   0.643  0.3902 -0.1124 -0.1744
19992TIP3    H181467   3.086   6.080   0.635  0.7602  0.2007  0.3076
19992TIP3    H281468   3.163   5.979   0.553  1.1819  0.9729 -0.2657
19993TIP3   OH281469   4.210   3.312  16.904 -0.5014  0.0369 -0.6643
19993TIP3    H181470   4.140   3.338  16.963 -1.6671  0.7228 -2.2760
19993TIP3    H281471   4.290   3.346  16.945 -1.1555 -0.1741  0.8594
19994TIP3   OH281472   2.513   4.266   2.238 -0.5450 -0.0649  0.5813
19994TIP3    H181473   2.607   4.262   2.257 -0.4040  1.2643  0.2451
19994TIP3    H281474   2.508   4.266   2.142 -0.7759  1.5590  0.5732
19995TIP3   OH281475   5.818   6.299  16.388  0.0631 -0.7225 -0.0214
19995TIP3    H181476   5.865   6.319  16.468 -1.3233  0.4191  0.5638
19995TIP3    H281477   5.726   6.315  16.410 -0.2318  1.1939 -2.2479
19996TIP3   OH281478   3.409   3.793   2.854  0.4019 -0.2874  0.0874
19996TIP3    H181479   3.337   3.833   2.903 -0.3280 -1.7343  0.2826
19996TIP3    H281480   3.487   3.840   2.882  0.1059 -1.3397  3.0871
19997TIP3   OH281481   3.752   4.453   1.826  0.4851  0.0811  0.2186
19997TIP3    H181482   3.777   4.522   1.765  1.3063  0.0484  0.5181
19997TIP3    H281483   3.800   4.472   1.906  0.0409 -0.3405  0.5936
19998TIP3   OH281484   2.216   2.788   3.943 -0.0708 -0.0028  0.5399
19998TIP3    H181485   2.255   2.727   3.881  0.6279 -0.4640  1.4207
19998TIP3    H281486   2.121   2.772   3.936 -0.0423  0.2680 -0.7099
19999TIP3   OH281487   2.615   3.188  17.190 -0.0532  0.1810  0.2870
19999TIP3    H181488   2.562   3.251  17.238  0.5950  1.1275 -0.1917
19999TIP3    H281489   2.666   3.242  17.129  1.7593 -0.6325  1.0131
20000TIP3   OH281490   0.486   1.596  16.056 -0.0581  0.0958  0.0191
20000TIP3    H181491   0.539   1.671  16.084 -1.6987  0.4608  2.4569
20000TIP3    H281492   0.421   1.634  15.997  1.1519 -0.0219 -1.4224
20001TIP3   OH281493   2.063   3.716  12.384 -0.2459  0.6086  0.1489
20001TIP3    H181494   2.010   3.735  12.462 -1.5258  1.1099 -0.8027
20001TIP3    H281495   2.049   3.623  12.367 -1.5856  0.9222 -0.6078
20002TIP3   OH281496   3.468   4.366   1.788  1.0217 -0.1788 -0.3406
20002TIP3    H181497   3.548   4.418   1.783  0.3585  0.9298  0.1376
20002TIP3    H281498   3.414   4.396   1.715  0.5728 -0.0872  0.0212
20003TIP3   OH281499   2.329   4.975  14.999  0.1007 -0.4420 -0.0679
20003TIP3    H181500   2.281   4.973  15.082 -1.0008 -0.2766 -0.6912
20003TIP3    H281501   2.414   5.013  15.022 -0.1900 -0.3975  0.9877
20004TIP3   OH281502   0.041   5.018   1.680 -0.0346  0.1228 -0.9880
20004TIP3    H181503   0.061   5.083   1.748  0.6836 -1.8981  0.8514
20004TIP3    H281504  -0.055   5.019   1.674 -0.0944  0.5825 -0.1828
20005TIP3   OH281505   4.520   4.193  12.268  0.0222 -0.4923  0.3557
20005TIP3    H181506   4.454   4.260  12.287 -3.0518 -2.2315 -2.8152
20005TIP3    H281507   4.592   4.241  12.228 -1.5981  1.1316 -0.8248
20006TIP3   OH281508   2.580   2.611   2.526 -0.2832  0.2296 -0.1126
20006TIP3    H181509   2.612   2.534   2.572 -0.4389  0.5549  0.5670
20006TIP3    H281510   2.541   2.577   2.445  1.4652 -0.1949 -0.8038
20007TIP3   OH281511   1.052   3.036   4.284 -0.1935  0.1819  0.0282
20007TIP3    H181512   1.060   3.041   4.380 -0.8572 -0.2714  0.1126
20007TIP3    H281513   1.014   3.121   4.259  1.5009  0.9602 -0.0203
20008TIP3   OH281514   1.766   4.191  14.603 -0.1281 -0.0186 -0.0977
20008TIP3    H181515   1.796   4.186  14.512 -0.3692 -0.3362 -0.1620
20008TIP3    H281516   1.672   4.173  14.599 -0.5243  1.8939  0.0016
20009TIP3   OH281517   5.902   4.354   1.376  0.0836  0.3800 -0.2141
20009TIP3    H181518   5.822   4.329   1.423 -0.7336  1.0585 -1.2016
20009TIP3    H281519   5.894   4.449   1.365  2.0579  0.8226  1.5271
20010TIP3   OH281520   3.236   0.779  15.372 -0.1416 -0.5120 -0.1127
20010TIP3    H181521   3.283   0.702  15.340 -1.0411 -0.9303 -0.4663
20010TIP3    H281522   3.144   0.758  15.357 -0.4153  0.4780  0.1511
20011TIP3   OH281523   5.173   1.971   1.494 -0.5687 -0.0687  0.6327
20011TIP3    H181524   5.139   2.000   1.579 -0.4106 -1.3996  1.1852
20011TIP3    H281525   5.262   1.943   1.513 -1.0134 -1.7695  0.3596
20012TIP3   OH281526   1.840   5.322  10.851 -0.1201 -0.2571 -0.1234
20012TIP3    H181527   1.897   5.345  10.924 -2.0975  0.9860  1.1276
20012TIP3    H281528   1.826   5.228  10.860  1.3285 -0.4962 -0.1954
20013TIP3   OH281529   1.963   5.834  13.478 -0.2906 -0.1933  0.3145
20013TIP3    H181530   1.878   5.795  13.497 -0.5945  0.0495 -0.5204
20013TIP3    H281531   1.994   5.789  13.400 -1.7571  2.7894 -2.1743
20014TIP3   OH281532   1.508   2.088   3.525  0.3717  0.2446  0.3939
20014TIP3    H181533   1.553   2.157   3.574 -0.5398  0.1676  1.4040
20014TIP3    H281534   1.417   2.118   3.521  0.0535 -0.6868  0.4611
20015TIP3   OH281535   2.815   1.971   0.176  0.6291  0.1393 -0.2081
20015TIP3    H181536   2.851   2.034   0.238  0.9298  0.9969 -1.2142
20015TIP3    H281537   2.830   1.886   0.217  2.3827  0.5722  0.1319
20016TIP3   OH281538   6.500   2.451  11.112  0.4528  0.2886  0.0427
20016TIP3    H181539   6.495   2.360  11.140  0.8264  0.3566  0.3297
20016TIP3    H281540   6.593   2.470  11.109  0.4485  0.1891 -1.5657
20017TIP3   OH281541   2.617   3.315  13.110  0.6190  0.1153  0.2304
20017TIP3    H181542   2.650   3.239  13.061 -0.6331 -0.6783  0.5861
20017TIP3    H281543   2.670   3.388  13.077  0.8732 -0.6543 -1.1820
20018TIP3   OH281544   2.055   4.330   0.205  0.6996 -0.5169 -0.3540
20018TIP3    H181545   2.066   4.404   0.146 -0.0225 -1.3841 -1.6206
20018TIP3    H281546   2.130   4.335   0.265  1.0700  0.7751 -0.9023
20019TIP3   OH281547   2.779   4.438   5.866 -0.2371  0.2171  0.6065
20019TIP3    H181548   2.840   4.385   5.917  0.7963 -0.4392 -1.2139
20019TIP3    H281549   2.813   4.527   5.872  0.9938 -0.1573 -0.4614
20020TIP3   OH281550   4.775   2.945   2.854  0.4346 -0.8441  0.0569
20020TIP3    H181551   4.697   2.934   2.909 -0.4376 -0.3114 -1.0377
20020TIP3    H281552   4.751   3.014   2.792  2.2811  0.3481  0.5893
20021TIP3   OH281553   0.033   1.238  14.915  0.4714 -0.3323 -0.3757
20021TIP3    H181554  -0.018   1.234  14.834  0.2958 -0.5579 -0.2549
20021TIP3    H281555  -0.033   1.244  14.984  0.5724  3.5169 -0.3730
20022TIP3   OH281556   1.522   0.718  13.774 -0.1690 -0.6085  0.2475
20022TIP3    H181557   1.575   0.718  13.695 -1.9820  0.6399 -1.0629
20022TIP3    H281558   1.520   0.810  13.801 -0.6584 -0.8227  0.9823
20023TIP3   OH281559   5.515   2.515   5.478  0.3961  0.6403  0.3878
20023TIP3    H181560   5.559   2.586   5.431  0.2370 -0.8771 -2.2085
20023TIP3    H281561   5.576   2.441   5.473 -0.6084 -0.2304  0.5793
20024TIP3   OH281562   4.238   3.513   0.557  0.5617  0.0823 -0.2228
20024TIP3    H181563   4.292   3.437   0.577 -0.0057 -0.3313 -0.2236
20024TIP3    H281564   4.161   3.476   0.512  0.0719  0.6028  0.1817
20025TIP3   OH281565   4.663   1.295  16.118 -0.6086 -0.1033 -0.1816
20025TIP3    H181566   4.663   1.204  16.145 -0.0391 -1.2899 -3.6465
20025TIP3    H281567   4.714   1.341  16.184 -2.0666 -1.9562  2.3900
20026TIP3   OH281568   2.058   4.232   4.232  0.4356 -0.7789  0.0170
20026TIP3    H181569   2.129   4.295   4.244  1.1818 -1.7870  1.1093
20026TIP3    H281570   2.039   4.234   4.138 -0.6005  2.1294  0.1799
20027TIP3   OH281571   2.676   4.404  13.657  0.0571  0.5187  0.2506
20027TIP3    H181572   2.758   4.381  13.701 -0.7680 -0.1875  1.4589
20027TIP3    H281573   2.633   4.467  13.716 -1.5059 -1.1684  0.9926
20028TIP3   OH281574   0.622   1.748   1.036  0.5006 -0.0661 -0.3509
20028TIP3    H181575   0.639   1.728   1.128  0.2358  0.0236 -0.2828
20028TIP3    H281576   0.659   1.836   1.023 -0.7854  0.5499  0.0525
20029TIP3   OH281577   2.575   0.933  16.302  0.4229 -0.2714  0.2990
20029TIP3    H181578   2.639   0.923  16.231 -1.4656 -0.7429 -1.4620
20029TIP3    H281579   2.570   1.027  16.317 -0.0485 -0.0442 -1.1287
20030TIP3   OH281580   2.878   3.997  13.787  0.0203  0.4846 -0.1277
20030TIP3    H181581   2.884   3.903  13.805 -2.5258  0.4447  0.8599
20030TIP3    H281582   2.954   4.034  13.831  1.8078 -1.1645 -1.5912
20031TIP3   OH281583   0.357   0.205   4.812  0.2249 -0.0561  0.6068
20031TIP3    H181584   0.290   0.179   4.875  0.2307 -0.2454  0.5367
20031TIP3    H281585   0.394   0.122   4.781  1.1623  0.0601  1.3626
20032TIP3   OH281586   2.136   0.455  14.839  0.7073 -0.3032  0.1238
20032TIP3    H181587   2.216   0.407  14.820 -0.0123 -2.0004  1.1538
20032TIP3    H281588   2.074   0.388  14.867 -0.5978  1.1562  0.8657
20033TIP3   OH281589   5.445   4.334  14.402 -0.3944 -0.0040  0.4501
20033TIP3    H181590   5.423   4.358  14.312 -0.5370  1.7884  0.9273
20033TIP3    H281591   5.410   4.406  14.456  0.1716 -0.7613  1.8897
20034TIP3   OH281592   0.659   6.060   4.006 -0.0139 -0.4169 -0.1333
20034TIP3    H181593   0.617   6.133   4.051 -0.3641  1.2093 -2.8946
20034TIP3    H281594   0.589   5.996   3.993 -0.0052 -0.7159  1.1527
20035TIP3   OH281595   2.081   5.965   4.368 -0.0107 -0.0274 -0.2696
20035TIP3    H181596   2.064   5.887   4.315 -0.0658 -0.7862  0.8334
20035TIP3    H281597   2.000   6.016   4.364  0.1696  0.1925 -1.3339
20036TIP3   OH281598   5.379   5.592  17.135  0.5783 -0.1609  0.0163
20036TIP3    H181599   5.360   5.686  17.143  2.2938  0.1145  1.3028
20036TIP3    H281600   5.306   5.550  17.181  0.7380  0.6361  1.0413
20037TIP3   OH281601   5.093   4.263   2.815 -0.2141  0.4417  0.2831
20037TIP3    H181602   5.178   4.262   2.772  0.0136  1.6834  0.6871
20037TIP3    H281603   5.037   4.315   2.758 -1.4025 -2.1982 -1.1778
20038TIP3   OH281604   6.545   0.816   5.797  0.2627 -0.4389 -0.3188
20038TIP3    H181605   6.629   0.789   5.759  1.6113 -0.9616  2.6957
20038TIP3    H281606   6.489   0.738   5.790  0.8956 -0.9172 -0.1523
20039TIP3   OH281607   2.337   4.284  15.249 -0.4668  1.0175  0.3757
20039TIP3    H181608   2.254   4.330  15.261  1.3795  4.3807  1.5941
20039TIP3    H281609   2.393   4.347  15.203  1.5377 -0.9955 -0.1333
20040TIP3   OH281610   6.620   1.707  10.563 -0.2663  0.5219  0.6804
20040TIP3    H181611   6.562   1.687  10.489  0.6294 -1.8592  0.5080
20040TIP3    H281612   6.619   1.802  10.570 -0.3696  0.8564 -2.4424
20041TIP3   OH281613   6.362   6.775   1.611  0.2793  0.0981 -0.4066
20041TIP3    H181614   6.272   6.789   1.582  0.4552  1.8961 -0.1816
20041TIP3    H281615   6.355   6.736   1.697 -0.2562 -1.4718 -1.1281
20042TIP3   OH281616   5.407   1.332  10.790  0.4152  0.2807 -0.2803
20042TIP3    H181617   5.419   1.361  10.881 -0.3910  1.6079 -0.5738
20042TIP3    H281618   5.495   1.329  10.754  0.7594 -0.3849  0.5612
20043TIP3   OH281619   5.154   0.772  14.620  0.5413  0.1089  0.2212
20043TIP3    H181620   5.181   0.768  14.529 -0.3222 -0.0849 -0.0356
20043TIP3    H281621   5.088   0.841  14.623 -0.6319 -0.9722  0.3640
20044TIP3   OH281622   3.320   6.364  12.152  0.0106 -0.3097  0.1378
20044TIP3    H181623   3.244   6.320  12.191 -2.8243  3.7609 -0.0644
20044TIP3    H281624   3.366   6.402  12.226  0.2129 -0.4655  0.0916
20045TIP3   OH281625   5.580   1.804   0.859  0.0934  0.5873  0.1996
20045TIP3    H181626   5.580   1.892   0.897  1.2684  0.3796  0.7175
20045TIP3    H281627   5.658   1.763   0.895 -1.4027 -1.3305  1.4764
20046TIP3   OH281628   6.743   3.440  12.481 -0.2436  0.7377  0.4559
20046TIP3    H181629   6.810   3.376  12.459  0.7387  1.3774  1.5008
20046TIP3    H281630   6.664   3.387  12.498  0.4631 -0.1786  1.0067
20047TIP3   OH281631   2.137   4.219   3.742 -0.0363 -0.2401  0.0817
20047TIP3    H181632   2.181   4.236   3.659  0.2134 -1.9688 -0.1585
20047TIP3    H281633   2.044   4.232   3.724  0.1622  1.3717  0.0681
20048TIP3   OH281634   3.473   1.349  12.744 -0.2511 -0.8699  0.3739
20048TIP3    H181635   3.428   1.330  12.662  0.8774 -0.3401 -0.3916
20048TIP3    H281636   3.551   1.294  12.742  0.3183 -0.0961  0.5913
20049TIP3   OH281637   4.171   3.624   1.837  0.5805 -0.1238 -0.2006
20049TIP3    H181638   4.106   3.661   1.778 -0.4018 -0.2515  0.7688
20049TIP3    H281639   4.200   3.543   1.794 -2.1856 -1.7264  0.7206
20050TIP3   OH281640   5.809   6.043   1.941 -0.0704  0.1660  0.5333
20050TIP3    H181641   5.763   5.959   1.931 -0.6976  0.5157  0.4213
20050TIP3    H281642   5.838   6.065   1.853  1.9819 -0.9621  0.8676
20051TIP3   OH281643   3.517   3.892  17.012 -0.0530 -0.1230  0.2778
20051TIP3    H181644   3.608   3.919  17.019 -0.7648  3.0641 -0.9131
20051TIP3    H281645   3.481   3.906  17.099 -0.0018  1.3544  0.0832
20052TIP3   OH281646   2.570   2.350  14.884 -0.7297 -0.2821  0.4067
20052TIP3    H181647   2.578   2.308  14.969  0.0637 -0.1700  0.3937
20052TIP3    H281648   2.653   2.395  14.871 -0.9968  0.0420 -0.2494
20053TIP3   OH281649   4.288   0.255  11.523 -0.1489 -0.3095 -0.3603
20053TIP3    H181650   4.232   0.178  11.515 -1.2475  0.2645  1.3923
20053TIP3    H281651   4.357   0.229  11.584 -1.0448  0.3226  0.9790
20054TIP3   OH281652   4.753   3.621  17.275  0.6233  0.1358  0.0206
20054TIP3    H181653   4.759   3.532  17.310 -3.4371 -0.4392 -0.3077
20054TIP3    H281654   4.708   3.671  17.343  1.3898  1.5795 -0.4822
20055TIP3   OH281655   0.403   3.737   3.397  0.2051 -0.3816 -0.5611
20055TIP3    H181656   0.397   3.812   3.456  0.4580  0.0149 -1.0348
20055TIP3    H281657   0.438   3.667   3.452  1.0548  0.1625 -0.3920
20056TIP3   OH281658   6.564   6.270   6.178  0.0413  0.1564  0.0612
20056TIP3    H181659   6.584   6.262   6.271  1.4973 -0.4899 -0.2731
20056TIP3    H281660   6.480   6.226   6.167 -1.2787  2.1836  1.4018
20057TIP3   OH281661   2.010   2.655  17.062  0.2753  0.5364 -0.4381
20057TIP3    H181662   2.006   2.580  17.003 -0.4910  1.9351 -2.2967
20057TIP3    H281663   1.967   2.726  17.013 -0.3500  1.8169  1.8007
20058TIP3   OH281664   2.296   4.877  16.187 -0.1315  0.2981 -0.0805
20058TIP3    H181665   2.306   4.786  16.158 -1.3154 -0.2274  1.1183
20058TIP3    H281666   2.378   4.896  16.232  0.7646  0.3615 -1.6467
20059TIP3   OH281667   1.203   2.642  15.627  0.3484  0.1362  0.2336
20059TIP3    H181668   1.224   2.689  15.708  0.5712 -0.3232  0.4438
20059TIP3    H281669   1.113   2.613  15.639 -0.1615  1.4013 -0.3313
20060TIP3   OH281670   1.740   4.118  15.138 -0.6249  0.2677  0.1961
20060TIP3    H181671   1.730   4.182  15.208 -0.1572  2.4674 -1.6521
20060TIP3    H281672   1.834   4.102  15.133 -0.3791  1.9170 -1.3763
20061TIP3   OH281673   1.220   0.642   4.236 -0.0535  0.0156  0.1515
20061TIP3    H181674   1.217   0.725   4.189  1.0539  0.9512  1.6574
20061TIP3    H281675   1.138   0.598   4.211 -1.4076  2.1947  0.4691
20062TIP3   OH281676   5.703   3.453   6.012 -0.2099 -0.0381  0.1787
20062TIP3    H181677   5.668   3.455   6.101  1.3804 -0.6702  0.8556
20062TIP3    H281678   5.647   3.389   5.966 -0.8654  0.0792  0.7947
20063TIP3   OH281679   2.065   1.383   4.572 -0.2831 -0.5356 -0.4361
20063TIP3    H181680   2.127   1.424   4.632 -2.1936  2.0373 -0.0497
20063TIP3    H281681   2.025   1.312   4.622  0.5724 -0.6194  0.1354
20064TIP3   OH281682   6.395   2.075   6.502 -0.3582 -0.2831 -0.1497
20064TIP3    H181683   6.339   2.142   6.541 -0.7095 -0.2781 -0.6584
20064TIP3    H281684   6.335   2.014   6.459 -0.0591 -1.0848  0.5345
20065TIP3   OH281685   0.900   0.969   0.045  0.2374  0.0189 -0.5207
20065TIP3    H181686   0.858   0.995   0.127  0.6822 -1.8199  0.3486
20065TIP3    H281687   0.894   1.046  -0.011  0.4050  1.5309  1.4338
20066TIP3   OH281688   4.839   0.510   2.171 -0.2483  0.4889 -0.5582
20066TIP3    H181689   4.782   0.580   2.203  0.2237  0.1843  1.0317
20066TIP3    H281690   4.924   0.553   2.157 -0.1063  0.3475 -0.1275
20067TIP3   OH281691   1.801   0.940   1.260 -0.2762 -0.6275  0.1208
20067TIP3    H181692   1.788   0.849   1.288  0.7135 -0.7296  0.2866
20067TIP3    H281693   1.896   0.949   1.252 -0.4250 -0.0562 -1.3992
20068TIP3   OH281694   5.535   5.960  17.137  0.0233  0.1994 -0.3648
20068TIP3    H181695   5.514   6.006  17.056  0.0486  1.1123  0.1342
20068TIP3    H281696   5.622   5.992  17.161  0.5741 -1.0281 -0.6394
20069TIP3   OH281697   5.107   1.746   4.045  0.0535  0.7287  0.2285
20069TIP3    H181698   5.167   1.736   4.119 -0.2666 -0.3054  0.3593
20069TIP3    H281699   5.123   1.835   4.014  2.5013  0.1016 -0.4815
20070TIP3   OH281700   2.600   1.304   2.378 -0.0489 -0.2442  0.0016
20070TIP3    H181701   2.607   1.338   2.468 -2.0544  1.3539 -0.3774
20070TIP3    H281702   2.669   1.350   2.330  1.3858 -1.4982  0.7746
20071TIP3   OH281703   4.500   6.754   1.092 -0.1166 -0.3993 -0.0634
20071TIP3    H181704   4.516   6.660   1.082 -2.0406 -0.9675  1.5793
20071TIP3    H281705   4.585   6.790   1.121  0.7907 -1.4909 -1.2493
20072TIP3   OH281706   2.595   4.727   4.188  0.0173  0.4430 -0.3447
20072TIP3    H181707   2.551   4.653   4.147 -0.9664  0.1165  1.1868
20072TIP3    H281708   2.571   4.802   4.134  0.0195 -0.1708 -1.2181
20073TIP3   OH281709   2.419   3.406   2.647  0.5864  0.1355 -0.3668
20073TIP3    H181710   2.507   3.438   2.668  0.4331 -0.3348  1.1534
20073TIP3    H281711   2.365   3.484   2.645  0.8747  0.3375 -0.4004
20074TIP3   OH281712   3.489   2.795   0.331  0.1188 -0.0146 -0.0050
20074TIP3    H181713   3.439   2.864   0.376  0.9833 -0.3155  1.4469
20074TIP3    H281714   3.565   2.841   0.295  0.0695 -0.0037 -0.0970
20075TIP3   OH281715   5.523   0.397  16.163 -0.2534  0.1664 -0.4154
20075TIP3    H181716   5.568   0.433  16.239 -0.6891 -0.4588  0.1503
20075TIP3    H281717   5.435   0.375  16.194 -0.4276 -0.1284 -1.0871
20076TIP3   OH281718   2.507   2.251  13.641  0.4451 -0.7826  0.1409
20076TIP3    H181719   2.442   2.281  13.704 -0.2419 -0.8392 -0.5195
20076TIP3    H281720   2.522   2.327  13.584  2.6083 -0.0483  1.5667
20077TIP3   OH281721   4.366   3.121  16.176 -0.2130  0.7872  0.2263
20077TIP3    H181722   4.362   3.100  16.270  0.2177  1.6717  0.4589
20077TIP3    H281723   4.334   3.042  16.132  0.4721 -0.0023  1.0823
20078TIP3   OH281724   3.098   6.189   6.104  0.1471 -0.1672  0.2797
20078TIP3    H181725   3.129   6.234   6.026 -1.8095 -0.3189 -0.6505
20078TIP3    H281726   3.130   6.099   6.095  2.8519  0.5563  1.4433
20079TIP3   OH281727   5.207   6.455  16.000 -0.1566  0.0837  0.0702
20079TIP3    H181728   5.125   6.455  15.950 -0.1113 -0.0996 -0.0064
20079TIP3    H281729   5.189   6.398  16.075  0.3400 -1.1528 -0.7007
20080TIP3   OH281730   3.500   1.388   3.504  0.0746  0.2389 -0.8763
20080TIP3    H181731   3.510   1.308   3.555 -0.4401 -1.0815 -2.7289
20080TIP3    H281732   3.405   1.403   3.501  0.2108  1.9098  0.7976
20081TIP3   OH281733   3.166   0.177   3.944  0.0143  0.0621  0.4928
20081TIP3    H181734   3.245   0.154   3.992  0.7179  0.1289 -0.5872
20081TIP3    H281735   3.118   0.095   3.932 -0.0040 -0.0016  1.0180
20082TIP3   OH281736   6.157   3.318  15.546  0.1476 -0.6116  0.0236
20082TIP3    H181737   6.161   3.230  15.508  1.4263 -0.5241 -0.0702
20082TIP3    H281738   6.201   3.374  15.483 -0.2301  0.0260  0.3138
20083TIP3   OH281739   6.552   4.503   0.619 -0.3029 -0.1724 -0.1742
20083TIP3    H181740   6.540   4.559   0.696 -1.8056 -1.0221  0.2556
20083TIP3    H281741   6.518   4.417   0.647  0.7456 -0.9598 -1.2294
20084TIP3   OH281742   0.550   6.232  17.088  0.5667  0.4068 -0.3225
20084TIP3    H181743   0.575   6.155  17.036 -0.2163 -0.1022  0.0387
20084TIP3    H281744   0.632   6.279  17.101  1.1600 -0.6607 -0.0799
20085TIP3   OH281745   1.856   1.961   5.840  0.5487  0.6238  0.1813
20085TIP3    H181746   1.800   1.891   5.875  0.2135  0.1185 -1.2695
20085TIP3    H281747   1.925   1.971   5.905 -0.9127  0.8812  1.7587
20086TIP3   OH281748   4.732   6.138   6.051  0.2822 -0.0543  0.0686
20086TIP3    H181749   4.723   6.054   6.006  2.2969  0.4320 -1.4248
20086TIP3    H281750   4.761   6.116   6.139  1.4593 -0.9334 -0.5127
20087TIP3   OH281751   0.552   0.484   0.424 -0.0219  0.1299 -0.0487
20087TIP3    H181752   0.610   0.540   0.373  2.1431  0.2882  2.4114
20087TIP3    H281753   0.527   0.536   0.500 -0.8980 -1.0231  0.4955
20088TIP3   OH281754   4.071   1.307   3.624  0.4294  0.1440 -0.2823
20088TIP3    H181755   4.156   1.265   3.635 -0.2977 -1.5850 -0.8013
20088TIP3    H281756   4.065   1.324   3.530 -0.3758 -1.1763 -0.5065
20089TIP3   OH281757   6.443   3.904   1.874 -0.3030  0.5461  0.3383
20089TIP3    H181758   6.353   3.919   1.903 -0.1686  1.3887  0.3453
20089TIP3    H281759   6.438   3.903   1.778 -0.6843 -1.8489  0.3149
20090TIP3   OH281760   0.190   2.759  14.194 -0.0354  0.2608 -0.0071
20090TIP3    H181761   0.273   2.798  14.222  0.2731 -0.4134  0.0223
20090TIP3    H281762   0.213   2.704  14.119 -0.7327  1.3990 -1.0911
20091TIP3   OH281763   5.492   2.362   2.471  0.6092  0.1079 -0.6127
20091TIP3    H181764   5.522   2.403   2.552 -0.0124 -0.3915 -0.1266
20091TIP3    H281765   5.403   2.395   2.459 -0.0811 -1.4370  0.0305
20092TIP3   OH281766   4.932   5.290  10.850 -0.3648 -0.1088  0.3474
20092TIP3    H181767   4.849   5.287  10.804 -0.4399  1.3395  0.3447
20092TIP3    H281768   4.930   5.213  10.907 -1.4471 -0.4108 -0.0691
20093TIP3   OH281769   3.388   2.640   4.100 -0.0588  0.5615  0.5034
20093TIP3    H181770   3.418   2.731   4.104 -0.8840  0.8432  0.4173
20093TIP3    H281771   3.450   2.596   4.042 -1.7673  1.9370 -2.6268
20094TIP3   OH281772   1.559   1.907  17.257 -0.0404  0.0848 -0.0207
20094TIP3    H181773   1.629   1.859  17.301 -0.0440 -1.7734 -1.9252
20094TIP3    H281774   1.527   1.848  17.189 -2.9074  1.1899  0.1961
20095TIP3   OH281775   4.528   1.532   5.044  0.2104 -0.5406 -0.0259
20095TIP3    H181776   4.436   1.560   5.037  0.7205  1.0873 -0.5793
20095TIP3    H281777   4.545   1.533   5.138  0.2078  1.1514 -0.0066
20096TIP3   OH281778   0.733   5.932  15.648 -0.1241  0.0285  0.1662
20096TIP3    H181779   0.719   5.856  15.704  0.4172 -0.8217 -0.8173
20096TIP3    H281780   0.805   5.906  15.590  0.3154  1.4238  0.0435
20097TIP3   OH281781   3.829   1.452   0.812  1.3384  0.2754  0.0044
20097TIP3    H181782   3.764   1.401   0.764  2.3806 -0.0638 -1.1135
20097TIP3    H281783   3.778   1.513   0.865  0.1091 -0.5966 -0.1317
20098TIP3   OH281784   2.324   2.606  17.298  0.5069 -0.0354  0.3308
20098TIP3    H181785   2.334   2.671  17.368 -0.2836 -0.5535  0.9441
20098TIP3    H281786   2.362   2.648  17.221 -0.1781  1.2436  0.6600
20099TIP3   OH281787   5.894   2.559   3.953 -0.5263  0.2833 -0.0040
20099TIP3    H181788   5.920   2.483   3.902 -0.9123 -1.4934  2.2916
20099TIP3    H281789   5.799   2.566   3.938 -0.3942  0.7263 -0.6932
20100TIP3   OH281790   0.541   2.371   5.543 -0.0852 -0.0831 -0.0011
20100TIP3    H181791   0.604   2.328   5.601  1.8398 -0.0211 -1.9132
20100TIP3    H281792   0.527   2.308   5.472  0.4897  1.2104 -1.3226
20101TIP3   OH281793   6.116   6.775  13.113 -0.5047 -0.6232  0.0279
20101TIP3    H181794   6.162   6.815  13.039 -2.1379 -1.4721 -1.5381
20101TIP3    H281795   6.048   6.838  13.136 -0.3360 -0.5963  0.4623
20102TIP3   OH281796   3.567   6.074  15.896  0.0594  0.1111  0.8849
20102TIP3    H181797   3.482   6.065  15.853 -0.6005  0.7904  1.9939
20102TIP3    H281798   3.622   6.007  15.855 -0.7771  0.1735 -0.3879
20103TIP3   OH281799   2.109   6.309  15.520  0.4011 -0.5296 -0.5560
20103TIP3    H181800   2.105   6.225  15.473  0.4575 -0.3016 -0.9713
20103TIP3    H281801   2.150   6.369  15.458 -3.1815  0.8493 -1.8673
20104TIP3   OH281802   5.212   0.179  12.087  0.1475 -0.0354 -0.0290
20104TIP3    H181803   5.173   0.093  12.104  2.0338 -0.6202  1.8668
20104TIP3    H281804   5.210   0.223  12.172  0.9440  1.0202 -0.5430
20105TIP3   OH281805   0.422   2.179  16.165 -0.4226  0.2815  0.3144
20105TIP3    H181806   0.336   2.219  16.177 -0.3694 -0.2446  3.0267
20105TIP3    H281807   0.443   2.139  16.249  2.0748 -0.4560 -0.5408
20106TIP3   OH281808   1.958   4.418  17.225 -0.2426 -0.0393  0.5542
20106TIP3    H181809   1.910   4.343  17.193 -1.5626  1.0007 -0.0013
20106TIP3    H281810   1.891   4.483  17.245  0.8836  2.3740 -2.5804
20107TIP3   OH281811   1.257   2.786  12.112  0.4534 -0.4470 -0.3748
20107TIP3    H181812   1.229   2.834  12.190  1.8784 -1.0279  0.5200
20107TIP3    H281813   1.182   2.730  12.091 -0.6549  1.0449 -0.5538
20108TIP3   OH281814   6.160   0.196   2.579 -0.3395 -0.0396  0.6824
20108TIP3    H181815   6.124   0.250   2.650 -1.5984  1.1016 -0.7302
20108TIP3    H281816   6.095   0.127   2.566 -0.1749 -0.1721  0.5534
20109TIP3   OH281817   1.093   0.907  13.892  0.2243  0.4528  0.3938
20109TIP3    H181818   1.011   0.898  13.941 -0.2373  1.1004 -0.2236
20109TIP3    H281819   1.090   0.996  13.857  1.2715  0.5382  0.4874
20110TIP3   OH281820   0.048   1.376   5.224 -0.3485  0.2820  0.0456
20110TIP3    H181821   0.124   1.434   5.233 -0.7903  0.8946 -0.0498
20110TIP3    H281822  -0.007   1.397   5.299  0.6222 -1.8347  1.4526
20111TIP3   OH281823   6.041   4.163  17.297 -0.0349  0.3143  1.0313
20111TIP3    H181824   5.996   4.244  17.323  0.3338  0.0432  2.6022
20111TIP3    H281825   6.122   4.163  17.348  0.4612 -0.5443  0.2682
20112TIP3   OH281826   5.802   0.793  16.863  0.5088  0.1189 -0.0050
20112TIP3    H181827   5.748   0.850  16.918 -4.1327 -2.9692 -0.7516
20112TIP3    H281828   5.776   0.815  16.773  2.0784 -0.1527 -0.5545
20113TIP3   OH281829   0.316   3.808  14.652 -0.5317 -0.6714  0.3288
20113TIP3    H181830   0.228   3.771  14.655 -0.0981 -1.6761  1.3210
20113TIP3    H281831   0.363   3.752  14.589  0.0141 -1.6188  1.5345
20114TIP3   OH281832   4.640   1.732   0.570  0.3448  0.1027  0.8182
20114TIP3    H181833   4.703   1.793   0.608  1.1596 -0.2539  0.0714
20114TIP3    H281834   4.554   1.767   0.596  0.7755  1.6624  0.2599
20115TIP3   OH281835   3.865   5.362   0.925  0.2658 -0.4267 -0.2756
20115TIP3    H181836   3.815   5.309   0.864 -2.2766  1.9942 -0.4699
20115TIP3    H281837   3.937   5.398   0.873 -0.4901 -0.2926 -1.2395
20116TIP3   OH281838   6.429   6.052  16.751 -0.0278 -0.0508  0.1527
20116TIP3    H181839   6.371   6.029  16.678 -1.0847  0.9556  0.6449
20116TIP3    H281840   6.517   6.032  16.719 -0.5480 -0.5617 -1.0225
20117TIP3   OH281841   2.649   1.334  16.512  0.3923  0.1535  0.3047
20117TIP3    H181842   2.673   1.346  16.604  1.3580  1.7184 -0.1136
20117TIP3    H281843   2.636   1.423  16.479  0.0375 -0.3831 -1.0686
20118TIP3   OH281844   5.623   3.013  12.121  0.1161 -0.2789 -0.0197
20118TIP3    H181845   5.607   3.014  12.216  0.5373 -1.8337  0.0944
20118TIP3    H281846   5.712   3.048  12.112 -0.2833  0.7873  0.0572
20119TIP3   OH281847   5.265   3.338   6.194  1.0764 -0.0141 -0.2074
20119TIP3    H181848   5.315   3.302   6.120  2.0696  1.4587 -0.2884
20119TIP3    H281849   5.195   3.274   6.209  2.6252 -1.8666 -0.4684
20120TIP3   OH281850   1.026   0.057  16.918  0.0761 -0.1528  0.6780
20120TIP3    H181851   1.003   0.150  16.916  1.2146  0.1294  0.2327
20120TIP3    H281852   1.090   0.046  16.848  0.3112 -1.1742  1.0338
20121TIP3   OH281853   5.872   6.740   5.030  0.1720 -0.1738  0.5001
20121TIP3    H181854   5.873   6.807   4.961  1.2771 -1.1196 -0.4560
20121TIP3    H281855   5.848   6.788   5.109 -3.0260  0.6231 -0.8124
20122TIP3   OH281856   2.094   6.811  16.852 -0.5110  0.8611  0.5386
20122TIP3    H181857   2.034   6.879  16.821 -0.3589  1.1979  0.9768
20122TIP3    H281858   2.170   6.860  16.883 -0.8628  0.5643  1.9095
20123TIP3   OH281859   4.076   6.582   3.126 -0.0001 -0.4901  0.0422
20123TIP3    H181860   4.083   6.647   3.056  1.0688  0.5215  1.0491
20123TIP3    H281861   3.986   6.589   3.156 -0.2010 -0.2596 -0.5881
20124TIP3   OH281862   3.773   2.266  11.622 -0.1153 -0.6772 -0.3471
20124TIP3    H181863   3.700   2.221  11.664  0.2946  0.8323  2.1829
20124TIP3    H281864   3.818   2.198  11.573 -2.9756 -1.7265 -1.7332
20125TIP3   OH281865   0.518   4.168   2.124  0.0694  0.6235  0.3915
20125TIP3    H181866   0.569   4.098   2.083 -2.2081 -1.5011  0.9337
20125TIP3    H281867   0.537   4.160   2.218 -1.2736 -0.2515  0.6072
20126TIP3   OH281868   3.526   5.961   5.547 -0.2501  0.3302 -0.0171
20126TIP3    H181869   3.475   5.927   5.474  0.4064 -1.8515  0.4705
20126TIP3    H281870   3.477   5.933   5.625 -0.1025  1.2416  0.4190
20127TIP3   OH281871   1.300   1.289  12.790  0.1776 -0.1144 -0.1783
20127TIP3    H181872   1.229   1.346  12.759  0.5758 -0.2831 -1.4382
20127TIP3    H281873   1.367   1.350  12.822 -0.1067  0.0656  0.0894
20128TIP3   OH281874   2.950   2.051  13.778  0.5779 -0.5057  0.1678
20128TIP3    H181875   2.882   2.029  13.715  0.3145 -1.1381  0.6570
20128TIP3    H281876   2.923   2.134  13.816  1.1991  0.3370 -1.1797
20129TIP3   OH281877   0.547   0.751   5.610  0.3069 -0.1046  0.0285
20129TIP3    H181878   0.618   0.816   5.606  0.5949 -0.3895  0.4419
20129TIP3    H281879   0.531   0.740   5.703  0.7079 -1.1139 -0.0099
20130TIP3   OH281880   0.817   6.401  11.335  0.5807 -0.1135  0.4564
20130TIP3    H181881   0.856   6.393  11.248  1.0849  0.9358  0.5711
20130TIP3    H281882   0.851   6.484  11.369 -3.2469  1.9316 -0.2066
20131TIP3   OH281883   5.148   1.971   4.780  0.0023  0.1647 -0.5605
20131TIP3    H181884   5.214   2.017   4.832  0.2115  0.6867 -1.2676
20131TIP3    H281885   5.159   1.879   4.804  2.1096  0.0195 -1.8182
20132TIP3   OH281886   0.544   5.786   4.438 -0.1862  0.1396  0.3848
20132TIP3    H181887   0.597   5.812   4.362 -0.6496 -0.9319 -0.3206
20132TIP3    H281888   0.519   5.869   4.478  1.3430  0.6853  0.2652
20133TIP3   OH281889   0.103   4.279  11.991  0.0209  0.7252 -0.5060
20133TIP3    H181890   0.136   4.191  11.972  0.2537  0.5263  0.7628
20133TIP3    H281891   0.069   4.273  12.080 -0.5375  1.7671 -0.6383
20134TIP3   OH281892   0.743   3.407  15.321  0.0883  0.0504 -0.0783
20134TIP3    H181893   0.823   3.355  15.315 -0.4972 -0.9372  0.4447
20134TIP3    H281894   0.772   3.498  15.312  1.4003 -0.2174  1.1478
20135TIP3   OH281895   0.930   5.251  13.038  0.0199 -0.3519  0.1939
20135TIP3    H181896   0.886   5.254  12.953 -0.1832  0.1127  0.3174
20135TIP3    H281897   1.021   5.275  13.018  0.8648 -3.5273 -0.4573
20136TIP3   OH281898   5.796   6.264  14.718  0.1049  1.0621  0.3789
20136TIP3    H181899   5.873   6.233  14.765 -0.3968  2.4196  2.2191
20136TIP3    H281900   5.777   6.349  14.757 -1.8145  1.1603 -0.6470
20137TIP3   OH281901   0.141   5.140  14.810  0.0375 -0.0431  0.3902
20137TIP3    H181902   0.204   5.172  14.875  0.9177  0.1122 -0.5099
20137TIP3    H281903   0.139   5.045  14.823  1.2662 -0.1721 -0.2503
20138TIP3   OH281904   0.532   4.971   4.770 -0.5717  0.0099  0.4540
20138TIP3    H181905   0.548   5.053   4.725 -0.4338 -0.3156 -0.0974
20138TIP3    H281906   0.619   4.934   4.784 -0.6966 -0.9319 -0.9966
20139TIP3   OH281907   4.662   5.359  13.262  0.1104 -0.6994 -0.6935
20139TIP3    H181908   4.651   5.336  13.169  1.7319 -2.5418 -0.4781
20139TIP3    H281909   4.586   5.321  13.305  0.0734 -1.0838 -1.0887
20140TIP3   OH281910   5.588   0.620   2.767 -0.0489  0.5648 -0.3004
20140TIP3    H181911   5.524   0.600   2.835  0.1062  2.9409  0.6669
20140TIP3    H281912   5.536   0.632   2.688 -0.3766 -0.9349 -0.3354
20141TIP3   OH281913   5.930   4.957   3.838 -0.7948 -0.0593 -0.3640
20141TIP3    H181914   6.016   4.936   3.874 -1.3768 -1.9275  0.0563
20141TIP3    H281915   5.948   5.006   3.758  0.6910 -1.1505 -0.7286
20142TIP3   OH281916   4.089   1.678   5.640 -0.0625 -0.1273 -0.6324
20142TIP3    H181917   4.090   1.585   5.663 -1.2254 -0.0600 -0.2295
20142TIP3    H281918   3.996   1.700   5.635  0.0741  1.8243  2.6772
20143TIP3   OH281919   1.918   2.614  15.693  0.8776  0.1000  0.3096
20143TIP3    H181920   1.902   2.631  15.785 -0.6559 -0.2268  0.1201
20143TIP3    H281921   1.959   2.695  15.661 -0.2776  0.9266  0.8748
20144TIP3   OH281922   1.046   2.989  14.599 -0.2601 -0.3114  0.2014
20144TIP3    H181923   0.987   3.040  14.654  1.0976  0.8408  0.6205
20144TIP3    H281924   1.103   3.054  14.558  0.5005 -1.3763 -0.4702
20145TIP3   OH281925   3.165   5.590   3.686  0.2645  0.5718  0.5637
20145TIP3    H181926   3.128   5.661   3.738 -1.0794  1.4374 -1.4496
20145TIP3    H281927   3.133   5.606   3.597  1.2023 -1.6920 -0.2577
20146TIP3   OH281928   5.670   2.699   6.170 -0.0646 -0.1541 -0.3726
20146TIP3    H181929   5.591   2.669   6.214 -0.6067  2.8833  0.9858
20146TIP3    H281930   5.734   2.630   6.186 -2.0444 -2.1315 -0.4623
20147TIP3   OH281931   5.771   0.524  16.891  0.4146 -0.6657 -0.4031
20147TIP3    H181932   5.748   0.609  16.853 -1.3625 -1.8559 -2.1288
20147TIP3    H281933   5.822   0.547  16.969  0.4492  1.9616 -1.0890
20148TIP3   OH281934   0.147   0.943  15.194  0.0250 -0.3095  0.2717
20148TIP3    H181935   0.074   0.963  15.135  0.6937  0.3211 -0.3646
20148TIP3    H281936   0.116   0.968  15.281  0.3761  2.4561 -0.3197
20149TIP3   OH281937   3.448   4.864   6.266 -0.1505 -0.0921 -0.1328
20149TIP3    H181938   3.376   4.821   6.220 -0.0605 -0.8430  0.4069
20149TIP3    H281939   3.448   4.824   6.353  1.4580 -0.7136 -0.3936
20150TIP3   OH281940   5.288   2.905  15.961  0.2944 -0.0380 -0.5051
20150TIP3    H181941   5.364   2.932  15.910  0.3699 -1.5722 -1.2422
20150TIP3    H281942   5.245   2.838  15.907 -1.2498  0.3733  0.1597
20151TIP3   OH281943   0.954   4.796   2.943  0.0697 -0.0923 -0.4640
20151TIP3    H181944   1.015   4.830   3.009  2.6731 -3.5363 -0.8121
20151TIP3    H281945   1.003   4.802   2.861 -0.1037 -2.6414 -0.8155
20152TIP3   OH281946   1.057   3.184   2.857  0.2310  0.2299  0.2941
20152TIP3    H181947   1.112   3.108   2.877  0.6746  0.5767  0.4013
20152TIP3    H281948   1.116   3.259   2.865  0.2159  0.4745 -1.4173
20153TIP3   OH281949   2.772   6.704  16.179  0.5937  0.4720 -0.0345
20153TIP3    H181950   2.688   6.746  16.161  0.4511 -0.8155 -2.9480
20153TIP3    H281951   2.754   6.644  16.252 -1.0620  0.1509 -0.6666
20154TIP3   OH281952   6.357   4.193   0.387 -0.1392  0.0090  0.1935
20154TIP3    H181953   6.282   4.245   0.358  0.3776  0.5369 -0.2205
20154TIP3    H281954   6.430   4.224   0.334  1.2344  2.1760  3.0233
20155TIP3   OH281955   2.773   1.138  16.900  0.1593  0.3592  0.1077
20155TIP3    H181956   2.793   1.213  16.843  1.2495  0.1581  0.1981
20155TIP3    H281957   2.685   1.111  16.874  0.0044  1.2690 -0.3757
20156TIP3   OH281958   3.693   6.750  13.292  0.0768  0.3388  0.2146
20156TIP3    H181959   3.771   6.694  13.295  0.2314  0.4999 -0.4358
20156TIP3    H281960   3.727   6.837  13.271 -0.3513  0.1948 -1.2311
20157TIP3   OH281961   2.980   1.282   0.519 -0.1110 -0.3136  0.1985
20157TIP3    H181962   2.979   1.364   0.569  0.8592 -0.1144 -0.0971
20157TIP3    H281963   3.040   1.225   0.567  0.2813 -0.3690 -0.3538
20158TIP3   OH281964   3.568   0.806   2.349  0.0915 -0.6194 -0.2850
20158TIP3    H181965   3.576   0.815   2.444  1.0169 -0.3997 -0.3733
20158TIP3    H281966   3.498   0.742   2.337  0.7415 -1.5292  0.5734
20159TIP3   OH281967   6.578   2.722   1.940 -0.1521  0.0885 -0.4607
20159TIP3    H181968   6.513   2.791   1.930 -1.1689 -0.3523  2.2311
20159TIP3    H281969   6.526   2.643   1.958  1.0763 -0.4261  0.9961
20160TIP3   OH281970   2.789   1.587  12.147  0.4732  0.4500  0.9405
20160TIP3    H181971   2.718   1.610  12.086  0.4070 -1.5201  0.1964
20160TIP3    H281972   2.864   1.568  12.091  1.3118  1.4652  1.6731
20161TIP3   OH281973   4.407   1.771   3.520  0.2652  0.4237 -0.0005
20161TIP3    H181974   4.312   1.767   3.525  0.3246 -0.4267  0.5937
20161TIP3    H281975   4.435   1.680   3.509  0.9600  0.7628 -1.2944
20162TIP3   OH281976   5.841   3.515  11.528  0.5805  0.6402  0.0680
20162TIP3    H181977   5.921   3.566  11.539  1.5816 -0.7870 -0.2829
20162TIP3    H281978   5.835   3.462  11.608  0.0056  0.7049  0.0745
20163TIP3   OH281979   6.253   2.506  10.438  0.3219  0.1409  0.0678
20163TIP3    H181980   6.347   2.514  10.423  0.1320  0.7936 -0.8484
20163TIP3    H281981   6.214   2.580  10.391 -0.6980 -0.5173 -0.1642
20164TIP3   OH281982   4.160   3.391   1.506  0.5250  0.4756  0.1316
20164TIP3    H181983   4.179   3.313   1.559  1.4279  0.4013 -0.2856
20164TIP3    H281984   4.067   3.383   1.484  0.2731  0.2194  1.2320
20165TIP3   OH281985   4.043   5.225  15.916 -0.0911  0.6652  0.7228
20165TIP3    H181986   3.957   5.267  15.925 -1.6870 -1.9877 -0.7107
20165TIP3    H281987   4.064   5.234  15.823  0.0804 -0.5896  0.6215
20166TIP3   OH281988   2.491   5.544  17.227 -0.0571  0.8690  0.2634
20166TIP3    H181989   2.428   5.593  17.280  0.5812  0.1633  1.7500
20166TIP3    H281990   2.507   5.464  17.277  3.6964  1.9791  1.2050
20167TIP3   OH281991   6.515   3.810   4.329 -0.4035  0.1115  0.7108
20167TIP3    H181992   6.538   3.851   4.412 -0.6818  1.1439  0.2911
20167TIP3    H281993   6.468   3.878   4.280 -0.2677 -0.4831 -0.2827
20168TIP3   OH281994   1.324   5.998  11.663  0.5218 -0.7982  0.2517
20168TIP3    H181995   1.320   5.924  11.603 -0.9459  0.1356 -0.8886
20168TIP3    H281996   1.405   6.044  11.638 -0.1291 -0.3502 -1.1684
20169TIP3   OH281997   1.569   6.704  14.252 -0.5397  0.0965  0.6371
20169TIP3    H181998   1.543   6.726  14.342  0.3106  0.0246  0.9132
20169TIP3    H281999   1.509   6.633  14.226  0.2594 -1.0268  1.7562
20170TIP3   OH282000   5.334   5.496   2.466 -0.2637  0.1894 -0.3022
20170TIP3    H182001   5.248   5.453   2.472 -0.2413  0.3349  2.1254
20170TIP3    H282002   5.315   5.589   2.477  0.2498  0.1001  1.9433
20171TIP3   OH282003   3.538   2.098  11.581 -0.1205  0.1328  0.0824
20171TIP3    H182004   3.567   2.025  11.527 -1.8729 -0.5515  0.0021
20171TIP3    H282005   3.500   2.057  11.659  0.1483  1.0204  0.7005
20172TIP3   OH282006   3.326   4.604   0.416  0.2136  0.2837 -0.2416
20172TIP3    H182007   3.248   4.552   0.436  0.5767 -0.3045 -0.3195
20172TIP3    H282008   3.305   4.648   0.333  0.1435 -0.2479 -0.5109
20173TIP3   OH282009   3.676   2.348  16.544 -0.2097 -0.5398 -0.3270
20173TIP3    H182010   3.644   2.339  16.634  0.5201  1.1632  0.1411
20173TIP3    H282011   3.657   2.439  16.521 -0.0339 -0.8452 -1.7757
20174TIP3   OH282012   3.541   2.558  16.474 -0.3477  0.4391  0.0547
20174TIP3    H182013   3.533   2.600  16.388 -2.3027 -1.8341 -0.9887
20174TIP3    H282014   3.450   2.542  16.502  0.2747 -0.1697  1.8843
20175TIP3   OH282015   3.950   5.629  15.268  0.3268  0.4803  0.2312
20175TIP3    H182016   3.866   5.669  15.246  0.5298  1.2553  0.8444
20175TIP3    H282017   4.002   5.700  15.305  1.2372 -0.0069 -0.0768
20176TIP3   OH282018   5.495   0.830  12.885  0.0570 -0.3953  0.0565
20176TIP3    H182019   5.531   0.844  12.973  0.4289 -0.9949 -0.0014
20176TIP3    H282020   5.401   0.823  12.899 -0.1447  1.6862  0.1558
20177TIP3   OH282021   3.219   6.758   3.550 -0.2320  0.0125  0.2374
20177TIP3    H182022   3.261   6.808   3.619  0.3352  0.3560 -0.3444
20177TIP3    H282023   3.289   6.735   3.489 -0.4738 -1.5487  0.5074
20178TIP3   OH282024   4.213   4.581  11.681  0.4425 -0.2801  0.5184
20178TIP3    H182025   4.188   4.627  11.601 -0.3307  0.6251  1.2560
20178TIP3    H282026   4.262   4.504  11.651  1.4603  0.8302 -0.7558
20179TIP3   OH282027   3.656   0.449  16.453  0.4236 -0.3394 -0.2172
20179TIP3    H182028   3.680   0.361  16.423  2.2694  0.4800 -1.2821
20179TIP3    H282029   3.697   0.508  16.390 -1.1346  1.3099  0.2221
20180TIP3   OH282030   2.354   2.181   0.482  0.5874  0.0986  0.6981
20180TIP3    H182031   2.448   2.173   0.471  0.3125 -1.1506 -1.1149
20180TIP3    H282032   2.329   2.106   0.535  0.5799  0.3592  1.0700
20181TIP3   OH282033   1.794   6.457   2.300 -0.2624  0.0339  0.5029
20181TIP3    H182034   1.702   6.468   2.323 -0.0351  0.3987  1.2867
20181TIP3    H282035   1.813   6.365   2.319 -0.5028 -0.0852  0.1801
20182TIP3   OH282036   5.181   4.911  10.862  0.4328  0.4970 -0.1609
20182TIP3    H182037   5.096   4.868  10.869  0.0973  1.3647  1.6427
20182TIP3    H282038   5.204   4.904  10.769 -1.7714  0.5899 -0.7554
20183TIP3   OH282039   0.629   4.367  13.249 -0.5855 -0.0924 -0.2020
20183TIP3    H182040   0.563   4.395  13.313 -0.3400  0.3664 -0.1435
20183TIP3    H282041   0.626   4.434  13.181  0.7859  0.7251  0.4836
20184TIP3   OH282042   4.036   6.607   3.765  0.3008  0.1470 -0.4584
20184TIP3    H182043   3.980   6.575   3.836 -1.2567  0.7813 -1.3379
20184TIP3    H282044   4.117   6.634   3.808 -0.3150 -0.1881  0.9636
20185TIP3   OH282045   5.246   0.139   2.561 -0.6757 -0.2193  0.2570
20185TIP3    H182046   5.321   0.196   2.576 -1.2053  0.2996  1.0049
20185TIP3    H282047   5.284   0.052   2.547  0.0219 -0.2012  1.8520
20186TIP3   OH282048   0.387   5.544   3.230 -0.0060 -0.0477  0.0421
20186TIP3    H182049   0.436   5.622   3.207 -0.2266  0.3195  0.7735
20186TIP3    H282050   0.389   5.490   3.152 -1.5032  1.5254 -1.1687
20187TIP3   OH282051   1.759   4.823  11.705 -0.1889 -0.1446 -0.3084
20187TIP3    H182052   1.710   4.828  11.623 -1.1961 -0.1589  0.2754
20187TIP3    H282053   1.841   4.868  11.687 -0.1252 -0.7145 -1.5132
20188TIP3   OH282054   3.736   3.452  13.318  0.4739 -0.5001 -0.2720
20188TIP3    H182055   3.730   3.546  13.334 -0.1447 -0.5021 -0.4626
20188TIP3    H282056   3.785   3.444  13.237  2.4751 -0.4355  0.8758
20189TIP3   OH282057   1.527   4.945  12.863  0.0793 -0.2488  0.5269
20189TIP3    H182058   1.607   4.913  12.820 -0.4663 -1.8332  0.6437
20189TIP3    H282059   1.524   5.038  12.840  1.1027 -0.5120 -0.8235
20190TIP3   OH282060   5.175   5.848   4.320 -0.0221  0.3586  0.2729
20190TIP3    H182061   5.262   5.880   4.345 -0.2247  0.0332  1.4322
20190TIP3    H282062   5.171   5.759   4.353 -0.4272  0.0146 -0.6780
20191TIP3   OH282063   5.087   2.074  12.483  0.0616 -0.0575 -0.4584
20191TIP3    H182064   4.999   2.038  12.478  0.2813 -0.9231  1.2747
20191TIP3    H282065   5.137   2.024  12.417 -0.8769  0.9820 -2.0105
20192TIP3   OH282066   1.062   1.228   4.097  0.4115 -0.6153  0.3848
20192TIP3    H182067   1.070   1.228   4.193  0.7051 -2.3751  0.3964
20192TIP3    H282068   0.988   1.169   4.079  0.3714 -0.3184 -0.4822
20193TIP3   OH282069   2.899   1.075   5.394  0.3121 -0.3449 -0.5122
20193TIP3    H182070   2.806   1.071   5.369 -0.0251  3.3108 -0.2414
20193TIP3    H282071   2.899   1.095   5.487  1.4269 -0.6462 -0.4282
20194TIP3   OH282072   0.403   4.871  12.154 -0.0789 -0.1917 -0.2729
20194TIP3    H182073   0.341   4.801  12.135 -0.4487 -0.4306  1.6974
20194TIP3    H282074   0.436   4.852  12.241 -0.7958  2.4924  0.6816
20195TIP3   OH282075   6.290   3.703  17.277 -0.3314  0.0240  0.3469
20195TIP3    H182076   6.344   3.624  17.270  0.0003  0.2282  0.5619
20195TIP3    H282077   6.220   3.679  17.338 -0.1905 -0.0815  0.4678
20196TIP3   OH282078   2.767   3.115   3.985 -0.2821  0.2051  0.3679
20196TIP3    H182079   2.810   3.039   4.024 -0.6039 -0.6464 -0.8759
20196TIP3    H282080   2.693   3.079   3.936 -0.3180  1.2917 -0.4297
20197TIP3   OH282081   0.836   3.556  12.191 -0.1335  0.5685  0.0128
20197TIP3    H182082   0.857   3.554  12.097  0.6743  1.7403  0.1523
20197TIP3    H282083   0.921   3.559  12.234 -0.4422  4.3775  0.6348
20198TIP3   OH282084   0.463   4.329  13.996  0.3811  0.2122  0.0874
20198TIP3    H182085   0.485   4.371  14.080  2.7975  0.2381 -0.4829
20198TIP3    H282086   0.386   4.276  14.016  0.1645  1.1367  2.0267
20199TIP3   OH282087   5.784   2.032  11.944  0.2254  0.1467 -0.3125
20199TIP3    H182088   5.697   1.998  11.920 -0.0737  1.1893 -0.7719
20199TIP3    H282089   5.820   2.064  11.861  0.2105  1.5493  0.2062
20200TIP3   OH282090   2.323   6.644  11.927  0.2345 -0.6192 -0.5930
20200TIP3    H182091   2.411   6.677  11.910  0.8622 -1.1816  1.3049
20200TIP3    H282092   2.292   6.695  12.002 -0.8037 -0.8833 -0.8220
20201TIP3   OH282093   2.687   0.068  15.604  0.1025  0.0602 -0.2044
20201TIP3    H182094   2.663   0.095  15.692 -0.4192 -1.5107  0.1566
20201TIP3    H282095   2.644   0.133  15.547 -3.4180 -1.3977  0.5000
20202TIP3   OH282096   3.325   0.132  14.819  0.3469 -0.2160 -0.0645
20202TIP3    H182097   3.242   0.104  14.858  0.7916 -1.0303  0.3123
20202TIP3    H282098   3.373   0.172  14.892  1.1611 -1.6972  0.2451
20203TIP3   OH282099   2.181   1.379  15.114  0.7297 -0.5844 -0.1518
20203TIP3    H182100   2.101   1.395  15.063  1.9802  0.5804 -1.8633
20203TIP3    H282101   2.176   1.439  15.187  0.0849 -0.4415 -0.3096
20204TIP3   OH282102   2.574   5.061   4.275 -0.3826  0.4939  0.7738
20204TIP3    H182103   2.604   5.149   4.254 -1.1254  1.1318  2.2880
20204TIP3    H282104   2.582   5.013   4.192  0.9934  1.6805  0.1719
20205TIP3   OH282105   5.328   0.467  11.158  0.1589 -0.2598 -0.2181
20205TIP3    H182106   5.287   0.553  11.165 -1.2511 -1.0039  1.3704
20205TIP3    H282107   5.259   0.406  11.183  1.7767 -1.7104  0.9113
20206TIP3   OH282108   4.552   6.249   3.060  0.9676  0.6518 -0.7142
20206TIP3    H182109   4.635   6.206   3.044  1.1485  1.5125 -2.3929
20206TIP3    H282110   4.493   6.213   2.993  0.4658  1.2300 -0.5926
20207TIP3   OH282111   2.555   2.928   4.815 -0.1133 -0.0062 -0.3694
20207TIP3    H182112   2.503   2.922   4.735 -0.8310 -0.6858  0.1324
20207TIP3    H282113   2.492   2.919   4.886  0.6360 -0.4121  0.2633
20208TIP3   OH282114   0.224   6.800  12.118  0.2107 -0.5490 -0.0105
20208TIP3    H182115   0.243   6.858  12.044  1.1351 -0.6854  0.1078
20208TIP3    H282116   0.129   6.793  12.119  0.0740  1.0539  0.0427
20209TIP3   OH282117   6.364   2.934  12.466 -0.9100 -0.5168 -0.3482
20209TIP3    H182118   6.333   2.988  12.539 -1.1285 -1.2920  0.1456
20209TIP3    H282119   6.459   2.947  12.466 -1.0722  0.8939 -1.0787
20210TIP3   OH282120   0.244   4.256   3.418  0.3363 -0.7102 -0.1494
20210TIP3    H182121   0.206   4.255   3.330  1.0830 -1.5436 -0.4789
20210TIP3    H282122   0.189   4.198   3.470 -1.4739  1.5151  0.5701
20211TIP3   OH282123   5.835   0.909   0.756 -0.1380 -0.3449 -0.1553
20211TIP3    H182124   5.744   0.926   0.779 -0.2767  0.2079 -1.0614
20211TIP3    H282125   5.867   0.993   0.721  0.8085 -0.4433  0.4265
20212TIP3   OH282126   5.638   5.504  17.050 -0.4941  0.1832 -0.1844
20212TIP3    H182127   5.570   5.540  17.106  0.7307  0.1855  1.3945
20212TIP3    H282128   5.674   5.579  17.003 -1.3367  0.2276 -0.7693
20213TIP3   OH282129   4.140   1.458   1.379 -0.2871 -0.0235 -0.4437
20213TIP3    H182130   4.156   1.429   1.290  2.3242 -1.4408  0.3807
20213TIP3    H282131   4.226   1.452   1.422 -1.4791  0.4507  2.2021
20214TIP3   OH282132   4.439   2.452  12.324  0.0351  0.2410 -0.5702
20214TIP3    H182133   4.438   2.533  12.375 -0.6397  0.0515 -0.2652
20214TIP3    H282134   4.408   2.478  12.237 -2.7127 -0.1009  0.2256
20215TIP3   OH282135   2.093   3.064  11.784 -0.3705 -0.2934  0.0553
20215TIP3    H182136   2.181   3.093  11.806 -0.7082  0.6289  0.2413
20215TIP3    H282137   2.099   2.969  11.779  0.7472 -0.2099 -0.4563
20216TIP3   OH282138   4.630   6.563  13.566  0.3980  0.0013 -0.4035
20216TIP3    H182139   4.697   6.503  13.599  0.4513  0.4210  0.2781
20216TIP3    H282140   4.666   6.650  13.582 -0.6039  0.2453  0.6456
20217TIP3   OH282141   3.080   0.329  12.294 -0.0876 -0.2156  0.2993
20217TIP3    H182142   3.053   0.410  12.338 -1.7899 -1.0093  0.8016
20217TIP3    H282143   3.005   0.305  12.240  0.7054 -1.0490 -0.4682
20218TIP3   OH282144   6.649   2.502  15.338 -0.5233  0.2316  0.1800
20218TIP3    H182145   6.576   2.521  15.278  0.0776 -0.3590 -0.7538
20218TIP3    H282146   6.722   2.478  15.281  0.3671  0.6402  1.1097
20219TIP3   OH282147   2.686   4.040  16.407  0.3947 -0.5283 -0.4153
20219TIP3    H182148   2.737   4.080  16.477  0.0016 -0.4559 -0.1653
20219TIP3    H282149   2.631   3.976  16.452 -0.9500  0.5582 -0.4477
20220TIP3   OH282150   3.944   1.882  13.847  0.0837  0.2526  0.3942
20220TIP3    H182151   4.025   1.932  13.838 -1.2362  2.1654 -2.6931
20220TIP3    H282152   3.886   1.940  13.898 -0.4282  0.5041 -0.4491
20221TIP3   OH282153   2.006   6.161   6.281 -0.2663 -0.1745  0.1438
20221TIP3    H182154   1.987   6.246   6.241 -0.6133 -0.2091  0.2359
20221TIP3    H282155   2.003   6.177   6.375  0.2288 -0.1665  0.1648
20222TIP3   OH282156   4.583   3.408   4.071 -0.0644 -0.3121  0.3268
20222TIP3    H182157   4.677   3.396   4.066  0.1293  0.3697  1.7938
20222TIP3    H282158   4.552   3.338   4.128 -0.4485 -0.4950 -0.0947
20223TIP3   OH282159   2.381   2.897  16.014  0.4301 -0.1919  0.0796
20223TIP3    H182160   2.331   2.977  16.033 -0.1686 -0.8989  1.5832
20223TIP3    H282161   2.463   2.907  16.062  0.0214 -0.8156  0.9266
20224TIP3   OH282162   5.495   0.984   4.327  0.2546  0.3267  0.0355
20224TIP3    H182163   5.452   0.906   4.363 -0.3646  0.6087 -0.0848
20224TIP3    H282164   5.588   0.962   4.328 -0.0038 -0.9298 -1.2052
20225TIP3   OH282165   1.052   3.722  14.918 -0.2009  0.7783 -0.1231
20225TIP3    H182166   1.113   3.648  14.917  1.2616  1.9202 -2.4457
20225TIP3    H282167   0.966   3.681  14.913  0.5773 -0.8114 -1.6786
20226TIP3   OH282168   2.678   5.326   5.596 -0.3516 -0.4570 -0.3965
20226TIP3    H182169   2.682   5.231   5.610  1.3446 -0.3684 -0.0910
20226TIP3    H282170   2.687   5.337   5.501 -0.7558 -0.5923 -0.4549
20227TIP3   OH282171   3.504   2.574   4.950 -0.4728  0.1755 -0.1335
20227TIP3    H182172   3.414   2.550   4.975  0.4447 -2.7347  0.7931
20227TIP3    H282173   3.549   2.590   5.033 -0.1995  2.1528 -0.6140
20228TIP3   OH282174   3.456   0.855   6.302  0.4324 -0.2737 -0.0384
20228TIP3    H182175   3.391   0.856   6.372  0.6989 -3.4561  0.3882
20228TIP3    H282176   3.409   0.888   6.226  0.4016  4.2184  1.6475
20229TIP3   OH282177   3.048   6.636   3.304 -0.5166  1.1011  0.2974
20229TIP3    H182178   3.117   6.683   3.258 -0.0906  0.6516  0.4642
20229TIP3    H282179   2.982   6.702   3.325 -0.4228  1.4226 -0.4022
20230TIP3   OH282180   2.090   2.518  13.172 -0.0217  0.6519  0.3790
20230TIP3    H182181   2.056   2.441  13.128 -1.2358  1.7525 -0.6903
20230TIP3    H282182   2.185   2.511  13.164 -0.1080 -0.7930  0.4539
20231TIP3   OH282183   1.414   3.540  12.199 -0.0191 -0.3217  0.3146
20231TIP3    H182184   1.508   3.527  12.183  0.1736 -0.6351  1.5752
20231TIP3    H282185   1.409   3.565  12.292 -1.1978 -0.4805  0.3060
20232TIP3   OH282186   2.677   4.800   1.026 -0.4554 -0.7832 -0.3485
20232TIP3    H182187   2.724   4.746   0.963 -0.5721 -1.2902 -0.0144
20232TIP3    H282188   2.604   4.837   0.977 -0.1582 -0.6245 -0.6728
20233TIP3   OH282189   4.336   5.637   2.134 -0.5943  0.4191 -0.2558
20233TIP3    H182190   4.385   5.568   2.089 -1.5432 -0.9478  0.7703
20233TIP3    H282191   4.394   5.666   2.205 -0.2970  0.5254 -0.5398
20234TIP3   OH282192   4.623   5.166   4.986 -0.4134  0.1534 -0.3498
20234TIP3    H182193   4.532   5.192   4.973 -0.2618  0.8216 -0.1067
20234TIP3    H282194   4.646   5.203   5.071 -0.5009 -1.6704  0.5241
20235TIP3   OH282195   2.931   3.409  16.717 -0.0122 -0.2086 -0.5717
20235TIP3    H182196   2.878   3.330  16.713 -1.3392  0.5831  0.5215
20235TIP3    H282197   3.013   3.382  16.758 -0.9581 -0.7820  1.0045
20236TIP3   OH282198   0.705   3.214  11.015  0.4214  0.0579  0.5851
20236TIP3    H182199   0.663   3.296  10.988 -0.3243 -1.1755 -2.4063
20236TIP3    H282200   0.637   3.167  11.063  0.1291  0.2493  0.3598
20237TIP3   OH282201   4.317   5.124   1.345  0.0755  0.1131 -0.5349
20237TIP3    H182202   4.408   5.119   1.373 -0.2178  0.5898  0.5603
20237TIP3    H282203   4.317   5.086   1.257  1.6431  1.7768 -1.3152
20238TIP3   OH282204   4.089   4.292   1.741  0.5715 -0.4249 -0.0165
20238TIP3    H182205   4.169   4.294   1.794  0.4357  1.4348  0.1840
20238TIP3    H282206   4.074   4.383   1.718 -2.5122 -0.4165  1.5099
20239TIP3   OH282207   6.024   0.854  12.956 -0.0506  0.5100 -0.2656
20239TIP3    H182208   6.002   0.771  12.999  0.1978  1.2856  1.4810
20239TIP3    H282209   5.942   0.882  12.915 -0.1658 -0.5388 -0.7739
20240TIP3   OH282210   6.244   4.274   4.541  0.1249  0.4731 -0.0307
20240TIP3    H182211   6.252   4.259   4.635  0.5089 -0.9130 -0.2689
20240TIP3    H282212   6.320   4.230   4.503 -0.0536  0.9735 -1.0068
20241TIP3   OH282213   3.553   1.398   5.731 -0.3850 -0.5078  0.2804
20241TIP3    H182214   3.584   1.413   5.820  1.1818 -1.2819 -0.1030
20241TIP3    H282215   3.510   1.312   5.735  0.5570 -1.0005  0.1017
20242TIP3   OH282216   1.601   6.321   3.215  0.2654  0.1415  0.2026
20242TIP3    H182217   1.532   6.255   3.207 -0.8421  1.4444 -1.7819
20242TIP3    H282218   1.682   6.270   3.222 -0.6381 -1.4234 -0.2140
20243TIP3   OH282219   5.001   4.607   4.111  0.3986  0.1177 -0.2478
20243TIP3    H182220   4.989   4.563   4.195 -1.0825  0.7263 -0.1171
20243TIP3    H282221   5.017   4.537   4.048  2.6870 -0.2862  0.6879
20244TIP3   OH282222   6.683   0.135   1.268  0.3060  0.0469 -0.2723
20244TIP3    H182223   6.610   0.113   1.210  0.9086 -0.4516 -0.8438
20244TIP3    H282224   6.668   0.082   1.347 -1.1341  1.5502  0.5372
20245TIP3   OH282225   3.749   4.481   0.271  0.2998  0.3709 -0.5713
20245TIP3    H182226   3.784   4.415   0.331  0.7478 -0.0334 -1.2579
20245TIP3    H282227   3.714   4.430   0.198 -0.7351  0.8269 -0.4145
20246TIP3   OH282228   2.937   4.631  15.874  0.2669  0.3878 -0.3072
20246TIP3    H182229   2.902   4.555  15.918 -0.6745  0.5940 -0.6842
20246TIP3    H282230   2.886   4.639  15.793  3.4089 -1.3441 -2.6890
20247TIP3   OH282231   2.619   3.631  14.703 -0.2952  0.0584  0.2239
20247TIP3    H182232   2.555   3.689  14.663  1.3619  1.6884 -0.1908
20247TIP3    H282233   2.643   3.570  14.633  0.5533  1.1470 -0.4604
20248TIP3   OH282234   4.604   6.261   3.339  0.4382  0.1060 -0.4011
20248TIP3    H182235   4.564   6.348   3.343 -1.9719 -0.9274 -0.2429
20248TIP3    H282236   4.593   6.234   3.247  0.3256 -0.3849 -0.2479
20249TIP3   OH282237   3.138   4.934   0.885 -0.2579  0.0877 -0.5499
20249TIP3    H182238   3.161   5.007   0.943  0.2713 -1.6756  1.5624
20249TIP3    H282239   3.213   4.925   0.827 -0.4517  1.3464 -1.0504
20250TIP3   OH282240   5.822   2.294   1.487  0.5414 -0.6752 -0.8700
20250TIP3    H182241   5.860   2.281   1.401 -1.5667 -0.9755 -1.8214
20250TIP3    H282242   5.749   2.354   1.472  2.6535  2.9025  1.4463
20251TIP3   OH282243   1.266   4.584  11.677  0.2889  0.4186  0.0039
20251TIP3    H182244   1.181   4.609  11.640 -0.2145  0.2921  1.0486
20251TIP3    H282245   1.306   4.666  11.703  0.7152  0.5234 -0.9346
20252TIP3   OH282246   3.711   2.629   4.109 -0.2011 -0.0402  0.5152
20252TIP3    H182247   3.757   2.631   4.025  1.1268  0.6760  1.2330
20252TIP3    H282248   3.671   2.715   4.117  0.7980  0.3697  1.2100
20253TIP3   OH282249   6.603   4.792  10.818  0.4949  0.6297  0.0501
20253TIP3    H182250   6.634   4.850  10.887  0.3069  0.8774 -0.0744
20253TIP3    H282251   6.516   4.825  10.795  0.7958  0.9177 -0.7230
20254TIP3   OH282252   6.661   2.459   3.284  0.2438  0.4103  0.4085
20254TIP3    H182253   6.606   2.400   3.336  0.6278 -0.5755 -0.2568
20254TIP3    H282254   6.602   2.529   3.256 -0.6962 -0.6295 -0.3014
20255TIP3   OH282255   0.343   5.866   4.872  0.1931  0.2467 -0.7963
20255TIP3    H182256   0.349   5.778   4.909  1.1812 -0.0190 -1.5253
20255TIP3    H282257   0.314   5.852   4.782 -0.7228  0.7629 -0.5875
20256TIP3   OH282258   5.669   1.027   1.429  0.5872  0.5017  1.0010
20256TIP3    H182259   5.676   1.122   1.440  0.6857  0.2939  3.3683
20256TIP3    H282260   5.756   0.999   1.402  0.9020  0.9829  1.4827
20257TIP3   OH282261   1.466   5.373  12.596  0.4087  0.5671 -0.1352
20257TIP3    H182262   1.385   5.325  12.583  0.3082  0.4728  0.7765
20257TIP3    H282263   1.476   5.425  12.516  0.7303 -1.2323 -1.3099
20258TIP3   OH282264   3.283   0.961   0.512 -0.2968  0.0545  0.0708
20258TIP3    H182265   3.315   0.873   0.533  0.4523 -0.1644 -1.7615
20258TIP3    H282266   3.194   0.947   0.481  0.5542 -0.4431 -2.4026
20259TIP3   OH282267   0.310   3.264  16.682  1.0669  0.1182 -0.1712
20259TIP3    H182268   0.400   3.275  16.652  1.1288 -1.6789 -0.7910
20259TIP3    H282269   0.269   3.209  16.615 -0.0661 -0.3344  0.8522
20260LIG      O82270   2.883   3.247  14.761  0.0509  0.1574 -0.2727
20260LIG      N82271   3.291   3.320  14.834 -0.2838 -0.2475  0.5840
20260LIG     C182272   2.945   3.116  14.548  0.5935  0.6292 -1.2535
20260LIG     C282273   2.977   3.148  14.699  1.4376 -0.1749 -0.4945
20260LIG     C382274   2.814   3.032  14.534 -0.2739 -0.3264 -0.7265
20260LIG     C482275   2.935   3.244  14.458  0.4392 -0.7468  0.4688
20260LIG     C582276   3.119   3.197  14.711  0.1638  0.2997 -0.1935
20260LIG     C682277   2.769   3.002  14.390 -0.2667 -0.4500 -0.1016
20260LIG     C782278   2.898   3.209  14.317 -0.3865  0.0474  0.3118
20260LIG     C882279   2.765   3.138  14.307 -0.1319  0.0704 -0.5068
20260LIG     C982280   3.176   3.220  14.851 -0.4230 -0.3068 -0.0172
20260LIG    C1082281   2.973   3.016  14.781  0.1926 -0.8348 -0.2838
20260LIG    C1182282   3.352   3.367  14.961  0.1333  0.2409 -0.2245
20260LIG    C1282283   3.406   3.273  14.743  0.5148  0.4482 -0.5522
20260LIG    C1382284   3.440   3.261  15.034 -0.5362 -0.1516 -0.3750
20260LIG    C1482285   3.486   3.162  14.804 -0.9777  0.1178 -0.7148
20260LIG    C1582286   3.550   3.196  14.940 -0.2549 -0.4664 -0.1582
20260LIG    C1682287   3.060   2.913  14.747 -0.2359  0.7539  0.4841
20260LIG    C1782288   2.880   2.996  14.892 -0.1196  0.2192  0.3054
20260LIG    C1882289   3.068   2.796  14.824  0.1905 -0.0563  0.0246
20260LIG    C1982290   2.881   2.875  14.964 -1.1545  0.5052 -0.5940
20260LIG    C2082291   2.980   2.780  14.932  0.4860 -0.2049  0.2812
20260LIG     H182292   3.024   3.047  14.512  0.7405 -0.2560  0.6250
20260LIG     H282293   2.726   3.073  14.588 -1.3811 -1.4503 -1.6127
20260LIG     H382294   2.822   2.936  14.589 -1.6220  0.9315  1.8438
20260LIG     H482295   3.022   3.311  14.470 -1.9884  2.5587  1.1674
20260LIG     H582296   2.858   3.311  14.501  0.6819  0.3557 -0.7483
20260LIG     H682297   3.106   3.296  14.662 -2.4950 -0.1157 -0.4454
20260LIG     H782298   3.189   3.142  14.644  1.1224 -1.2799  1.9651
20260LIG     H882299   2.673   2.948  14.386  0.2595 -1.4085 -0.0825
20260LIG     H982300   2.844   2.930  14.350  1.2182  0.9801 -0.0207
20260LIG    H1082301   2.975   3.143  14.271 -1.8289 -1.0232 -0.6730
20260LIG    H1182302   2.904   3.301  14.255  0.5069 -0.0358  0.2524
20260LIG    H1282303   2.691   3.209  14.351  2.0412  3.1284 -1.4239
20260LIG    H1382304   2.729   3.121  14.203 -3.6832 -1.0198  0.7491
20260LIG    H1482305   3.098   3.272  14.910 -1.3778 -2.3004  0.5964
20260LIG    H1582306   3.201   3.130  14.912  0.9309 -0.2062 -0.3979
20260LIG    H1682307   3.274   3.392  15.036 -0.8288 -0.0589 -1.1070
20260LIG    H1782308   3.411   3.457  14.932 -1.6909  1.6669  0.3448
20260LIG    H1882309   3.466   3.366  14.734 -1.3556  2.0372  1.9889
20260LIG    H1982310   3.371   3.237  14.644  3.2109 -0.2499 -1.3377
20260LIG    H2082311   2.795   3.218  14.736 -0.1633  2.9025 -3.2427
20260LIG    H2182312   3.376   3.178  15.070  2.9381 -3.3090 -0.8398
20260LIG    H2282313   3.487   3.299  15.127  0.6114 -1.5430 -0.3441
20260LIG    H2382314   3.568   3.136  14.733 -1.3584 -1.0787 -0.7244
20260LIG    H2482315   3.419   3.074  14.806  2.0063 -2.3390 -1.1382
20260LIG    H2582316   3.590   3.100  14.980 -2.5390 -0.8816  1.2788
20260LIG    H2682317   3.632   3.265  14.909 -1.6640  0.2300 -2.5741
20260LIG    H2782318   3.129   2.932  14.666 -0.1491 -0.1601  0.3321
20260LIG    H2882319   2.805   3.070  14.916 -1.2800 -0.8461  0.1025
20260LIG    H2982320   3.137   2.715  14.804 -0.3705 -0.9791  1.6271
20260LIG    H3082321   2.830   2.858  15.057  1.4328 -1.0744  0.6473
20260LIG    H3182322   2.980   2.685  14.984 -1.6982  0.0798  0.9106
   6.82541   6.82541  17.30579
