* GENERATE LIGAND
*  DATE:     4/17/25      6:23:22      CREATED BY USER: charmm-gui
*
        73  EXT
         1         1  LIG       O1              1.2182889040        0.3121085118       -1.5955271881  LIG       1               0.0000000000
         2         1  LIG       O2             -7.3718853760        1.0588531329        2.2140663623  LIG       1               0.0000000000
         3         1  LIG       O3              3.5359868806       -3.9092462305        2.5467348272  LIG       1               0.0000000000
         4         1  LIG       O4             -6.7036213972        1.9256219372        0.2440113681  LIG       1               0.0000000000
         5         1  LIG       N              -1.0284823304       -2.4529125122       -2.7655119324  LIG       1               0.0000000000
         6         1  LIG       C1             -1.9338200907       -2.4793850688       -1.5401989320  LIG       1               0.0000000000
         7         1  LIG       C2             -0.2673509297       -1.1416085510       -2.7995712663  LIG       1               0.0000000000
         8         1  LIG       C3             -2.9675552344       -1.3328594143       -1.5110157646  LIG       1               0.0000000000
         9         1  LIG       C4             -1.8661203673       -2.5837785155       -4.0042249565  LIG       1               0.0000000000
        10         1  LIG       C5             -0.0367908194       -3.5884050573       -2.7288953266  LIG       1               0.0000000000
        11         1  LIG       C6              0.5611127803       -0.9286993076       -1.5404201823  LIG       1               0.0000000000
        12         1  LIG       C7             -3.7956725541       -1.3377924572       -0.2243867225  LIG       1               0.0000000000
        13         1  LIG       C8              1.6264454422        0.8062408248       -0.2944094872  LIG       1               0.0000000000
        14         1  LIG       C9             -4.7897515107       -0.1682883670       -0.2274384877  LIG       1               0.0000000000
        15         1  LIG       C10             2.1819395697       -0.3873032774        0.5647380254  LIG       1               0.0000000000
        16         1  LIG       C11             0.4103431256        1.5159619733        0.3809153066  LIG       1               0.0000000000
        17         1  LIG       C12             2.7214846638        1.8698494159       -0.5145318032  LIG       1               0.0000000000
        18         1  LIG       C13            -5.6664860986       -0.1600064154        1.0365110347  LIG       1               0.0000000000
        19         1  LIG       C14             1.3154060831       -1.1585498906        1.3846149136  LIG       1               0.0000000000
        20         1  LIG       C15             3.4973351983       -0.8801532081        0.3941284277  LIG       1               0.0000000000
        21         1  LIG       C16            -0.6596698843        1.9903106576       -0.4128353453  LIG       1               0.0000000000
        22         1  LIG       C17             3.2886432208        2.5855463803        0.5631215560  LIG       1               0.0000000000
        23         1  LIG       C18             0.2761438675        1.6311120449        1.7885923640  LIG       1               0.0000000000
        24         1  LIG       C19             3.2285981312        2.1184756627       -1.8131065870  LIG       1               0.0000000000
        25         1  LIG       C20            -6.6001584691        1.0382162046        1.0814935254  LIG       1               0.0000000000
        26         1  LIG       C21             1.7398161734       -2.3032848074        2.0430411374  LIG       1               0.0000000000
        27         1  LIG       C22             3.9309301006       -2.0354466961        1.0632980914  LIG       1               0.0000000000
        28         1  LIG       C23            -1.8201301419        2.5118001931        0.1667787843  LIG       1               0.0000000000
        29         1  LIG       C24             4.2973234420        3.5305667739        0.3449507659  LIG       1               0.0000000000
        30         1  LIG       C25            -0.8950460126        2.1204667467        2.3707376840  LIG       1               0.0000000000
        31         1  LIG       C26             4.2364190278        3.0575002018       -2.0312946578  LIG       1               0.0000000000
        32         1  LIG       C27             3.0632638271       -2.7514796109        1.9008324020  LIG       1               0.0000000000
        33         1  LIG       C28            -1.9408133754        2.5662882156        1.5586359979  LIG       1               0.0000000000
        34         1  LIG       C29             4.7672093460        3.7674004194       -0.9517646560  LIG       1               0.0000000000
        35         1  LIG       C30             2.6017972945       -4.5760957977        3.3964937034  LIG       1               0.0000000000
        36         1  LIG       H1             -1.3237289384       -2.4026811156       -0.6409335983  LIG       1               0.0000000000
        37         1  LIG       H2             -2.4443258563       -3.4336155219       -1.4650437294  LIG       1               0.0000000000
        38         1  LIG       H3             -0.9658271334       -0.3101171587       -2.8695410673  LIG       1               0.0000000000
        39         1  LIG       H4              0.3797918271       -1.0744776644       -3.6660180824  LIG       1               0.0000000000
        40         1  LIG       H5             -3.6795172874       -1.4122107783       -2.3604782867  LIG       1               0.0000000000
        41         1  LIG       H6             -2.4752679804       -0.3361113430       -1.5651139758  LIG       1               0.0000000000
        42         1  LIG       H7             -2.6053272985       -1.7879705291       -4.0407181078  LIG       1               0.0000000000
        43         1  LIG       H8             -2.4081487271       -3.5227147252       -4.0052281881  LIG       1               0.0000000000
        44         1  LIG       H9             -1.2672492610       -2.5314206088       -4.9035802465  LIG       1               0.0000000000
        45         1  LIG       H10            -0.5204330802       -4.5550443100       -2.7006995441  LIG       1               0.0000000000
        46         1  LIG       H11             0.6136119463       -3.5113031546       -1.8612509795  LIG       1               0.0000000000
        47         1  LIG       H12             0.6093398536       -3.5601024422       -3.6016060528  LIG       1               0.0000000000
        48         1  LIG       H13            -0.1223509301       -0.9076678784       -0.6684313000  LIG       1               0.0000000000
        49         1  LIG       H14             1.3324156511       -1.7190328147       -1.4174198371  LIG       1               0.0000000000
        50         1  LIG       H15            -3.1314096361       -1.2411198733        0.6644833499  LIG       1               0.0000000000
        51         1  LIG       H16            -4.3579848198       -2.2944822292       -0.1372330834  LIG       1               0.0000000000
        52         1  LIG       H17            -5.4400036702       -0.2322589760       -1.1303180368  LIG       1               0.0000000000
        53         1  LIG       H18            -4.2270903882        0.7916099673       -0.2948970624  LIG       1               0.0000000000
        54         1  LIG       H19            -5.0173176382       -0.1249306353        1.9368515124  LIG       1               0.0000000000
        55         1  LIG       H20            -6.2807713305       -1.0843410507        1.0705268810  LIG       1               0.0000000000
        56         1  LIG       H21             0.2745662326       -0.8930918247        1.4985964445  LIG       1               0.0000000000
        57         1  LIG       H22             4.1842262058       -0.3686114954       -0.2657743637  LIG       1               0.0000000000
        58         1  LIG       H23            -0.5879667776        1.9452025014       -1.4889536159  LIG       1               0.0000000000
        59         1  LIG       H24             2.9465730522        2.4082641506        1.5712387174  LIG       1               0.0000000000
        60         1  LIG       H25             1.0624140597        1.2780967658        2.4407220548  LIG       1               0.0000000000
        61         1  LIG       H26             2.8418872651        1.5790251083       -2.6646313185  LIG       1               0.0000000000
        62         1  LIG       H27             1.0084134895       -2.8125506513        2.6502766770  LIG       1               0.0000000000
        63         1  LIG       H28             4.9434944862       -2.3893538898        0.9348411839  LIG       1               0.0000000000
        64         1  LIG       H29            -2.6252781109        2.8717970232       -0.4583667285  LIG       1               0.0000000000
        65         1  LIG       H30             4.7148845835        4.0773164148        1.1779319642  LIG       1               0.0000000000
        66         1  LIG       H31            -0.9899384679        2.1526273116        3.4476675898  LIG       1               0.0000000000
        67         1  LIG       H32             4.6016602491        3.2311856466       -3.0339644885  LIG       1               0.0000000000
        68         1  LIG       H33            -2.8377555970        2.9671192743        2.0083781270  LIG       1               0.0000000000
        69         1  LIG       H34             5.5442167505        4.4975160272       -1.1222943038  LIG       1               0.0000000000
        70         1  LIG       H35            -7.9314093260        1.8330068243        2.1802528155  LIG       1               0.0000000000
        71         1  LIG       H36             1.7342329624       -4.9474771748        2.8062892945  LIG       1               0.0000000000
        72         1  LIG       H37             2.2408382414       -3.8943187373        4.2003403776  LIG       1               0.0000000000
        73         1  LIG       H38             3.0913758246       -5.4472543744        3.8787772692  LIG       1               0.0000000000
