PSF EXT CMAP XPLOR

         2 !NTITLE
* GENERATE LIGAND                                                               
*  DATE:     4/17/25      6:23:22      CREATED BY USER: charmm-gui              

        73 !NATOM
         1 LIG      1        LIG      O1       OG301   -0.339000       15.9994           0
         2 LIG      1        LIG      O2       OG311   -0.605000       15.9994           0
         3 LIG      1        LIG      O3       OG301   -0.389000       15.9994           0
         4 LIG      1        LIG      O4       OG2D1   -0.575000       15.9994           0
         5 LIG      1        LIG      N        NG3P0   -0.599000       14.0070           0
         6 LIG      1        LIG      C1       CG324   -0.980000E-01   12.0110           0
         7 LIG      1        LIG      C2       CG324   -0.107000       12.0110           0
         8 LIG      1        LIG      C3       CG321   -0.180000       12.0110           0
         9 LIG      1        LIG      C4       CG334   -0.350000       12.0110           0
        10 LIG      1        LIG      C5       CG334   -0.350000       12.0110           0
        11 LIG      1        LIG      C6       CG321    0.350000E-01   12.0110           0
        12 LIG      1        LIG      C7       CG321   -0.176000       12.0110           0
        13 LIG      1        LIG      C8       CG301    0.291000       12.0110           0
        14 LIG      1        LIG      C9       CG321   -0.185000       12.0110           0
        15 LIG      1        LIG      C10      CG2R61   0.105000       12.0110           0
        16 LIG      1        LIG      C11      CG2R61   0.105000       12.0110           0
        17 LIG      1        LIG      C12      CG2R61   0.105000       12.0110           0
        18 LIG      1        LIG      C13      CG321   -0.160000       12.0110           0
        19 LIG      1        LIG      C14      CG2R61  -0.193000       12.0110           0
        20 LIG      1        LIG      C15      CG2R61  -0.193000       12.0110           0
        21 LIG      1        LIG      C16      CG2R61  -0.194000       12.0110           0
        22 LIG      1        LIG      C17      CG2R61  -0.194000       12.0110           0
        23 LIG      1        LIG      C18      CG2R61  -0.194000       12.0110           0
        24 LIG      1        LIG      C19      CG2R61  -0.194000       12.0110           0
        25 LIG      1        LIG      C20      CG2O2    0.727000       12.0110           0
        26 LIG      1        LIG      C21      CG2R61  -0.117000       12.0110           0
        27 LIG      1        LIG      C22      CG2R61  -0.117000       12.0110           0
        28 LIG      1        LIG      C23      CG2R61  -0.115000       12.0110           0
        29 LIG      1        LIG      C24      CG2R61  -0.115000       12.0110           0
        30 LIG      1        LIG      C25      CG2R61  -0.115000       12.0110           0
        31 LIG      1        LIG      C26      CG2R61  -0.115000       12.0110           0
        32 LIG      1        LIG      C27      CG2R61   0.222000       12.0110           0
        33 LIG      1        LIG      C28      CG2R61  -0.115000       12.0110           0
        34 LIG      1        LIG      C29      CG2R61  -0.115000       12.0110           0
        35 LIG      1        LIG      C30      CG331   -0.101000       12.0110           0
        36 LIG      1        LIG      H1       HGP5     0.250000       1.00800           0
        37 LIG      1        LIG      H2       HGP5     0.250000       1.00800           0
        38 LIG      1        LIG      H3       HGP5     0.250000       1.00800           0
        39 LIG      1        LIG      H4       HGP5     0.250000       1.00800           0
        40 LIG      1        LIG      H5       HGA2     0.900000E-01   1.00800           0
        41 LIG      1        LIG      H6       HGA2     0.900000E-01   1.00800           0
        42 LIG      1        LIG      H7       HGP5     0.250000       1.00800           0
        43 LIG      1        LIG      H8       HGP5     0.250000       1.00800           0
        44 LIG      1        LIG      H9       HGP5     0.250000       1.00800           0
        45 LIG      1        LIG      H10      HGP5     0.250000       1.00800           0
        46 LIG      1        LIG      H11      HGP5     0.250000       1.00800           0
        47 LIG      1        LIG      H12      HGP5     0.250000       1.00800           0
        48 LIG      1        LIG      H13      HGA2     0.900000E-01   1.00800           0
        49 LIG      1        LIG      H14      HGA2     0.900000E-01   1.00800           0
        50 LIG      1        LIG      H15      HGA2     0.900000E-01   1.00800           0
        51 LIG      1        LIG      H16      HGA2     0.900000E-01   1.00800           0
        52 LIG      1        LIG      H17      HGA2     0.900000E-01   1.00800           0
        53 LIG      1        LIG      H18      HGA2     0.900000E-01   1.00800           0
        54 LIG      1        LIG      H19      HGA2     0.900000E-01   1.00800           0
        55 LIG      1        LIG      H20      HGA2     0.900000E-01   1.00800           0
        56 LIG      1        LIG      H21      HGR61    0.115000       1.00800           0
        57 LIG      1        LIG      H22      HGR61    0.115000       1.00800           0
        58 LIG      1        LIG      H23      HGR61    0.115000       1.00800           0
        59 LIG      1        LIG      H24      HGR61    0.115000       1.00800           0
        60 LIG      1        LIG      H25      HGR61    0.115000       1.00800           0
        61 LIG      1        LIG      H26      HGR61    0.115000       1.00800           0
        62 LIG      1        LIG      H27      HGR61    0.115000       1.00800           0
        63 LIG      1        LIG      H28      HGR61    0.115000       1.00800           0
        64 LIG      1        LIG      H29      HGR61    0.115000       1.00800           0
        65 LIG      1        LIG      H30      HGR61    0.115000       1.00800           0
        66 LIG      1        LIG      H31      HGR61    0.115000       1.00800           0
        67 LIG      1        LIG      H32      HGR61    0.115000       1.00800           0
        68 LIG      1        LIG      H33      HGR61    0.115000       1.00800           0
        69 LIG      1        LIG      H34      HGR61    0.115000       1.00800           0
        70 LIG      1        LIG      H35      HGP1     0.430000       1.00800           0
        71 LIG      1        LIG      H36      HGA3     0.900000E-01   1.00800           0
        72 LIG      1        LIG      H37      HGA3     0.900000E-01   1.00800           0
        73 LIG      1        LIG      H38      HGA3     0.900000E-01   1.00800           0

        75 !NBOND: bonds
         1        11         1        13         2        25         2        70
         3        32         3        35         4        25         5         6
         5         7         5         9         5        10         6         8
         6        36         6        37         7        11         7        38
         7        39         8        12         8        40         8        41
         9        42         9        43         9        44        10        45
        10        46        10        47        11        48        11        49
        12        14        12        50        12        51        13        15
        13        16        13        17        14        18        14        52
        14        53        15        19        15        20        16        21
        16        23        17        22        17        24        18        25
        18        54        18        55        19        26        19        56
        20        27        20        57        21        28        21        58
        22        29        22        59        23        30        23        60
        24        31        24        61        26        32        26        62
        27        32        27        63        28        33        28        64
        29        34        29        65        30        33        30        66
        31        34        31        67        33        68        34        69
        35        71        35        72        35        73

       132 !NTHETA: angles
        11         1        13        25         2        70        32         3        35
         6         5         7         6         5         9         6         5        10
         7         5         9         7         5        10         9         5        10
         5         6         8         5         6        36         5         6        37
         8         6        36         8         6        37        36         6        37
         5         7        11         5         7        38         5         7        39
        11         7        38        11         7        39        38         7        39
         6         8        12         6         8        40         6         8        41
        12         8        40        12         8        41        40         8        41
         5         9        42         5         9        43         5         9        44
        42         9        43        42         9        44        43         9        44
         5        10        45         5        10        46         5        10        47
        45        10        46        45        10        47        46        10        47
         1        11         7         1        11        48         1        11        49
         7        11        48         7        11        49        48        11        49
         8        12        14         8        12        50         8        12        51
        14        12        50        14        12        51        50        12        51
         1        13        15         1        13        16         1        13        17
        15        13        16        15        13        17        16        13        17
        12        14        18        12        14        52        12        14        53
        18        14        52        18        14        53        52        14        53
        13        15        19        13        15        20        19        15        20
        13        16        21        13        16        23        21        16        23
        13        17        22        13        17        24        22        17        24
        14        18        25        14        18        54        14        18        55
        25        18        54        25        18        55        54        18        55
        15        19        26        15        19        56        26        19        56
        15        20        27        15        20        57        27        20        57
        16        21        28        16        21        58        28        21        58
        17        22        29        17        22        59        29        22        59
        16        23        30        16        23        60        30        23        60
        17        24        31        17        24        61        31        24        61
         2        25         4         2        25        18         4        25        18
        19        26        32        19        26        62        32        26        62
        20        27        32        20        27        63        32        27        63
        21        28        33        21        28        64        33        28        64
        22        29        34        22        29        65        34        29        65
        23        30        33        23        30        66        33        30        66
        24        31        34        24        31        67        34        31        67
         3        32        26         3        32        27        26        32        27
        28        33        30        28        33        68        30        33        68
        29        34        31        29        34        69        31        34        69
         3        35        71         3        35        72         3        35        73
        71        35        72        71        35        73        72        35        73

       190 !NPHI: dihedrals
         1        11         7         5         1        11         7        38
         1        11         7        39         1        13        15        19
         1        13        15        20         1        13        16        21
         1        13        16        23         1        13        17        22
         1        13        17        24         2        25        18        14
         2        25        18        54         2        25        18        55
         3        32        26        19         3        32        26        62
         3        32        27        20         3        32        27        63
         4        25         2        70         4        25        18        14
         4        25        18        54         4        25        18        55
         5         6         8        12         5         6         8        40
         5         6         8        41         5         7        11        48
         5         7        11        49         6         5         7        11
         6         5         7        38         6         5         7        39
         6         5         9        42         6         5         9        43
         6         5         9        44         6         5        10        45
         6         5        10        46         6         5        10        47
         6         8        12        14         6         8        12        50
         6         8        12        51         7         5         6         8
         7         5         6        36         7         5         6        37
         7         5         9        42         7         5         9        43
         7         5         9        44         7         5        10        45
         7         5        10        46         7         5        10        47
         7        11         1        13         8         6         5         9
         8         6         5        10         8        12        14        18
         8        12        14        52         8        12        14        53
         9         5         6        36         9         5         6        37
         9         5         7        11         9         5         7        38
         9         5         7        39         9         5        10        45
         9         5        10        46         9         5        10        47
        10         5         6        36        10         5         6        37
        10         5         7        11        10         5         7        38
        10         5         7        39        10         5         9        42
        10         5         9        43        10         5         9        44
        11         1        13        15        11         1        13        16
        11         1        13        17        12         8         6        36
        12         8         6        37        12        14        18        25
        12        14        18        54        12        14        18        55
        13         1        11        48        13         1        11        49
        13        15        19        26        13        15        19        56
        13        15        20        27        13        15        20        57
        13        16        21        28        13        16        21        58
        13        16        23        30        13        16        23        60
        13        17        22        29        13        17        22        59
        13        17        24        31        13        17        24        61
        14        12         8        40        14        12         8        41
        15        13        16        21        15        13        16        23
        15        13        17        22        15        13        17        24
        15        19        26        32        15        19        26        62
        15        20        27        32        15        20        27        63
        16        13        15        19        16        13        15        20
        16        13        17        22        16        13        17        24
        16        21        28        33        16        21        28        64
        16        23        30        33        16        23        30        66
        17        13        15        19        17        13        15        20
        17        13        16        21        17        13        16        23
        17        22        29        34        17        22        29        65
        17        24        31        34        17        24        31        67
        18        14        12        50        18        14        12        51
        18        25         2        70        19        15        20        27
        19        15        20        57        19        26        32        27
        20        15        19        26        20        15        19        56
        20        27        32        26        21        16        23        30
        21        16        23        60        21        28        33        30
        21        28        33        68        22        17        24        31
        22        17        24        61        22        29        34        31
        22        29        34        69        23        16        21        28
        23        16        21        58        23        30        33        28
        23        30        33        68        24        17        22        29
        24        17        22        59        24        31        34        29
        24        31        34        69        25        18        14        52
        25        18        14        53        26        32         3        35
        26        32        27        63        27        32         3        35
        27        32        26        62        28        33        30        66
        29        34        31        67        30        33        28        64
        31        34        29        65        32         3        35        71
        32         3        35        72        32         3        35        73
        32        26        19        56        32        27        20        57
        33        28        21        58        33        30        23        60
        34        29        22        59        34        31        24        61
        36         6         8        40        36         6         8        41
        37         6         8        40        37         6         8        41
        38         7        11        48        38         7        11        49
        39         7        11        48        39         7        11        49
        40         8        12        50        40         8        12        51
        41         8        12        50        41         8        12        51
        50        12        14        52        50        12        14        53
        51        12        14        52        51        12        14        53
        52        14        18        54        52        14        18        55
        53        14        18        54        53        14        18        55
        56        19        26        62        57        20        27        63
        58        21        28        64        59        22        29        65
        60        23        30        66        61        24        31        67
        64        28        33        68        65        29        34        69
        66        30        33        68        67        31        34        69

         1 !NIMPHI: impropers
        25        18         4         2

         0 !NDON: donors


         0 !NACC: acceptors


         0 !NNB

         0         0         0         0         0         0         0         0
         0         0         0         0         0         0         0         0
         0         0         0         0         0         0         0         0
         0         0         0         0         0         0         0         0
         0         0         0         0         0         0         0         0
         0         0         0         0         0         0         0         0
         0         0         0         0         0         0         0         0
         0         0         0         0         0         0         0         0
         0         0         0         0         0         0         0         0
         0

         1         0 !NGRP NST2
         0         2         0

         0         0 !NUMLP NUMLPH

         0 !NCRTERM: cross-terms

