* GENERATED BY CHARMM-GUI (HTTP://WWW.CHARMM-GUI.ORG)
*
        35  EXT
         1         1  LIG       O1              1.2192000000        0.3713000000       -1.5486000000  LIG       1               0.0000000000
         2         1  LIG       O2             -7.3474000000        1.0434000000        2.1881000000  LIG       1               0.0000000000
         3         1  LIG       O3              3.4810000000       -3.8226000000        2.5330000000  LIG       1               0.0000000000
         4         1  LIG       O4             -6.6858000000        1.9288000000        0.2052000000  LIG       1               0.0000000000
         5         1  LIG       N              -1.0281000000       -2.4023000000       -2.6770000000  LIG       1               0.0000000000
         6         1  LIG       C1             -1.8645000000       -2.4741000000       -1.4533000000  LIG       1               0.0000000000
         7         1  LIG       C2             -0.2847000000       -1.0615000000       -2.7516000000  LIG       1               0.0000000000
         8         1  LIG       C3             -2.9019000000       -1.3608000000       -1.4964000000  LIG       1               0.0000000000
         9         1  LIG       C4             -1.8934000000       -2.5388000000       -3.9375000000  LIG       1               0.0000000000
        10         1  LIG       C5              0.0158000000       -3.5276000000       -2.6909000000  LIG       1               0.0000000000
        11         1  LIG       C6              0.5560000000       -0.8851000000       -1.5025000000  LIG       1               0.0000000000
        12         1  LIG       C7             -3.7874000000       -1.3187000000       -0.2476000000  LIG       1               0.0000000000
        13         1  LIG       C8              1.6363000000        0.7886000000       -0.2558000000  LIG       1               0.0000000000
        14         1  LIG       C9             -4.7840000000       -0.1540000000       -0.2519000000  LIG       1               0.0000000000
        15         1  LIG       C10             2.1361000000       -0.4636000000        0.4988000000  LIG       1               0.0000000000
        16         1  LIG       C11             0.3769000000        1.4111000000        0.3869000000  LIG       1               0.0000000000
        17         1  LIG       C12             2.7405000000        1.8373000000       -0.5089000000  LIG       1               0.0000000000
        18         1  LIG       C13            -5.6641000000       -0.1355000000        0.9993000000  LIG       1               0.0000000000
        19         1  LIG       C14             1.2678000000       -1.1681000000        1.3325000000  LIG       1               0.0000000000
        20         1  LIG       C15             3.4564000000       -0.8880000000        0.3482000000  LIG       1               0.0000000000
        21         1  LIG       C16            -0.6467000000        1.9060000000       -0.4213000000  LIG       1               0.0000000000
        22         1  LIG       C17             3.2778000000        2.5564000000        0.5587000000  LIG       1               0.0000000000
        23         1  LIG       C18             0.2635000000        1.4785000000        1.7754000000  LIG       1               0.0000000000
        24         1  LIG       C19             3.2007000000        2.0659000000       -1.8056000000  LIG       1               0.0000000000
        25         1  LIG       C20            -6.6023000000        1.0499000000        1.0517000000  LIG       1               0.0000000000
        26         1  LIG       C21             1.7195000000       -2.2971000000        2.0157000000  LIG       1               0.0000000000
        27         1  LIG       C22             3.9081000000       -2.0171000000        1.0313000000  LIG       1               0.0000000000
        28         1  LIG       C23            -1.7837000000        2.4683000000        0.1591000000  LIG       1               0.0000000000
        29         1  LIG       C24             4.2755000000        3.5041000000        0.3297000000  LIG       1               0.0000000000
        30         1  LIG       C25            -0.8734000000        2.0407000000        2.3559000000  LIG       1               0.0000000000
        31         1  LIG       C26             4.1983000000        3.0135000000       -2.0348000000  LIG       1               0.0000000000
        32         1  LIG       C27             3.0396000000       -2.7217000000        1.8651000000  LIG       1               0.0000000000
        33         1  LIG       C28            -1.8970000000        2.5356000000        1.5478000000  LIG       1               0.0000000000
        34         1  LIG       C29             4.7356000000        3.7327000000       -0.9671000000  LIG       1               0.0000000000
        35         1  LIG       C30             2.5401000000       -4.4953000000        3.3685000000  LIG       1               0.0000000000
